Title
82323
    1SAPS     N    1   5.640   0.910  10.882  0.1047  0.5296 -0.8042
    1SAPS   HN1    2   5.695   0.935  10.798 -0.0500 -0.6158 -1.2574
    1SAPS   HN2    3   5.647   0.808  10.902  4.3845  0.5528 -1.3657
    1SAPS   HN3    4   5.542   0.943  10.867 -0.0777  1.2492  1.5282
    1SAPS   C12    5   5.701   0.988  10.992 -0.3176  0.1133  0.0456
    1SAPS  H12A    6   5.702   1.088  10.951  2.6885 -0.0997 -0.5625
    1SAPS   C13    7   5.614   0.991  11.121 -0.8202 -0.3332 -0.3720
    1SAPS  O13A    8   5.508   0.930  11.129  0.1005  0.5788  0.0633
    1SAPS  O13B    9   5.656   1.059  11.221  0.6233  0.1133 -0.1624
    1SAPS   C11   10   5.844   0.934  11.040 -0.2243 -0.7729 -0.1293
    1SAPS  H11A   11   5.824   0.836  11.088 -0.4706 -0.4302  0.4818
    1SAPS  H11B   12   5.893   0.992  11.121 -1.1881 -2.2046  1.5433
    1SAPS     P   13   6.054   0.824  10.925  0.3942  0.1135 -0.8607
    1SAPS   O13   14   6.054   0.755  11.060  0.4183 -0.6882  0.2974
    1SAPS   O14   15   6.037   0.735  10.808  0.3585 -0.3924 -0.4139
    1SAPS   O12   16   5.929   0.925  10.928  0.2033  0.1861 -0.0633
    1SAPS   O11   17   6.184   0.913  10.907 -0.3165  0.2160  0.1027
    1SAPS    C1   18   6.166   1.050  10.873  0.1071 -0.0032  0.3788
    1SAPS    HA   19   6.062   1.087  10.862 -0.0964 -0.0209  1.9415
    1SAPS    HB   20   6.217   1.114  10.948 -2.2927  1.1745  1.1218
    1SAPS    C2   21   6.235   1.085  10.735 -0.3268  0.1324 -0.5351
    1SAPS    HS   22   6.168   1.140  10.667  0.7470  1.8800 -0.2471
    1SAPS   O21   23   6.281   0.962  10.669  0.4333 -0.1019 -0.0395
    1SAPS   C21   24   6.184   0.899  10.590 -1.3863  0.7374 -0.7550
    1SAPS   O22   25   6.080   0.949  10.557  0.1085 -0.0098  0.1335
    1SAPS   C22   26   6.250   0.787  10.511  1.3491 -0.1277  0.4740
    1SAPS   H2R   27   6.302   0.836  10.426 -0.7435 -1.5813 -1.7791
    1SAPS   H2S   28   6.310   0.723  10.579 -0.5295  0.1101  2.4247
    1SAPS    C3   29   6.365   1.168  10.766  0.3392  0.9752  0.7197
    1SAPS    HX   30   6.427   1.114  10.840 -0.0943 -0.3944  0.1074
    1SAPS    HY   31   6.334   1.254  10.830 -1.7695  0.3065  0.6666
    1SAPS   O31   32   6.442   1.207  10.653 -0.5662  0.0414 -0.1739
    1SAPS   C31   33   6.396   1.308  10.587  0.6045 -0.3078  0.0114
    1SAPS   O32   34   6.290   1.367  10.607  0.0003  0.6681 -0.3393
    1SAPS   C32   35   6.494   1.337  10.473  0.1200 -0.1140  0.9378
    1SAPS   H2X   36   6.572   1.258  10.487  0.4339  0.3875  2.1473
    1SAPS   H2Y   37   6.546   1.432  10.496 -2.4374  1.5831  0.0471
    1SAPS   C23   38   6.133   0.700  10.461  0.3058  0.2180  0.3167
    1SAPS   H3R   39   6.057   0.677  10.539  2.4678 -1.3048  2.1293
    1SAPS   H3S   40   6.176   0.605  10.422  1.1352 -1.3915  4.5564
    1SAPS   C24   41   6.066   0.758  10.332  0.3608  0.0489 -0.1908
    1SAPS   H4R   42   6.152   0.796  10.272 -0.1279  0.1984 -0.8111
    1SAPS   H4S   43   5.998   0.842  10.353  0.7552  0.2259  0.3873
    1SAPS   C25   44   5.989   0.659  10.243 -0.3943  0.6689 -0.7616
    1SAPS   H5R   45   6.031   0.558  10.228 -1.6094  0.3309 -2.0214
    1SAPS   C26   46   5.882   0.690  10.171  0.2096 -0.4040 -0.1836
    1SAPS   H6R   47   5.854   0.614  10.096  0.8516 -0.5511 -0.2792
    1SAPS   C27   48   5.830   0.830  10.155 -0.4237  0.4743 -0.2916
    1SAPS   H7R   49   5.833   0.890  10.248  0.0673  0.6537 -0.4184
    1SAPS   H7S   50   5.721   0.837  10.132 -0.1348  0.2273 -1.8707
    1SAPS   C28   51   5.906   0.919  10.055 -0.0041  0.2583  0.7063
    1SAPS   H8R   52   5.971   0.998  10.094  0.5623  1.2547 -1.9895
    1SAPS   C29   53   5.905   0.915   9.913 -0.3473 -0.0504 -0.2926
    1SAPS   H9R   54   5.972   0.978   9.853 -1.2486 -0.5386 -1.8623
    1SAPS  C210   55   5.843   0.804   9.830  0.4781 -0.4121  0.0042
    1SAPS  H10R   56   5.759   0.853   9.777  1.6148  1.3869 -0.2266
    1SAPS  H10S   57   5.816   0.722   9.900  0.1851 -2.0995 -1.9807
    1SAPS  C211   58   5.927   0.751   9.717  0.2801  0.3243  0.0320
    1SAPS  H11R   59   5.963   0.647   9.726 -3.3072 -0.9483  1.5175
    1SAPS  C212   60   5.950   0.812   9.599  0.4251 -0.1155  0.1523
    1SAPS  H12R   61   6.021   0.769   9.526 -2.7730 -1.2760 -2.4994
    1SAPS  C213   62   5.897   0.947   9.565  0.8218 -0.6692  0.1779
    1SAPS  H13R   63   5.974   1.022   9.539  0.1630 -0.3664 -0.9791
    1SAPS  H13S   64   5.846   0.985   9.656  1.3897  0.2478  0.1237
    1SAPS  C214   65   5.798   0.938   9.449  0.1150  0.4546  0.1595
    1SAPS  H14R   66   5.722   0.859   9.461  0.1672  0.6732  2.3423
    1SAPS  C215   67   5.799   1.011   9.333  0.0104  0.3436 -0.8866
    1SAPS  H15R   68   5.725   0.983   9.257 -0.7101 -0.3657  0.0484
    1SAPS  C216   69   5.886   1.123   9.293  0.0912 -0.1909 -0.1515
    1SAPS  H16R   70   5.949   1.158   9.378  3.9659 -0.0671 -2.7835
    1SAPS  H16S   71   5.828   1.210   9.255  0.6545 -0.8042 -2.5833
    1SAPS  C217   72   5.995   1.088   9.195  0.1968  0.2850 -0.6204
    1SAPS  H17R   73   6.078   1.023   9.232 -0.0488  0.7951  0.9019
    1SAPS  H17S   74   6.050   1.182   9.177  0.4582  0.6473  1.7576
    1SAPS  C218   75   5.940   1.034   9.063 -0.1788 -0.5455 -0.0638
    1SAPS  H18R   76   5.869   1.111   9.027  0.7188 -0.4679 -1.7367
    1SAPS  H18S   77   5.876   0.944   9.077  0.5740 -1.3929 -1.8093
    1SAPS  C219   78   6.049   1.003   8.960 -0.1994  0.1328  0.7562
    1SAPS  H19R   79   6.115   0.920   8.993 -1.7084 -2.0027 -1.2414
    1SAPS  H19S   80   6.108   1.096   8.950 -2.1498  1.3327 -0.4486
    1SAPS  C220   81   5.990   0.978   8.818  0.2903  0.5302 -0.5044
    1SAPS  H20R   82   5.924   1.062   8.787  0.8721  1.4330  0.6039
    1SAPS  H20S   83   5.944   0.878   8.806  1.2455  0.1749 -1.4462
    1SAPS  H20T   84   6.076   0.970   8.748  1.6022 -0.9981  1.1888
    1SAPS   C33   85   6.423   1.341  10.337  0.2719  0.4935 -0.4275
    1SAPS   H3X   86   6.341   1.416  10.342  0.1572  0.2965  2.3622
    1SAPS   H3Y   87   6.370   1.247  10.311 -1.7164  0.8437  2.0148
    1SAPS   C34   88   6.518   1.398  10.231  0.4117  0.5361  0.5032
    1SAPS   H4X   89   6.619   1.356  10.250  0.2762  0.0164  0.1211
    1SAPS   H4Y   90   6.524   1.507  10.249  0.7942  0.6381 -0.2158
    1SAPS   C35   91   6.483   1.356  10.083  0.1923 -0.1659 -0.5478
    1SAPS   H5X   92   6.390   1.407  10.050  0.3841  0.7560  0.3136
    1SAPS   H5Y   93   6.471   1.246  10.072  3.0251 -0.4766 -1.3800
    1SAPS   C36   94   6.604   1.394   9.994  0.4716  0.1263 -0.2652
    1SAPS   H6X   95   6.676   1.312  10.013  0.6898  0.6955  1.4708
    1SAPS   H6Y   96   6.656   1.490  10.012  1.0436 -0.1547 -0.4054
    1SAPS   C37   97   6.573   1.373   9.849 -0.0864  0.8271 -0.1287
    1SAPS   H7X   98   6.481   1.430   9.822 -1.1632  1.2318  3.7641
    1SAPS   H7Y   99   6.547   1.266   9.831  1.7324  0.6286 -1.8466
    1SAPS   C38  100   6.690   1.406   9.758  0.0454  0.2038  0.0537
    1SAPS   H8X  101   6.781   1.363   9.804 -0.3001 -0.4912  0.0990
    1SAPS   H8Y  102   6.706   1.516   9.755 -0.2650  0.2367 -0.6150
    1SAPS   C39  103   6.676   1.348   9.626  0.1720 -0.5331  0.0442
    1SAPS   H9X  104   6.601   1.393   9.558 -1.3433 -2.1750  0.5554
    1SAPS   H9Y  105   6.633   1.247   9.642 -1.6802  0.5343  2.5208
    1SAPS  C310  106   6.815   1.338   9.545  0.3335  0.1882 -0.1269
    1SAPS  H10X  107   6.782   1.286   9.453  0.0861 -0.3889  0.2835
    1SAPS  H10Y  108   6.885   1.271   9.600  0.2438  1.1125  1.1693
    1SAPS  C311  109   6.873   1.473   9.516  0.4028  0.8317 -0.4538
    1SAPS  H11X  110   6.926   1.519   9.601  1.0697 -0.1884 -0.2981
    1SAPS  H11Y  111   6.797   1.554   9.515  0.5455  0.9749 -2.0541
    1SAPS  C312  112   6.974   1.483   9.399 -0.1634  0.1088  0.1342
    1SAPS  H12X  113   7.055   1.406   9.399  1.1837  1.4750  0.5154
    1SAPS  H12Y  114   7.026   1.581   9.389 -0.9389  0.4629 -0.5994
    1SAPS  C313  115   6.906   1.458   9.263  0.6040 -1.0469 -0.1049
    1SAPS  H13X  116   6.878   1.351   9.249  0.8353 -1.2732  1.0398
    1SAPS  H13Y  117   6.983   1.504   9.198  0.8063  0.4561  1.1380
    1SAPS  C314  118   6.771   1.534   9.233  0.0942  0.1635 -0.8889
    1SAPS  H14X  119   6.780   1.645   9.234  2.0973  0.0432 -0.2351
    1SAPS  H14Y  120   6.702   1.514   9.317 -1.7410  2.8406 -1.6375
    1SAPS  C315  121   6.708   1.480   9.109 -0.3219 -0.0770 -0.7398
    1SAPS  H15X  122   6.600   1.505   9.116 -0.3531 -0.3899 -0.0622
    1SAPS  H15Y  123   6.718   1.370   9.102 -0.9174 -0.3592  1.8552
    1SAPS  C316  124   6.763   1.555   8.990 -0.1002 -0.0511  0.2373
    1SAPS  H16X  125   6.873   1.549   8.998 -0.0708 -0.5597 -0.5586
    1SAPS  H16Y  126   6.734   1.662   9.005 -0.4051  0.1020 -1.3336
    1SAPS  C317  127   6.723   1.513   8.849  0.0698 -0.7543  0.3484
    1SAPS  H17X  128   6.613   1.509   8.838  0.1192 -3.3313  0.3860
    1SAPS  H17Y  129   6.750   1.406   8.837 -1.5900 -1.1658  0.0426
    1SAPS  C318  130   6.772   1.616   8.747  0.3691 -0.0125 -0.6023
    1SAPS  H18X  131   6.762   1.576   8.643 -2.8911  0.4395 -0.5836
    1SAPS  H18Y  132   6.876   1.648   8.763  0.5190 -0.5825 -0.3998
    1SAPS  H18Z  133   6.709   1.707   8.745  0.0188 -0.2570 -1.2104
    2SAPS     N  134   3.939   1.918  10.910  0.5508 -0.5462 -0.0457
    2SAPS   HN1  135   3.856   1.942  10.967  1.7843  0.2431  1.5140
    2SAPS   HN2  136   4.020   1.980  10.932  1.2992 -0.8841 -1.7372
    2SAPS   HN3  137   3.917   1.937  10.811 -2.4882  0.1038  0.6491
    2SAPS   C12  138   3.983   1.772  10.923 -0.1273  0.0926  0.1357
    2SAPS  H12A  139   4.076   1.758  10.869 -1.4926 -0.1863 -2.2791
    2SAPS   C13  140   4.004   1.718  11.067 -0.1012  0.1520 -0.1459
    2SAPS  O13A  141   4.044   1.793  11.160 -0.7444  0.1880 -0.4682
    2SAPS  O13B  142   4.025   1.595  11.075 -0.7551  0.1848 -0.0929
    2SAPS   C11  143   3.873   1.687  10.847 -0.0853 -0.6251 -0.3538
    2SAPS  H11A  144   3.911   1.583  10.835  1.3346 -0.2274  0.5015
    2SAPS  H11B  145   3.873   1.730  10.744 -0.4207 -1.8044 -0.8621
    2SAPS     P  146   3.621   1.755  10.846 -0.1992  0.1473 -0.2747
    2SAPS   O13  147   3.528   1.781  10.953 -0.6225 -0.4021  0.0052
    2SAPS   O14  148   3.659   1.871  10.770 -0.3105 -0.0666  0.5212
    2SAPS   O12  149   3.751   1.692  10.913  0.2074  0.4474  0.0993
    2SAPS   O11  150   3.562   1.645  10.740 -0.2723  0.1415 -0.2888
    2SAPS    C1  151   3.632   1.535  10.687 -0.0633  0.1365 -0.1689
    2SAPS    HA  152   3.719   1.493  10.742 -0.6137 -2.4578 -1.1374
    2SAPS    HB  153   3.565   1.449  10.668 -0.3736 -0.3204  2.5871
    2SAPS    C2  154   3.693   1.567  10.548 -0.3082  0.0422 -0.2682
    2SAPS    HS  155   3.753   1.656  10.574  0.2853 -0.4365  0.0298
    2SAPS   O21  156   3.592   1.602  10.451 -0.8863  0.2793  0.1710
    2SAPS   C21  157   3.635   1.677  10.355 -0.7451 -0.4466 -0.1464
    2SAPS   O22  158   3.745   1.733  10.345  0.4987 -0.2614  0.4816
    2SAPS   C22  159   3.525   1.702  10.254  0.6359 -0.0661  0.3318
    2SAPS   H2R  160   3.438   1.760  10.291 -1.5038 -1.4396 -2.2271
    2SAPS   H2S  161   3.567   1.776  10.181 -2.5321 -0.2768 -1.8979
    2SAPS    C3  162   3.777   1.436  10.510  0.1708  0.2912 -0.5788
    2SAPS    HX  163   3.706   1.351  10.515 -1.6911  1.8093  0.0717
    2SAPS    HY  164   3.850   1.407  10.589 -1.8830 -1.3561  0.8338
    2SAPS   O31  165   3.840   1.464  10.384  0.0846 -0.1130 -0.4673
    2SAPS   C31  166   3.973   1.459  10.374  0.6603  0.2208  0.6319
    2SAPS   O32  167   4.053   1.428  10.461 -0.3806  0.5245 -0.3943
    2SAPS   C32  168   4.010   1.477  10.217 -0.4437  0.4173 -0.2979
    2SAPS   H2X  169   3.928   1.452  10.146  0.5977 -1.1469 -1.0246
    2SAPS   H2Y  170   4.081   1.394  10.194  0.1927  0.8879 -0.0495
    2SAPS   C23  171   3.475   1.582  10.172  0.0461 -0.2363 -0.3735
    2SAPS   H3R  172   3.397   1.619  10.102  0.4407 -0.4098 -0.9060
    2SAPS   H3S  173   3.426   1.508  10.239 -0.1090 -1.1352 -1.4626
    2SAPS   C24  174   3.603   1.521  10.108  0.5072 -0.6399 -0.0121
    2SAPS   H4R  175   3.659   1.468  10.189  1.7075  2.1309  1.1129
    2SAPS   H4S  176   3.677   1.590  10.061 -0.6118 -0.0088 -0.8798
    2SAPS   C25  177   3.559   1.417  10.004 -0.0552  0.3375 -0.3399
    2SAPS   H5R  178   3.535   1.314  10.034  1.5211  0.5816  1.9826
    2SAPS   C26  179   3.553   1.442   9.863 -0.0669 -0.4145 -2.0316
    2SAPS   H6R  180   3.514   1.366   9.793 -0.9193 -2.6453  0.6942
    2SAPS   C27  181   3.582   1.576   9.801  0.0294 -0.1511  0.6267
    2SAPS   H7R  182   3.595   1.652   9.880 -2.2563  1.1752 -0.1786
    2SAPS   H7S  183   3.491   1.607   9.744 -0.3077 -1.5868  0.3340
    2SAPS   C28  184   3.704   1.551   9.716  0.6728 -0.4103 -0.7779
    2SAPS   H8R  185   3.795   1.530   9.773  0.4013  1.6923  0.5255
    2SAPS   C29  186   3.716   1.543   9.581 -0.3672  0.6670 -0.5041
    2SAPS   H9R  187   3.806   1.494   9.541 -0.5152  0.7360 -0.9229
    2SAPS  C210  188   3.613   1.570   9.480  0.2217  0.5832 -0.7747
    2SAPS  H10R  189   3.631   1.669   9.432  1.1304  1.3042  0.9589
    2SAPS  H10S  190   3.514   1.583   9.529  1.3576  0.2628  1.8054
    2SAPS  C211  191   3.594   1.458   9.384  0.3974 -0.4022 -0.0268
    2SAPS  H11R  192   3.512   1.391   9.412 -2.0707  2.1380 -0.7656
    2SAPS  C212  193   3.663   1.430   9.272 -0.4070  0.0847  0.3452
    2SAPS  H12R  194   3.626   1.345   9.213  0.8035 -0.8705  0.9261
    2SAPS  C213  195   3.783   1.507   9.213  0.1690  0.1339  0.9782
    2SAPS  H13R  196   3.806   1.595   9.277  0.8866 -1.2246  2.6658
    2SAPS  H13S  197   3.746   1.538   9.113 -2.1455 -2.2302  1.0019
    2SAPS  C214  198   3.900   1.411   9.186  0.2668  0.5440  0.0396
    2SAPS  H14R  199   3.976   1.412   9.264  1.6622  0.0727 -1.2578
    2SAPS  C215  200   3.929   1.329   9.080 -0.1175 -0.4558 -0.6685
    2SAPS  H15R  201   4.015   1.262   9.094  0.9596  1.0756  0.3331
    2SAPS  C216  202   3.846   1.306   8.950 -0.4572 -0.5741 -0.2901
    2SAPS  H16R  203   3.896   1.357   8.865  0.5829 -1.3161 -0.1458
    2SAPS  H16S  204   3.748   1.358   8.960  0.5042  1.1103  1.0843
    2SAPS  C217  205   3.840   1.156   8.931  0.2073 -0.1294 -0.4035
    2SAPS  H17R  206   3.793   1.117   9.024  1.2178  0.0758  0.2162
    2SAPS  H17S  207   3.944   1.118   8.916  0.5215  0.8165 -0.6936
    2SAPS  C218  208   3.749   1.108   8.814  0.4503  0.1446 -0.3586
    2SAPS  H18R  209   3.785   1.162   8.724 -2.3700  1.5945 -0.7144
    2SAPS  H18S  210   3.646   1.141   8.836  0.8365  1.3683 -0.3288
    2SAPS  C219  211   3.742   0.955   8.800  0.0505  0.5318  0.4009
    2SAPS  H19R  212   3.727   0.913   8.902 -2.3424  1.4331  0.4877
    2SAPS  H19S  213   3.832   0.914   8.749 -0.5289  0.3392 -0.4754
    2SAPS  C220  214   3.613   0.910   8.712  0.3452 -0.4282 -0.1011
    2SAPS  H20R  215   3.518   0.966   8.726  1.4388  2.0197 -1.7068
    2SAPS  H20S  216   3.597   0.800   8.717  2.0871 -0.6771  1.0909
    2SAPS  H20T  217   3.629   0.939   8.606 -0.0692  2.6890  0.6020
    2SAPS   C33  218   4.076   1.611  10.183 -0.0844  0.2602 -0.1320
    2SAPS   H3X  219   4.179   1.629  10.220 -0.4768  2.4153  0.0319
    2SAPS   H3Y  220   4.017   1.687  10.240 -0.8189 -0.0399 -0.4824
    2SAPS   C34  221   4.058   1.649  10.034  0.7295  0.7870 -0.2436
    2SAPS   H4X  222   4.082   1.757  10.025 -3.1030  1.7759 -0.3745
    2SAPS   H4Y  223   3.952   1.643  10.001  1.0904  0.0086 -1.3319
    2SAPS   C35  224   4.139   1.562   9.953 -0.5044  0.4949 -0.6829
    2SAPS   H5X  225   4.112   1.454   9.960 -0.5821  0.6150  1.4932
    2SAPS   H5Y  226   4.237   1.576  10.002 -1.4525  1.6543  0.9981
    2SAPS   C36  227   4.148   1.603   9.805 -0.3385  0.0073  0.8707
    2SAPS   H6X  228   4.201   1.700   9.788  0.2544 -0.3753  0.4912
    2SAPS   H6Y  229   4.049   1.630   9.764 -0.6007 -0.2202  1.3450
    2SAPS   C37  230   4.224   1.506   9.730 -0.6819 -0.0581  0.5321
    2SAPS   H7X  231   4.180   1.406   9.751 -2.8213  0.5355 -0.7853
    2SAPS   H7Y  232   4.328   1.498   9.770 -0.3946 -1.6005 -0.4368
    2SAPS   C38  233   4.217   1.530   9.579  0.2305  0.2650  0.2142
    2SAPS   H8X  234   4.233   1.636   9.549 -1.4578  0.8551  1.2812
    2SAPS   H8Y  235   4.116   1.506   9.538  1.2530 -1.9160 -1.2668
    2SAPS   C39  236   4.310   1.436   9.505 -0.6597  0.1838 -0.2766
    2SAPS   H9X  237   4.303   1.332   9.544  0.0521  0.4661  0.6412
    2SAPS   H9Y  238   4.414   1.471   9.523 -0.3343 -0.5421 -0.6824
    2SAPS  C310  239   4.286   1.437   9.356 -0.0310 -0.0408 -0.3585
    2SAPS  H10X  240   4.330   1.528   9.309 -0.9174  0.4533 -0.2609
    2SAPS  H10Y  241   4.176   1.444   9.338 -0.0012 -1.2619 -1.1238
    2SAPS  C311  242   4.366   1.322   9.295  0.0095 -0.2338  0.8096
    2SAPS  H11X  243   4.299   1.233   9.304 -0.5703 -0.0579 -1.2931
    2SAPS  H11Y  244   4.457   1.318   9.359  0.4063  2.0162  0.4442
    2SAPS  C312  245   4.376   1.334   9.143  0.1984  0.6974 -0.1794
    2SAPS  H12X  246   4.442   1.417   9.112  2.8273 -0.8433  0.9857
    2SAPS  H12Y  247   4.271   1.346   9.107  0.2462  1.0929 -0.1933
    2SAPS  C313  248   4.426   1.201   9.076  0.0475 -0.2304  0.6165
    2SAPS  H13X  249   4.507   1.163   9.142 -0.6910 -1.9978  0.5650
    2SAPS  H13Y  250   4.472   1.213   8.976 -2.1872  1.0921 -0.3174
    2SAPS  C314  251   4.315   1.097   9.049 -0.3373  0.0737  0.3425
    2SAPS  H14X  252   4.242   1.151   8.986 -0.9117 -0.2068  0.7511
    2SAPS  H14Y  253   4.264   1.063   9.143 -0.2094 -1.3875 -0.0948
    2SAPS  C315  254   4.375   0.966   8.981 -0.0433  0.0087 -0.2245
    2SAPS  H15X  255   4.461   0.934   9.044  2.7406  1.1134 -3.1631
    2SAPS  H15Y  256   4.425   0.991   8.885 -0.7582  1.8643 -0.1550
    2SAPS  C316  257   4.276   0.854   8.960 -0.1551  0.0169  0.0586
    2SAPS  H16X  258   4.176   0.875   8.914  0.0037  0.4556 -0.0957
    2SAPS  H16Y  259   4.255   0.803   9.057 -0.4668 -0.5673 -0.3060
    2SAPS  C317  260   4.352   0.738   8.883  0.2502  0.0388  0.3696
    2SAPS  H17X  261   4.292   0.650   8.912 -1.1447  0.5950 -0.7045
    2SAPS  H17Y  262   4.459   0.733   8.913  0.5254 -2.6547 -0.7823
    2SAPS  C318  263   4.350   0.750   8.728 -0.2870  0.1856  0.6599
    2SAPS  H18X  264   4.417   0.680   8.672 -0.8218  0.7954 -0.7940
    2SAPS  H18Y  265   4.373   0.854   8.698  1.8349 -0.4922 -0.2484
    2SAPS  H18Z  266   4.251   0.739   8.678 -0.3284  0.9252  0.5676
    3SAPS     N  267   3.697   2.688  11.062  0.8554  0.3659 -0.3212
    3SAPS   HN1  268   3.600   2.681  11.027 -0.3927  0.3994  2.8154
    3SAPS   HN2  269   3.696   2.782  11.108  2.3283  0.0480  0.4302
    3SAPS   HN3  270   3.762   2.702  10.982  1.0097  0.5769 -0.1642
    3SAPS   C12  271   3.741   2.571  11.144  0.5352  0.2153 -0.2719
    3SAPS  H12A  272   3.847   2.585  11.149  0.5928  2.0807 -3.5805
    3SAPS   C13  273   3.681   2.563  11.285 -0.0925  0.1917 -0.6734
    3SAPS  O13A  274   3.637   2.670  11.334 -0.0047  0.0086 -0.1269
    3SAPS  O13B  275   3.726   2.472  11.359  0.5090  0.0474 -0.3167
    3SAPS   C11  276   3.708   2.434  11.073 -0.3706  0.2658 -0.4964
    3SAPS  H11A  277   3.598   2.424  11.057 -0.0405 -1.9937 -1.7308
    3SAPS  H11B  278   3.748   2.353  11.137  0.2394  2.0981  1.5410
    3SAPS     P  279   3.863   2.335  10.879 -0.6005 -0.2512 -0.0506
    3SAPS   O13  280   3.992   2.361  10.949  0.4060 -0.2391  0.1056
    3SAPS   O14  281   3.809   2.199  10.872 -0.1242  0.4389 -0.0090
    3SAPS   O12  282   3.753   2.426  10.938  0.1434  0.0665  0.2915
    3SAPS   O11  283   3.872   2.394  10.734  0.7528 -0.1295 -0.1981
    3SAPS    C1  284   3.773   2.472  10.672 -0.3858 -0.7509 -0.2738
    3SAPS    HA  285   3.713   2.542  10.733  1.4366  0.3200  0.3727
    3SAPS    HB  286   3.828   2.539  10.603  2.7330 -2.3490  0.4517
    3SAPS    C2  287   3.673   2.380  10.598  0.0767 -0.0004 -0.2866
    3SAPS    HS  288   3.631   2.302  10.664 -2.2189  1.6614  0.3156
    3SAPS   O21  289   3.736   2.319  10.488 -0.1123 -0.0306  0.2352
    3SAPS   C21  290   3.679   2.226  10.424 -0.2565 -0.4844  0.2544
    3SAPS   O22  291   3.584   2.161  10.459 -0.0941  0.5651  0.4065
    3SAPS   C22  292   3.752   2.205  10.294  0.6970  0.2556 -0.1279
    3SAPS   H2R  293   3.707   2.279  10.224 -2.1936  0.2642  1.5963
    3SAPS   H2S  294   3.859   2.231  10.310  0.2566  1.1662  1.6153
    3SAPS    C3  295   3.552   2.468  10.557  0.5334 -0.0813  0.2370
    3SAPS    HX  296   3.531   2.524  10.650  1.3458 -1.3379  1.2045
    3SAPS    HY  297   3.463   2.411  10.524 -0.4425  2.0365 -1.0772
    3SAPS   O31  298   3.583   2.557  10.447  0.0768 -0.1732 -0.1723
    3SAPS   C31  299   3.520   2.541  10.329  0.3304 -0.5749  0.0742
    3SAPS   O32  300   3.460   2.443  10.293 -0.2202  0.4282  0.2010
    3SAPS   C32  301   3.572   2.653  10.234 -0.4608 -0.1425  0.4985
    3SAPS   H2X  302   3.671   2.684  10.273  0.9778 -2.5382 -0.9515
    3SAPS   H2Y  303   3.509   2.744  10.243  0.5466  0.6213 -0.0098
    3SAPS   C23  304   3.724   2.067  10.239  0.4920  0.2502  0.5516
    3SAPS   H3R  305   3.631   2.054  10.180  0.7086 -0.2916  0.3248
    3SAPS   H3S  306   3.740   1.984  10.312  2.1824 -0.4320 -0.5333
    3SAPS   C24  307   3.825   2.036  10.129  0.1642  0.2819 -0.2031
    3SAPS   H4R  308   3.927   2.037  10.172  0.0548 -0.0232  0.0645
    3SAPS   H4S  309   3.810   2.117  10.054  1.1921  1.5438  0.9059
    3SAPS   C25  310   3.804   1.906  10.057  0.0596  0.7151 -1.3656
    3SAPS   H5R  311   3.771   1.829  10.129 -1.5359  1.6505 -1.0370
    3SAPS   C26  312   3.800   1.883   9.923 -0.1553 -0.3535 -0.0262
    3SAPS   H6R  313   3.784   1.777   9.897  0.6631 -0.3980 -0.3547
    3SAPS   C27  314   3.814   1.981   9.811  0.3814  0.8618  0.1861
    3SAPS   H7R  315   3.768   2.078   9.838 -4.1332 -1.3430  1.4109
    3SAPS   H7S  316   3.761   1.947   9.719 -0.0076  0.8792  0.4015
    3SAPS   C28  317   3.958   2.000   9.768  0.3827 -0.0172 -0.5945
    3SAPS   H8R  318   4.006   2.069   9.839  0.2435 -0.5676  0.0356
    3SAPS   C29  319   4.024   1.938   9.668  0.0690 -0.0658  0.9253
    3SAPS   H9R  320   4.118   1.990   9.643 -2.0685  3.5728 -0.3814
    3SAPS  C210  321   3.979   1.848   9.557  0.2138  0.0534 -0.2008
    3SAPS  H10R  322   3.935   1.759   9.606 -0.0293  0.3674  0.1647
    3SAPS  H10S  323   4.078   1.833   9.510  0.0958  1.0797 -0.8116
    3SAPS  C211  324   3.878   1.899   9.458  0.0089  1.0526 -0.1070
    3SAPS  H11R  325   3.795   1.961   9.496 -1.3207 -0.2303 -0.7747
    3SAPS  C212  326   3.879   1.870   9.325 -0.2045 -0.2358  0.1655
    3SAPS  H12R  327   3.792   1.878   9.259 -0.0761 -0.2697 -0.0101
    3SAPS  C213  328   4.002   1.799   9.253  0.2684 -0.8284 -0.8410
    3SAPS  H13R  329   3.969   1.738   9.165 -0.5059  0.9872 -1.8657
    3SAPS  H13S  330   4.047   1.726   9.323 -1.3156 -0.5567  0.5134
    3SAPS  C214  331   4.104   1.900   9.215 -0.4321  0.0811 -1.5190
    3SAPS  H14R  332   4.080   1.997   9.262 -1.0838 -0.4833 -0.6552
    3SAPS  C215  333   4.215   1.889   9.147  0.3466  0.4322  0.4446
    3SAPS  H15R  334   4.276   1.980   9.134  0.2244  0.4413 -0.0531
    3SAPS  C216  335   4.261   1.763   9.076 -0.1664  0.4800 -0.7246
    3SAPS  H16R  336   4.225   1.667   9.118 -0.4832  0.9872  0.1915
    3SAPS  H16S  337   4.372   1.764   9.074 -0.1591 -0.3269 -1.5493
    3SAPS  C217  338   4.216   1.774   8.926 -0.6319  0.9084 -1.0159
    3SAPS  H17R  339   4.289   1.819   8.856 -0.1874  0.2187 -1.0103
    3SAPS  H17S  340   4.133   1.847   8.922 -0.5908  1.0232 -0.0604
    3SAPS  C218  341   4.168   1.632   8.880  0.4177 -0.1966  0.1866
    3SAPS  H18R  342   4.094   1.638   8.797 -2.5443  0.2637  2.6681
    3SAPS  H18S  343   4.105   1.576   8.953 -0.3942 -1.4120 -1.3765
    3SAPS  C219  344   4.293   1.546   8.845  0.0798 -0.0454 -0.2413
    3SAPS  H19R  345   4.322   1.485   8.934  1.1565  1.6574  0.6288
    3SAPS  H19S  346   4.378   1.614   8.827 -0.6305  1.6871  2.4529
    3SAPS  C220  347   4.266   1.448   8.726 -0.6634  0.2610 -0.8161
    3SAPS  H20R  348   4.221   1.501   8.639 -1.5794 -1.0768 -1.1935
    3SAPS  H20S  349   4.192   1.367   8.744  0.3091 -0.7714 -1.4142
    3SAPS  H20T  350   4.363   1.403   8.698 -0.1800  2.1009 -2.3341
    3SAPS   C33  351   3.600   2.613  10.081 -0.1753  0.4932  0.0625
    3SAPS   H3X  352   3.497   2.605  10.038  0.5070 -0.6287 -1.4416
    3SAPS   H3Y  353   3.658   2.519  10.072 -1.2318 -0.0572 -1.4955
    3SAPS   C34  354   3.684   2.727  10.008 -0.0081 -0.4080  0.1637
    3SAPS   H4X  355   3.776   2.744  10.067  0.9302  1.0161 -1.6091
    3SAPS   H4Y  356   3.624   2.821  10.012  0.9585  0.2342 -0.1755
    3SAPS   C35  357   3.723   2.688   9.866  0.3098  0.0100  1.1061
    3SAPS   H5X  358   3.765   2.585   9.865 -0.5085 -0.3250 -0.0151
    3SAPS   H5Y  359   3.793   2.759   9.816 -0.4575 -0.8930 -1.3853
    3SAPS   C36  360   3.592   2.675   9.777 -0.3174 -0.1709 -0.0115
    3SAPS   H6X  361   3.559   2.779   9.757  3.1021  0.4518 -3.6933
    3SAPS   H6Y  362   3.516   2.614   9.830 -0.4773 -0.6722 -0.7928
    3SAPS   C37  363   3.617   2.605   9.645  0.5574 -0.4675  0.3195
    3SAPS   H7X  364   3.644   2.499   9.663  1.1749 -0.5852 -1.1372
    3SAPS   H7Y  365   3.707   2.649   9.597 -0.4262  0.6105 -0.6020
    3SAPS   C38  366   3.495   2.609   9.548 -0.9838 -0.1859  0.1054
    3SAPS   H8X  367   3.396   2.606   9.596 -1.1929 -0.3959 -0.3312
    3SAPS   H8Y  368   3.503   2.528   9.472 -2.4675 -1.1108  0.8902
    3SAPS   C39  369   3.499   2.741   9.469  0.0330 -0.7667 -0.6787
    3SAPS   H9X  370   3.603   2.766   9.439 -0.1045  0.5852 -0.0802
    3SAPS   H9Y  371   3.486   2.829   9.535  1.8939 -0.9549  0.0207
    3SAPS  C310  372   3.401   2.746   9.358  0.2077 -0.1244  0.1053
    3SAPS  H10X  373   3.295   2.754   9.390 -0.0775 -1.3558 -0.4782
    3SAPS  H10Y  374   3.395   2.651   9.301  0.1818  0.2713 -0.5710
    3SAPS  C311  375   3.419   2.867   9.261  0.0392  0.1385  0.0042
    3SAPS  H11X  376   3.513   2.858   9.202  0.5319 -0.1856  0.8196
    3SAPS  H11Y  377   3.399   2.960   9.319 -2.5786 -0.3431 -0.0281
    3SAPS  C312  378   3.308   2.866   9.153  0.1343  0.1146 -0.1795
    3SAPS  H12X  379   3.266   2.966   9.130 -2.6413 -1.0662 -0.6771
    3SAPS  H12Y  380   3.222   2.812   9.198  0.1964  0.0402 -0.1475
    3SAPS  C313  381   3.360   2.801   9.017  0.1215 -0.4727 -0.5206
    3SAPS  H13X  382   3.389   2.695   9.032  1.7632 -0.0345 -0.3215
    3SAPS  H13Y  383   3.446   2.860   8.977 -0.0998 -0.8064 -1.5163
    3SAPS  C314  384   3.252   2.809   8.913 -0.4677 -0.1680  0.2072
    3SAPS  H14X  385   3.233   2.917   8.895  1.2718  0.6081  2.4586
    3SAPS  H14Y  386   3.156   2.779   8.960 -1.1369  0.6271 -0.6052
    3SAPS  C315  387   3.284   2.723   8.793 -0.1696 -0.2654  0.1798
    3SAPS  H15X  388   3.330   2.625   8.816 -1.1438 -0.5885  0.7748
    3SAPS  H15Y  389   3.357   2.774   8.727  0.7180 -0.7313  0.7913
    3SAPS  C316  390   3.157   2.696   8.706  0.2098 -1.0072 -0.3015
    3SAPS  H16X  391   3.184   2.675   8.601  0.8897 -2.1075  0.0791
    3SAPS  H16Y  392   3.097   2.790   8.715 -2.3120 -2.6175  1.0034
    3SAPS  C317  393   3.076   2.587   8.774  0.0007  0.0372  0.7540
    3SAPS  H17X  394   3.018   2.621   8.862  1.1529  0.7550  1.2560
    3SAPS  H17Y  395   3.151   2.513   8.808 -1.5324 -1.6070  0.7028
    3SAPS  C318  396   2.989   2.526   8.669  0.6040  0.0739 -0.2620
    3SAPS  H18X  397   2.925   2.599   8.615  1.4230 -0.1610 -1.6040
    3SAPS  H18Y  398   2.916   2.451   8.707 -1.4034  0.4101 -3.1235
    3SAPS  H18Z  399   3.045   2.464   8.596  0.1987 -0.6141 -0.0013
    4SAPS     N  400   0.497   3.779  10.982 -0.1230 -0.1216  0.2219
    4SAPS   HN1  401   0.462   3.876  10.995 -0.8648 -0.4977  1.1773
    4SAPS   HN2  402   0.591   3.781  11.026 -0.7196  1.0266  1.5198
    4SAPS   HN3  403   0.503   3.754  10.881  0.6584  1.1694 -0.0746
    4SAPS   C12  404   0.410   3.674  11.042 -0.2350 -0.2701  0.1729
    4SAPS  H12A  405   0.475   3.593  11.069  1.6475  0.6068 -1.4626
    4SAPS   C13  406   0.340   3.713  11.175  0.2405 -0.1632  0.6169
    4SAPS  O13A  407   0.331   3.825  11.227 -0.0940 -0.1144 -0.0409
    4SAPS  O13B  408   0.278   3.615  11.229 -0.7959  0.0611  1.0740
    4SAPS   C11  409   0.301   3.626  10.943 -0.4985  0.6718  0.6420
    4SAPS  H11A  410   0.222   3.705  10.943  2.1175  3.5483 -1.9815
    4SAPS  H11B  411   0.259   3.532  10.986  2.8703  0.0205  2.8807
    4SAPS     P  412   0.379   3.487  10.734 -0.0566  0.1995  0.3860
    4SAPS   O13  413   0.467   3.410  10.826  0.5936 -0.6600 -0.5600
    4SAPS   O14  414   0.260   3.412  10.688 -0.4792  0.1315 -0.8653
    4SAPS   O12  415   0.350   3.620  10.809  0.0082 -0.0209  0.2218
    4SAPS   O11  416   0.472   3.516  10.610 -0.0005  0.1501 -0.3619
    4SAPS    C1  417   0.454   3.635  10.537  0.2559  0.2832  0.3618
    4SAPS    HA  418   0.398   3.709  10.598  0.8021  0.3853  0.7539
    4SAPS    HB  419   0.547   3.689  10.509  0.1942  0.5948  0.7513
    4SAPS    C2  420   0.383   3.607  10.401 -0.1095  0.5872 -0.1522
    4SAPS    HS  421   0.396   3.706  10.353  2.6242 -0.1828 -1.1790
    4SAPS   O21  422   0.251   3.562  10.424  0.7856  0.3277  0.3030
    4SAPS   C21  423   0.175   3.664  10.463  0.0884 -0.1918 -0.2193
    4SAPS   O22  424   0.213   3.781  10.459  0.1371  0.3039 -0.8751
    4SAPS   C22  425   0.043   3.602  10.524 -0.3437 -0.1695  0.1574
    4SAPS   H2R  426   0.042   3.491  10.526 -3.9063 -0.3916 -2.7068
    4SAPS   H2S  427   0.036   3.646  10.626 -0.8577 -0.8576  0.4178
    4SAPS    C3  428   0.459   3.514  10.308 -0.1157  0.1571 -0.1455
    4SAPS    HX  429   0.452   3.411  10.348 -4.2847 -0.6290 -2.3476
    4SAPS    HY  430   0.567   3.540  10.316 -0.2084 -0.0449  3.3381
    4SAPS   O31  431   0.406   3.540  10.178 -0.3576 -0.3370  0.1809
    4SAPS   C31  432   0.316   3.447  10.147 -0.0694 -0.5999 -0.2934
    4SAPS   O32  433   0.306   3.341  10.201 -0.9955 -0.0846  0.5556
    4SAPS   C32  434   0.237   3.498  10.031 -0.4969 -0.5460  0.3466
    4SAPS   H2X  435   0.173   3.579  10.072  0.9281  1.2983 -0.8848
    4SAPS   H2Y  436   0.177   3.414   9.991  0.6819 -1.4948  0.5116
    4SAPS   C23  437  -0.086   3.636  10.448  0.2921  0.2643  0.9120
    4SAPS   H3R  438  -0.124   3.735  10.479 -0.8976  0.7900 -1.9084
    4SAPS   H3S  439  -0.163   3.563  10.480 -1.4006  1.3671 -0.4461
    4SAPS   C24  440  -0.078   3.636  10.284 -0.2094 -0.2680  0.1243
    4SAPS   H4R  441   0.005   3.694  10.238 -1.6161  1.0884 -0.8063
    4SAPS   H4S  442  -0.173   3.686  10.255  0.2782  0.5378 -0.1016
    4SAPS   C25  443  -0.066   3.491  10.244  0.1213  0.3964  0.2937
    4SAPS   H5R  444  -0.016   3.426  10.317 -0.0008 -1.8116 -1.4668
    4SAPS   C26  445  -0.115   3.431  10.133  0.2091  0.4931 -0.3978
    4SAPS   H6R  446  -0.090   3.329  10.101 -1.0040  0.2937 -0.7937
    4SAPS   C27  447  -0.196   3.493  10.021  0.7366 -0.3364 -0.3506
    4SAPS   H7R  448  -0.288   3.538  10.064  0.0559 -0.1398 -1.9328
    4SAPS   H7S  449  -0.237   3.409   9.960 -1.2488 -1.0274  1.7690
    4SAPS   C28  450  -0.129   3.598   9.936  0.5788  0.0309 -0.6474
    4SAPS   H8R  451  -0.042   3.644   9.984  0.3983 -0.7634  0.4976
    4SAPS   C29  452  -0.144   3.617   9.805  0.6623  0.3233 -0.3629
    4SAPS   H9R  453  -0.079   3.694   9.760  2.2298 -0.5585  0.3144
    4SAPS  C210  454  -0.244   3.553   9.717 -0.1045  0.3672  0.0698
    4SAPS  H10R  455  -0.284   3.627   9.645 -3.3279 -0.7911  0.5265
    4SAPS  H10S  456  -0.329   3.530   9.785  1.4211 -0.0273  1.9265
    4SAPS  C211  457  -0.195   3.426   9.649 -0.0424 -0.3436 -0.0771
    4SAPS  H11R  458  -0.109   3.371   9.691  1.8366  1.2976 -1.5406
    4SAPS  C212  459  -0.240   3.389   9.526  0.1231  0.0353 -0.3458
    4SAPS  H12R  460  -0.209   3.288   9.494 -0.8084 -0.4858  0.3559
    4SAPS  C213  461  -0.343   3.464   9.441  0.6629  0.5670  0.2223
    4SAPS  H13R  462  -0.408   3.531   9.501 -1.7985 -2.7768  1.6077
    4SAPS  H13S  463  -0.419   3.390   9.410 -2.0134  2.3891  1.9609
    4SAPS  C214  464  -0.301   3.551   9.321  0.3671 -0.1389  0.4937
    4SAPS  H14R  465  -0.343   3.652   9.319  0.6023 -0.0350 -2.2067
    4SAPS  C215  466  -0.228   3.518   9.211 -0.4813  0.1290  0.4277
    4SAPS  H15R  467  -0.191   3.594   9.141  1.8367 -3.0885 -2.2058
    4SAPS  C216  468  -0.161   3.382   9.185  0.2415  0.3023 -1.0908
    4SAPS  H16R  469  -0.195   3.307   9.260 -0.1017  1.3651 -0.1548
    4SAPS  H16S  470  -0.052   3.393   9.201  0.2183 -1.0760  0.2492
    4SAPS  C217  471  -0.182   3.327   9.046 -0.8143 -0.0449 -0.4273
    4SAPS  H17R  472  -0.292   3.329   9.029 -1.1026  3.5202  1.0406
    4SAPS  H17S  473  -0.143   3.223   9.041 -2.2585 -0.6344  0.1220
    4SAPS  C218  474  -0.113   3.398   8.928 -0.3546  0.0883 -0.0096
    4SAPS  H18R  475  -0.004   3.394   8.949  0.2744  0.4507 -2.7741
    4SAPS  H18S  476  -0.151   3.502   8.918  0.5663  0.6278  1.6632
    4SAPS  C219  477  -0.148   3.319   8.793 -0.4203 -0.6249 -0.6196
    4SAPS  H19R  478  -0.252   3.282   8.806  0.4604 -2.8916  0.4565
    4SAPS  H19S  479  -0.079   3.232   8.789  0.7535  0.3064 -1.9444
    4SAPS  C220  480  -0.117   3.395   8.658 -0.0817  0.0014 -0.8374
    4SAPS  H20R  481  -0.018   3.443   8.642 -0.9915  1.8619 -1.2541
    4SAPS  H20S  482  -0.189   3.479   8.642 -0.5685 -0.0454  0.9140
    4SAPS  H20T  483  -0.131   3.324   8.574 -0.0638  0.4365 -1.2161
    4SAPS   C33  484   0.318   3.568   9.921  0.2652  0.1832  0.3351
    4SAPS   H3X  485   0.405   3.504   9.895 -0.1147 -0.1493 -0.1356
    4SAPS   H3Y  486   0.361   3.656   9.974  1.3274 -1.3676  2.1916
    4SAPS   C34  487   0.237   3.598   9.793  0.0465  0.1216 -0.7308
    4SAPS   H4X  488   0.294   3.671   9.731  2.7214 -2.2187 -1.2437
    4SAPS   H4Y  489   0.139   3.646   9.813  0.6348  0.0417  3.1516
    4SAPS   C35  490   0.217   3.470   9.708  0.2284 -0.2466  0.5250
    4SAPS   H5X  491   0.172   3.389   9.769 -2.2681 -0.3021 -1.2271
    4SAPS   H5Y  492   0.319   3.436   9.683  0.8439  1.5389  0.4834
    4SAPS   C36  493   0.146   3.487   9.573  0.0894  0.3621 -0.9596
    4SAPS   H6X  494   0.039   3.512   9.594 -0.0345 -0.1442 -0.9735
    4SAPS   H6Y  495   0.146   3.396   9.509  0.3931 -1.3151  1.3248
    4SAPS   C37  496   0.198   3.602   9.483  0.5760  0.5255  0.2288
    4SAPS   H7X  497   0.307   3.596   9.462  1.1061  4.0619  1.3670
    4SAPS   H7Y  498   0.176   3.698   9.534  1.9471  0.4085  1.0840
    4SAPS   C38  499   0.129   3.602   9.344 -0.1556  0.2445  0.7745
    4SAPS   H8X  500   0.024   3.638   9.345  0.1646  1.5239 -2.1202
    4SAPS   H8Y  501   0.138   3.501   9.298  0.8898  0.8991 -0.5588
    4SAPS   C39  502   0.195   3.699   9.239  0.0905  0.4183  0.7257
    4SAPS   H9X  503   0.302   3.679   9.218  0.2610  1.8713  0.0494
    4SAPS   H9Y  504   0.173   3.802   9.277 -0.9949 -0.1206  1.6413
    4SAPS  C310  505   0.122   3.680   9.108  0.2558 -0.1446  0.2404
    4SAPS  H10X  506   0.025   3.730   9.126  0.9202  2.2498 -2.1807
    4SAPS  H10Y  507   0.115   3.573   9.080  2.1573 -0.1083 -0.5437
    4SAPS  C311  508   0.186   3.755   8.989 -1.3520  0.1836  0.4004
    4SAPS  H11X  509   0.277   3.696   8.964  0.0451  1.1001  3.0441
    4SAPS  H11Y  510   0.211   3.858   9.019  2.3275 -1.1102  2.4276
    4SAPS  C312  511   0.103   3.762   8.860  0.1097  0.0781 -0.4236
    4SAPS  H12X  512   0.036   3.675   8.842  0.1835  0.4411 -2.8398
    4SAPS  H12Y  513   0.161   3.769   8.765 -1.8549 -1.9209 -1.8849
    4SAPS  C313  514   0.013   3.886   8.868  0.6762  0.3758  0.1507
    4SAPS  H13X  515   0.075   3.977   8.861 -0.6933  1.3569  0.3157
    4SAPS  H13Y  516  -0.033   3.895   8.969  3.0664  0.0050  1.3460
    4SAPS  C314  517  -0.093   3.906   8.760 -0.5414  0.2257  0.0129
    4SAPS  H14X  518  -0.150   3.999   8.784  0.6503  0.5509  1.8052
    4SAPS  H14Y  519  -0.165   3.822   8.761  2.8768 -2.9697  0.2430
    4SAPS  C315  520  -0.039   3.900   8.616 -0.0148  0.6250  0.2696
    4SAPS  H15X  521  -0.006   3.794   8.615 -1.2855  0.2227 -0.7826
    4SAPS  H15Y  522   0.042   3.974   8.602  0.4166  0.5905  2.2731
    4SAPS  C316  523  -0.138   3.911   8.501  0.0922  0.4621 -0.2095
    4SAPS  H16X  524  -0.126   4.007   8.447 -0.6260  0.3184 -0.6416
    4SAPS  H16Y  525  -0.237   3.907   8.552  1.0048 -1.0391  1.5871
    4SAPS  C317  526  -0.120   3.806   8.394 -0.0135 -0.3487 -0.5121
    4SAPS  H17X  527  -0.165   3.716   8.440  0.0009  0.1704  0.5676
    4SAPS  H17Y  528  -0.013   3.784   8.372  0.2006 -0.6062  0.6854
    4SAPS  C318  529  -0.184   3.843   8.266  0.0130  0.6387  0.2025
    4SAPS  H18X  530  -0.291   3.869   8.273 -0.7899 -2.3187  0.6163
    4SAPS  H18Y  531  -0.183   3.746   8.212  0.3194  1.0849 -0.5949
    4SAPS  H18Z  532  -0.127   3.917   8.206  1.6358  0.2290  1.1711
    5SAPS     N  533   3.824   3.373  11.099  0.3737 -0.0479 -0.1575
    5SAPS   HN1  534   3.745   3.435  11.072  1.0840  0.6916 -0.5668
    5SAPS   HN2  535   3.808   3.281  11.051  1.2131 -2.4045  3.6644
    5SAPS   HN3  536   3.840   3.348  11.199 -1.1615 -0.6612 -0.0441
    5SAPS   C12  537   3.943   3.445  11.041  0.1780  0.2510 -0.9354
    5SAPS  H12A  538   3.955   3.528  11.108 -0.4115 -2.0682  2.2661
    5SAPS   C13  539   4.072   3.369  11.038 -0.6579 -0.0732 -0.3210
    5SAPS  O13A  540   4.085   3.251  11.082 -0.4661 -0.0283  0.3701
    5SAPS  O13B  541   4.182   3.431  11.014 -0.1073 -0.0523  0.4313
    5SAPS   C11  542   3.920   3.488  10.895  0.7314 -0.4238 -0.3027
    5SAPS  H11A  543   3.930   3.397  10.832  0.2077  0.7727 -2.1979
    5SAPS  H11B  544   3.991   3.571  10.874 -1.1924  0.7923 -2.4516
    5SAPS     P  545   3.758   3.626  10.753 -0.3045 -0.2077 -0.0163
    5SAPS   O13  546   3.757   3.771  10.791 -0.1966  0.0338 -0.3415
    5SAPS   O14  547   3.848   3.575  10.647  0.5414 -0.5448 -0.0298
    5SAPS   O12  548   3.788   3.546  10.880 -0.2570  0.3827 -0.6278
    5SAPS   O11  549   3.611   3.576  10.716  0.0194  0.0881  0.0258
    5SAPS    C1  550   3.561   3.447  10.750  0.1155  0.5580  0.1372
    5SAPS    HA  551   3.583   3.425  10.857  0.0916  1.6638  0.3782
    5SAPS    HB  552   3.450   3.453  10.740 -0.0718 -0.8724  1.0175
    5SAPS    C2  553   3.601   3.340  10.647  0.1304 -0.4928 -0.2060
    5SAPS    HS  554   3.708   3.310  10.655 -0.0040 -0.9789 -0.2152
    5SAPS   O21  555   3.570   3.383  10.515 -0.4777 -0.1525  0.3829
    5SAPS   C21  556   3.645   3.338  10.416  0.0181  0.2263 -0.7503
    5SAPS   O22  557   3.737   3.263  10.424  0.1916 -0.0349  0.5790
    5SAPS   C22  558   3.586   3.408  10.291  0.0718  0.1515  0.3232
    5SAPS   H2R  559   3.476   3.399  10.299 -0.2529  3.6838  1.6846
    5SAPS   H2S  560   3.614   3.515  10.301  2.3283 -0.2961 -0.5787
    5SAPS    C3  561   3.531   3.208  10.678  0.0730 -0.1855  0.2641
    5SAPS    HX  562   3.551   3.182  10.784 -0.3014 -0.4872  0.2633
    5SAPS    HY  563   3.573   3.131  10.611  0.1189  2.0327 -2.4272
    5SAPS   O31  564   3.392   3.230  10.655 -0.1033  0.2264  0.0997
    5SAPS   C31  565   3.339   3.199  10.537 -0.2083  0.3351 -0.1187
    5SAPS   O32  566   3.398   3.154  10.439 -0.0801  0.1468 -0.7537
    5SAPS   C32  567   3.186   3.221  10.550  0.1150 -0.3717 -0.2976
    5SAPS   H2X  568   3.170   3.320  10.598  0.0889  0.0289 -1.1105
    5SAPS   H2Y  569   3.151   3.134  10.610  0.2322 -0.7232 -0.7350
    5SAPS   C23  570   3.643   3.345  10.163  0.9452  0.3231  0.7206
    5SAPS   H3R  571   3.753   3.342  10.180  0.7276 -3.3036  2.2889
    5SAPS   H3S  572   3.627   3.424  10.087  1.1739  0.7693  1.1280
    5SAPS   C24  573   3.583   3.208  10.130 -0.5380 -0.0732 -0.2692
    5SAPS   H4R  574   3.481   3.229  10.090 -0.3244  0.9506 -0.3041
    5SAPS   H4S  575   3.562   3.154  10.225 -2.9031  0.3280 -0.4964
    5SAPS   C25  576   3.672   3.116  10.050  0.3165  0.4446  0.3636
    5SAPS   H5R  577   3.736   3.038  10.095  1.3740  0.8968 -0.3309
    5SAPS   C26  578   3.669   3.113   9.918  0.2971 -1.5567  0.4912
    5SAPS   H6R  579   3.739   3.043   9.869  0.5925 -0.2261 -1.0849
    5SAPS   C27  580   3.579   3.191   9.822  0.6513 -0.3363  0.8304
    5SAPS   H7R  581   3.495   3.236   9.878  0.3085  1.5435 -1.0497
    5SAPS   H7S  582   3.534   3.122   9.748  1.3449 -0.2704  0.3351
    5SAPS   C28  583   3.647   3.304   9.758  0.1896 -0.3432  0.5476
    5SAPS   H8R  584   3.707   3.357   9.834 -0.0866 -0.2256  0.6877
    5SAPS   C29  585   3.635   3.353   9.632 -0.0911 -0.9725  0.5501
    5SAPS   H9R  586   3.696   3.441   9.605 -0.6277 -0.4867  0.9017
    5SAPS  C210  587   3.553   3.301   9.517 -1.0885  0.1258 -0.0992
    5SAPS  H10R  588   3.540   3.392   9.454  2.1894  1.2723  0.6570
    5SAPS  H10S  589   3.455   3.267   9.557 -1.5087 -0.9754 -1.9607
    5SAPS  C211  590   3.606   3.192   9.433 -0.1544  0.9789  0.1028
    5SAPS  H11R  591   3.650   3.112   9.493  1.2495  2.0151  0.5255
    5SAPS  C212  592   3.620   3.187   9.297  0.1265  0.2725  0.2547
    5SAPS  H12R  593   3.669   3.095   9.263 -0.6511  0.0982 -0.4318
    5SAPS  C213  594   3.572   3.283   9.194 -0.1212  0.2164  0.5883
    5SAPS  H13R  595   3.663   3.314   9.137  1.4384 -0.5377  2.5716
    5SAPS  H13S  596   3.545   3.377   9.248 -0.6888  1.5920 -1.9165
    5SAPS  C214  597   3.465   3.232   9.101 -0.0449  0.4140  0.0693
    5SAPS  H14R  598   3.380   3.184   9.153  1.0558 -1.0210  0.5984
    5SAPS  C215  599   3.478   3.238   8.968  0.2897  0.3344 -0.1433
    5SAPS  H15R  600   3.392   3.198   8.912 -0.3922  1.1838  0.2743
    5SAPS  C216  601   3.595   3.285   8.885 -0.1205 -0.1427 -0.2263
    5SAPS  H16R  602   3.693   3.247   8.920  0.4050  0.3602 -1.1016
    5SAPS  H16S  603   3.607   3.395   8.878  1.5784 -0.2561  0.4715
    5SAPS  C217  604   3.590   3.220   8.741  0.2480 -0.4283 -0.0972
    5SAPS  H17R  605   3.688   3.237   8.692  1.2393  0.0781  1.9567
    5SAPS  H17S  606   3.518   3.276   8.677  2.6240  0.0088 -2.5942
    5SAPS  C218  607   3.562   3.065   8.735 -0.0342 -0.2895  0.6506
    5SAPS  H18R  608   3.627   3.002   8.800 -0.3280 -0.0672  1.1722
    5SAPS  H18S  609   3.461   3.033   8.771  0.3694 -0.4109  1.7344
    5SAPS  C219  610   3.563   3.015   8.591 -0.0887  0.2110 -0.3504
    5SAPS  H19R  611   3.505   3.077   8.519  1.3845 -1.8137 -3.4909
    5SAPS  H19S  612   3.513   2.916   8.591 -2.5535  1.3842 -1.3844
    5SAPS  C220  613   3.706   3.014   8.525  0.1292 -0.8494  0.3139
    5SAPS  H20R  614   3.777   2.962   8.593  1.0085  0.7250  0.6265
    5SAPS  H20S  615   3.743   3.117   8.509  0.1670 -0.5771  1.9792
    5SAPS  H20T  616   3.702   2.972   8.422  0.4004  1.2409 -0.5937
    5SAPS   C33  617   3.115   3.242  10.414  0.1267 -0.3443  0.2793
    5SAPS   H3X  618   3.171   3.321  10.359  2.0949 -0.6164  1.7662
    5SAPS   H3Y  619   3.018   3.282  10.452  0.4797 -0.3041  1.1627
    5SAPS   C34  620   3.090   3.126  10.315  0.2930  0.3048  0.0273
    5SAPS   H4X  621   2.985   3.131  10.281  0.4098  1.9862 -0.1833
    5SAPS   H4Y  622   3.101   3.030  10.371 -0.0832  0.9919  1.3214
    5SAPS   C35  623   3.186   3.131  10.196  0.3051  0.6595 -0.3284
    5SAPS   H5X  624   3.292   3.147  10.226  1.6071  0.4434 -4.2844
    5SAPS   H5Y  625   3.165   3.224  10.139 -1.1823  1.0186  0.7374
    5SAPS   C36  626   3.168   3.015  10.096 -0.2493 -0.0281  0.3220
    5SAPS   H6X  627   3.060   2.994  10.084  0.0181 -1.9269  1.0384
    5SAPS   H6Y  628   3.225   2.931  10.139  2.7468  2.4436  1.5824
    5SAPS   C37  629   3.241   3.040   9.961 -0.1895  0.3250  0.7381
    5SAPS   H7X  630   3.352   3.030   9.962 -0.2570 -0.4496  0.8304
    5SAPS   H7Y  631   3.221   3.147   9.941  3.7422  1.4263  1.6547
    5SAPS   C38  632   3.183   2.947   9.854  0.1413 -0.4528 -0.2584
    5SAPS   H8X  633   3.085   2.990   9.823 -0.4044 -1.8894 -0.5727
    5SAPS   H8Y  634   3.183   2.845   9.897  1.7691  0.4284  2.0376
    5SAPS   C39  635   3.265   2.943   9.715 -0.0570 -0.4467  0.3700
    5SAPS   H9X  636   3.244   2.845   9.668  0.0859  0.3744 -1.5001
    5SAPS   H9Y  637   3.375   2.936   9.731  0.0301  1.2685  0.7197
    5SAPS  C310  638   3.227   3.051   9.613 -0.2018  0.1201 -0.3373
    5SAPS  H10X  639   3.304   3.054   9.533  0.8643  1.6804  0.6884
    5SAPS  H10Y  640   3.219   3.148   9.667  0.9086  0.0948 -0.1090
    5SAPS  C311  641   3.091   3.015   9.547  0.6660 -0.0820 -0.0107
    5SAPS  H11X  642   3.014   2.990   9.623 -0.3610 -1.6257 -1.4776
    5SAPS  H11Y  643   3.093   2.919   9.491 -0.2174  0.0630 -0.3099
    5SAPS  C312  644   3.033   3.127   9.455  0.4554  0.2486 -0.0819
    5SAPS  H12X  645   3.010   3.215   9.519 -0.8734 -0.4434  0.4570
    5SAPS  H12Y  646   2.936   3.090   9.416  0.9887  2.6533 -4.2826
    5SAPS  C313  647   3.124   3.176   9.346  0.2151 -0.7010  0.1002
    5SAPS  H13X  648   3.137   3.084   9.286 -1.3874 -0.8317 -0.0738
    5SAPS  H13Y  649   3.222   3.210   9.386 -0.0439 -1.2261  1.2493
    5SAPS  C314  650   3.051   3.289   9.263  0.0346  0.1740 -0.4124
    5SAPS  H14X  651   3.073   3.384   9.317  0.3933  0.6495 -1.3765
    5SAPS  H14Y  652   2.940   3.282   9.263  0.0336  0.1911 -0.4464
    5SAPS  C315  653   3.100   3.299   9.114 -0.0234 -0.2405 -1.2996
    5SAPS  H15X  654   3.085   3.199   9.068 -3.5468 -0.5160  0.0961
    5SAPS  H15Y  655   3.207   3.324   9.128 -0.9487  3.5949  0.5163
    5SAPS  C316  656   3.032   3.405   9.030  0.1136  0.3973  0.8203
    5SAPS  H16X  657   3.053   3.501   9.082 -0.2173  1.4211 -0.8796
    5SAPS  H16Y  658   2.923   3.386   9.031  0.3305 -0.9920  0.5891
    5SAPS  C317  659   3.080   3.420   8.885  0.0342  0.0073  0.9280
    5SAPS  H17X  660   3.184   3.459   8.892  0.2716 -0.7121  1.5014
    5SAPS  H17Y  661   3.009   3.498   8.851  0.2851  0.5613  1.6399
    5SAPS  C318  662   3.081   3.300   8.800  0.4426  0.0381 -0.2728
    5SAPS  H18X  663   2.987   3.241   8.806 -0.2615  1.2430  0.9879
    5SAPS  H18Y  664   3.165   3.231   8.825  1.1836 -0.6321 -3.9825
    5SAPS  H18Z  665   3.105   3.323   8.693  1.3843  0.0183 -0.0809
    6SAPS     N  666   2.467   4.231  10.724 -0.6173  0.3097  0.0820
    6SAPS   HN1  667   2.468   4.172  10.639 -1.4955  1.2419 -0.6000
    6SAPS   HN2  668   2.405   4.314  10.711 -1.0663 -0.4105 -2.9895
    6SAPS   HN3  669   2.563   4.267  10.740 -1.1357  1.2385  1.3923
    6SAPS   C12  670   2.420   4.159  10.844  0.1022  0.3078 -0.2505
    6SAPS  H12A  671   2.483   4.073  10.859 -1.7445 -1.3152 -1.3185
    6SAPS   C13  672   2.409   4.254  10.971  0.2839 -1.1065 -0.3637
    6SAPS  O13A  673   2.429   4.376  10.964  0.2604  0.0874  0.1450
    6SAPS  O13B  674   2.426   4.191  11.073  0.6523  0.2337 -0.6289
    6SAPS   C11  675   2.280   4.095  10.827  0.3666  0.1395  0.0563
    6SAPS  H11A  676   2.196   4.168  10.833 -1.1127 -0.9323 -3.9351
    6SAPS  H11B  677   2.280   4.016  10.905 -2.1420  0.0306  0.0387
    6SAPS     P  678   2.136   3.954  10.659 -0.0026 -0.8701  0.0017
    6SAPS   O13  679   2.145   3.870  10.540  0.2126 -0.1800 -0.6931
    6SAPS   O14  680   2.076   3.898  10.779 -0.0093 -0.0123 -0.1724
    6SAPS   O12  681   2.275   4.026  10.703  0.5166  0.2173  1.2156
    6SAPS   O11  682   2.033   4.072  10.624  0.2033 -0.2349 -0.0137
    6SAPS    C1  683   2.084   4.192  10.562  0.2868  0.8563 -0.1072
    6SAPS    HA  684   2.030   4.274  10.615  1.0679  1.8064 -0.7403
    6SAPS    HB  685   2.186   4.224  10.592  0.6542  0.5109 -0.9708
    6SAPS    C2  686   2.068   4.205  10.409 -0.0314 -0.1109  0.0952
    6SAPS    HS  687   2.152   4.148  10.365  0.4536 -0.8698  1.9302
    6SAPS   O21  688   2.051   4.348  10.378 -0.2953  0.6602 -0.5535
    6SAPS   C21  689   2.171   4.407  10.371 -0.4801  0.2597 -0.4244
    6SAPS   O22  690   2.278   4.347  10.387 -0.3368 -0.4051  0.2753
    6SAPS   C22  691   2.146   4.555  10.340 -0.2737 -0.4338 -0.1920
    6SAPS   H2R  692   2.074   4.571  10.257 -0.4651  2.6517  0.4305
    6SAPS   H2S  693   2.115   4.603  10.435  0.9492  3.0458 -1.3915
    6SAPS    C3  694   1.933   4.133  10.373  0.2890  0.4004 -1.4787
    6SAPS    HX  695   1.857   4.153  10.451 -1.0658  0.5294 -2.7876
    6SAPS    HY  696   1.951   4.025  10.392 -0.2759  0.7662  1.7504
    6SAPS   O31  697   1.881   4.172  10.244 -0.3205  0.4871 -0.0953
    6SAPS   C31  698   1.943   4.127  10.137  0.2649  0.0485 -0.5353
    6SAPS   O32  699   2.033   4.044  10.140  0.2013 -0.6851  0.6307
    6SAPS   C32  700   1.893   4.195  10.011 -0.7223 -0.3379 -0.0959
    6SAPS   H2X  701   1.934   4.298  10.015  1.8000 -1.1646 -1.9895
    6SAPS   H2Y  702   1.782   4.196  10.018 -0.6214 -0.8678  2.5588
    6SAPS   C23  703   2.277   4.616  10.300 -1.2524 -0.6583  0.4955
    6SAPS   H3R  704   2.369   4.588  10.355 -0.8369  0.1803  0.2509
    6SAPS   H3S  705   2.258   4.724  10.317 -1.1383 -0.7491  1.2238
    6SAPS   C24  706   2.304   4.595  10.143 -0.0352 -0.5214 -0.3762
    6SAPS   H4R  707   2.387   4.666  10.121 -2.0384  1.6832 -1.2919
    6SAPS   H4S  708   2.225   4.650  10.088 -2.2375  1.2987  4.0849
    6SAPS   C25  709   2.341   4.457  10.081  0.0135 -0.5233  0.0379
    6SAPS   H5R  710   2.355   4.384  10.163  0.2983  0.6345  1.0492
    6SAPS   C26  711   2.369   4.422   9.954 -0.4907  0.0508 -0.2399
    6SAPS   H6R  712   2.391   4.314   9.943 -3.0689 -0.8562  2.2121
    6SAPS   C27  713   2.370   4.512   9.833  0.1960 -0.3664 -0.3739
    6SAPS   H7R  714   2.329   4.611   9.858 -0.8903 -1.0639  0.6974
    6SAPS   H7S  715   2.304   4.473   9.752  0.5291 -1.2918 -0.2114
    6SAPS   C28  716   2.509   4.537   9.768 -0.6737 -0.3764 -0.4269
    6SAPS   H8R  717   2.597   4.546   9.834 -0.4531  1.9205 -0.9541
    6SAPS   C29  718   2.533   4.559   9.633 -0.9512  0.5004  0.3100
    6SAPS   H9R  719   2.636   4.542   9.597 -1.0529 -1.8338  1.0012
    6SAPS  C210  720   2.419   4.550   9.529  0.3359 -0.3043 -0.2778
    6SAPS  H10R  721   2.445   4.608   9.438  1.1643 -2.5890 -1.5809
    6SAPS  H10S  722   2.335   4.614   9.564  1.2057  0.6001  0.2103
    6SAPS  C211  723   2.374   4.414   9.486 -0.3685 -0.3047  0.4345
    6SAPS  H11R  724   2.333   4.349   9.565 -1.5730  2.0185  1.8376
    6SAPS  C212  725   2.378   4.361   9.356  0.6382 -0.2961  0.6182
    6SAPS  H12R  726   2.340   4.260   9.338  0.6521 -0.0813 -0.6855
    6SAPS  C213  727   2.444   4.443   9.244  0.1805  0.8822 -0.4109
    6SAPS  H13R  728   2.554   4.440   9.258 -0.1702 -0.3784  2.7796
    6SAPS  H13S  729   2.414   4.549   9.253  2.3046  1.5662 -0.7188
    6SAPS  C214  730   2.406   4.383   9.111  1.0335 -0.4582 -0.4009
    6SAPS  H14R  731   2.304   4.344   9.102  0.8600  0.2917 -1.9645
    6SAPS  C215  732   2.472   4.386   8.997 -0.6408  0.7226  0.4658
    6SAPS  H15R  733   2.440   4.335   8.906  0.7548  0.7843 -0.0887
    6SAPS  C216  734   2.600   4.460   8.989  0.3037  0.7560 -0.1824
    6SAPS  H16R  735   2.663   4.392   8.927 -0.0921  0.6816 -0.5117
    6SAPS  H16S  736   2.660   4.473   9.081  0.2425  1.7910 -0.2776
    6SAPS  C217  737   2.590   4.584   8.903  0.0825  0.1126 -0.6340
    6SAPS  H17R  738   2.689   4.632   8.893 -0.2655  0.9388 -0.2012
    6SAPS  H17S  739   2.526   4.660   8.954  2.6597  1.8871  0.1481
    6SAPS  C218  740   2.536   4.561   8.763  0.0440 -0.4795  1.0732
    6SAPS  H18R  741   2.437   4.512   8.765 -0.1716 -0.8857 -4.5083
    6SAPS  H18S  742   2.600   4.489   8.707  0.7188 -0.2534  1.5357
    6SAPS  C219  743   2.518   4.690   8.682 -0.2766 -0.0363  0.4530
    6SAPS  H19R  744   2.620   4.731   8.664  1.2466 -3.7278 -0.2593
    6SAPS  H19S  745   2.469   4.766   8.746 -0.8983 -1.0247  1.1806
    6SAPS  C220  746   2.456   4.657   8.539 -0.8691 -0.2732 -0.2414
    6SAPS  H20R  747   2.348   4.632   8.553 -1.0569  1.6663  2.5438
    6SAPS  H20S  748   2.515   4.573   8.497 -0.9040 -0.9427  1.0089
    6SAPS  H20T  749   2.470   4.756   8.491  1.0989 -0.2402  0.3525
    6SAPS   C33  750   1.935   4.126   9.878  0.5511 -0.1200 -0.2092
    6SAPS   H3X  751   1.894   4.023   9.870  0.5460 -0.2208  0.9966
    6SAPS   H3Y  752   2.045   4.113   9.884  0.7142  1.3323  0.2624
    6SAPS   C34  753   1.930   4.211   9.754 -0.4623 -0.0449  0.0213
    6SAPS   H4X  754   1.963   4.315   9.774 -0.2528 -0.2813  0.9673
    6SAPS   H4Y  755   1.824   4.222   9.722 -0.1115 -0.4366 -1.3591
    6SAPS   C35  756   2.006   4.152   9.635 -0.8713  0.2029  0.2645
    6SAPS   H5X  757   1.984   4.044   9.647 -1.5205  0.5837  3.5280
    6SAPS   H5Y  758   2.115   4.155   9.659 -1.1499  0.3818  1.5999
    6SAPS   C36  759   1.981   4.205   9.492 -0.0229  0.6843  0.2173
    6SAPS   H6X  760   2.018   4.309   9.484 -0.2283  0.6496 -1.5493
    6SAPS   H6Y  761   1.871   4.206   9.476 -0.1616  0.2926  1.0840
    6SAPS   C37  762   2.054   4.122   9.388  0.2831  0.2187  1.1899
    6SAPS   H7X  763   2.026   4.015   9.400 -1.7127  0.0428 -3.1459
    6SAPS   H7Y  764   2.163   4.133   9.410  0.5219  0.4313  0.0030
    6SAPS   C38  765   2.028   4.151   9.245  0.1828 -0.3060  0.2833
    6SAPS   H8X  766   2.078   4.244   9.210 -0.4500 -0.6684 -1.7192
    6SAPS   H8Y  767   1.920   4.149   9.220  0.3991 -0.4368 -0.6695
    6SAPS   C39  768   2.090   4.047   9.147  0.2712 -0.5692 -0.6903
    6SAPS   H9X  769   2.028   3.957   9.164 -2.5006  1.3791  0.3401
    6SAPS   H9Y  770   2.195   4.030   9.179  0.2181 -0.4552 -0.4499
    6SAPS  C310  771   2.086   4.104   8.996 -0.2500  0.4549 -0.7339
    6SAPS  H10X  772   2.143   4.200   8.997 -0.8143  0.7935 -0.3092
    6SAPS  H10Y  773   1.979   4.134   8.985 -0.5089 -0.4213 -0.6646
    6SAPS  C311  774   2.149   4.008   8.895  0.0731  0.0683 -0.2589
    6SAPS  H11X  775   2.256   4.023   8.919 -0.3667  2.4275  0.4274
    6SAPS  H11Y  776   2.147   4.038   8.788  0.4688  2.3559  0.3289
    6SAPS  C312  777   2.105   3.867   8.911  0.0956 -0.9564 -0.6062
    6SAPS  H12X  778   1.994   3.865   8.905 -0.1056 -1.0357  1.9567
    6SAPS  H12Y  779   2.130   3.830   9.012 -1.2509 -0.6237 -0.1275
    6SAPS  C313  780   2.160   3.786   8.790 -0.3038  0.1190 -0.4836
    6SAPS  H13X  781   2.253   3.728   8.808 -0.2430 -0.0632 -1.3509
    6SAPS  H13Y  782   2.190   3.860   8.713 -0.7032  2.2685  1.3246
    6SAPS  C314  783   2.055   3.693   8.726 -0.1549  0.0330  0.3238
    6SAPS  H14X  784   1.965   3.757   8.717  0.8225  1.3469 -0.4982
    6SAPS  H14Y  785   2.026   3.605   8.788 -1.3409 -0.7675 -1.3006
    6SAPS  C315  786   2.097   3.641   8.589  0.5942  0.1462  0.5106
    6SAPS  H15X  787   2.141   3.722   8.527  1.0785 -1.2389 -1.0595
    6SAPS  H15Y  788   2.018   3.603   8.521  2.0713  0.8598 -1.7287
    6SAPS  C316  789   2.202   3.527   8.586  0.1287  0.2566  0.4921
    6SAPS  H16X  790   2.170   3.459   8.669  0.7448 -0.2889  0.2919
    6SAPS  H16Y  791   2.296   3.569   8.627  0.3763  0.4387 -0.2460
    6SAPS  C317  792   2.202   3.438   8.458 -0.0875  0.1324  0.2929
    6SAPS  H17X  793   2.105   3.440   8.404  0.3669  0.6161 -0.5186
    6SAPS  H17Y  794   2.220   3.336   8.498 -0.0405  1.0003  2.6680
    6SAPS  C318  795   2.321   3.475   8.368  0.5814 -0.5621 -0.2738
    6SAPS  H18X  796   2.414   3.464   8.428  1.6234  3.2264 -0.9359
    6SAPS  H18Y  797   2.324   3.581   8.336  0.8601  1.2399  4.9468
    6SAPS  H18Z  798   2.330   3.411   8.277  2.0589  0.2815 -0.7627
    7SAPS     N  799   5.350   5.617  10.883  0.4479 -0.5645 -0.6526
    7SAPS   HN1  800   5.450   5.646  10.892  0.6374 -1.6928  1.6779
    7SAPS   HN2  801   5.311   5.643  10.790 -0.4541  1.9473  0.3240
    7SAPS   HN3  802   5.296   5.677  10.949 -2.7048 -1.4294 -2.2298
    7SAPS   C12  803   5.336   5.471  10.901  0.9954 -0.7064  0.1779
    7SAPS  H12A  804   5.422   5.424  10.856  0.3928 -2.0588  0.3924
    7SAPS   C13  805   5.327   5.427  11.048  0.4077 -0.4138 -0.2570
    7SAPS  O13A  806   5.309   5.304  11.069 -0.1442 -0.5877  0.2912
    7SAPS  O13B  807   5.317   5.513  11.144 -0.0971  0.5661 -0.3619
    7SAPS   C11  808   5.211   5.418  10.824  0.2295  0.7446  0.4001
    7SAPS  H11A  809   5.119   5.475  10.847 -0.5896 -0.4954  0.2741
    7SAPS  H11B  810   5.197   5.311  10.849  0.2575  0.9627  1.4037
    7SAPS     P  811   5.215   5.308  10.590  0.1264  0.1182  0.0040
    7SAPS   O13  812   5.302   5.200  10.640 -0.5429  0.0714 -0.4161
    7SAPS   O14  813   5.071   5.286  10.574  0.7594 -0.0682 -0.0243
    7SAPS   O12  814   5.242   5.432  10.682 -0.4377 -0.2843 -0.4354
    7SAPS   O11  815   5.271   5.351  10.456  0.3174 -0.6419  0.3154
    7SAPS    C1  816   5.310   5.486  10.421  0.4144 -0.6889  0.2549
    7SAPS    HA  817   5.224   5.550  10.450  0.0303 -1.6849  1.4242
    7SAPS    HB  818   5.402   5.510  10.478  0.4478  2.3606 -0.8653
    7SAPS    C2  819   5.353   5.524  10.276 -0.6514 -0.5825 -0.7797
    7SAPS    HS  820   5.369   5.633  10.260  2.7987 -1.4104 -4.4128
    7SAPS   O21  821   5.245   5.472  10.205 -0.4402 -0.5734  0.3712
    7SAPS   C21  822   5.163   5.565  10.164  0.5424 -0.0348  0.1073
    7SAPS   O22  823   5.155   5.686  10.192 -0.1391 -0.4335 -0.1175
    7SAPS   C22  824   5.047   5.493  10.103 -0.1296 -0.5958  0.3772
    7SAPS   H2R  825   5.012   5.417  10.176 -1.2627  0.8291  1.3727
    7SAPS   H2S  826   4.966   5.569  10.111  1.4872  0.9808  3.1386
    7SAPS    C3  827   5.485   5.459  10.242 -0.5228  0.5734  0.5420
    7SAPS    HX  828   5.494   5.353  10.275 -2.6120 -0.9714 -3.2654
    7SAPS    HY  829   5.567   5.515  10.292  0.5251 -0.7055  0.3044
    7SAPS   O31  830   5.503   5.486  10.095 -0.5067  0.1359 -0.7673
    7SAPS   C31  831   5.520   5.378  10.018 -0.2819 -0.7740 -0.0757
    7SAPS   O32  832   5.564   5.275  10.052 -0.9208  0.4269  0.4182
    7SAPS   C32  833   5.475   5.423   9.873  0.7028  0.5543 -0.7166
    7SAPS   H2X  834   5.529   5.516   9.848 -1.0861  1.3445 -1.8787
    7SAPS   H2Y  835   5.371   5.464   9.872  0.3089 -0.3091  0.9695
    7SAPS   C23  836   5.071   5.445   9.964 -0.4709 -0.8406  0.3853
    7SAPS   H3R  837   4.985   5.378   9.944 -1.9207  1.4666 -1.6791
    7SAPS   H3S  838   5.170   5.394   9.963 -0.1423 -0.2436  1.2421
    7SAPS   C24  839   5.061   5.560   9.857  1.1973  0.0763 -0.6953
    7SAPS   H4R  840   5.141   5.635   9.876  1.3455 -0.3002  0.2534
    7SAPS   H4S  841   4.966   5.607   9.889 -0.0582 -1.7619 -1.5574
    7SAPS   C25  842   5.054   5.516   9.714 -0.4964  0.7868  0.2613
    7SAPS   H5R  843   5.047   5.406   9.702 -2.9465  1.0062 -0.8328
    7SAPS   C26  844   5.048   5.577   9.602  0.9519  0.0078 -0.1963
    7SAPS   H6R  845   5.060   5.516   9.511  0.4459 -3.5488  1.9374
    7SAPS   C27  846   5.022   5.722   9.594  0.2709  0.1726 -0.2935
    7SAPS   H7R  847   5.103   5.769   9.533  0.4880  0.3879  0.1515
    7SAPS   H7S  848   5.036   5.762   9.696  0.1337 -0.7958  0.1181
    7SAPS   C28  849   4.885   5.762   9.553  0.2273  0.7868 -0.2301
    7SAPS   H8R  850   4.811   5.736   9.631  2.6654 -2.3208  1.2616
    7SAPS   C29  851   4.840   5.815   9.439 -0.2043  0.0250 -1.0411
    7SAPS   H9R  852   4.735   5.847   9.443 -0.6561 -1.2713  3.4967
    7SAPS  C210  853   4.931   5.862   9.324  0.3744  0.2652 -0.3514
    7SAPS  H10R  854   4.985   5.769   9.295 -3.4996 -3.1441  2.2766
    7SAPS  H10S  855   5.011   5.936   9.345 -0.9131  1.6353 -0.1586
    7SAPS  C211  856   4.837   5.883   9.206 -0.2842  0.5585 -0.2892
    7SAPS  H11R  857   4.778   5.793   9.185 -1.3922  1.5156 -1.3857
    7SAPS  C212  858   4.815   5.997   9.144  0.2379  0.3941  0.5084
    7SAPS  H12R  859   4.746   6.002   9.059  1.0676 -3.8205 -0.6613
    7SAPS  C213  860   4.869   6.133   9.180 -0.0051 -0.2593  0.4870
    7SAPS  H13R  861   4.925   6.170   9.092  0.2408  0.3216  0.8785
    7SAPS  H13S  862   4.943   6.125   9.263  2.1695 -3.0601 -1.5253
    7SAPS  C214  863   4.769   6.239   9.225 -0.0962  0.6875 -0.3522
    7SAPS  H14R  864   4.664   6.205   9.230  0.0538  0.4086  1.6853
    7SAPS  C215  865   4.797   6.363   9.264 -0.3042  0.2235  0.8302
    7SAPS  H15R  866   4.722   6.438   9.296 -0.3759  0.4951  0.0472
    7SAPS  C216  867   4.935   6.418   9.270  0.6245  0.1777 -0.1420
    7SAPS  H16R  868   5.016   6.342   9.270 -0.5345 -1.1052 -0.7357
    7SAPS  H16S  869   4.941   6.492   9.353 -1.5415  0.8956 -0.5568
    7SAPS  C217  870   4.963   6.485   9.133  0.1587 -0.3054 -0.9143
    7SAPS  H17R  871   4.884   6.554   9.097  0.6870  1.4242  1.0405
    7SAPS  H17S  872   4.963   6.405   9.056  0.2366 -0.3330 -0.8863
    7SAPS  C218  873   5.091   6.569   9.130  0.6443 -0.2253  0.4733
    7SAPS  H18R  874   5.131   6.575   9.233  1.0831  0.7823  0.2516
    7SAPS  H18S  875   5.056   6.674   9.116 -0.6210 -0.4848  1.5402
    7SAPS  C219  876   5.200   6.531   9.035  0.0136 -0.3364 -0.8779
    7SAPS  H19R  877   5.265   6.620   9.024 -0.2897  0.3824  2.0858
    7SAPS  H19S  878   5.152   6.513   8.937  0.7717 -0.5320 -1.2205
    7SAPS  C220  879   5.287   6.416   9.084  0.5975 -0.1539  0.3588
    7SAPS  H20R  880   5.221   6.331   9.112 -0.2372 -0.2511 -1.7750
    7SAPS  H20S  881   5.347   6.426   9.177  2.5218 -0.2149 -0.8115
    7SAPS  H20T  882   5.359   6.388   9.004 -0.0959 -1.2243  0.0906
    7SAPS   C33  883   5.488   5.308   9.765  0.0425 -0.3030  0.1337
    7SAPS   H3X  884   5.582   5.252   9.784  0.5309  0.8631  1.3423
    7SAPS   H3Y  885   5.477   5.356   9.666 -2.1739  1.5745  1.1757
    7SAPS   C34  886   5.377   5.201   9.792  0.7866  0.2061 -0.0835
    7SAPS   H4X  887   5.295   5.258   9.839 -0.6191 -0.9607 -1.0351
    7SAPS   H4Y  888   5.416   5.137   9.874 -1.9961  0.0657  1.2238
    7SAPS   C35  889   5.312   5.141   9.666  0.6459 -0.1459 -0.2803
    7SAPS   H5X  890   5.259   5.226   9.618  2.9169  1.9489  0.7443
    7SAPS   H5Y  891   5.247   5.058   9.700  0.7912 -1.2510 -2.4748
    7SAPS   C36  892   5.411   5.080   9.572 -0.0090 -0.3493 -0.2442
    7SAPS   H6X  893   5.445   4.984   9.618 -0.8924 -0.7693 -0.4483
    7SAPS   H6Y  894   5.495   5.150   9.553  0.6956 -1.2340 -0.4593
    7SAPS   C37  895   5.358   5.044   9.440 -0.0534 -0.5033 -1.0748
    7SAPS   H7X  896   5.266   4.982   9.448  0.6870 -1.5667 -0.6455
    7SAPS   H7Y  897   5.431   4.979   9.388 -0.3681 -2.1062  0.4300
    7SAPS   C38  898   5.330   5.164   9.348 -0.8167 -0.3627  0.2181
    7SAPS   H8X  899   5.414   5.237   9.344 -0.0481 -1.2700 -0.6983
    7SAPS   H8Y  900   5.249   5.229   9.389 -1.0334 -0.1653 -0.5152
    7SAPS   C39  901   5.308   5.140   9.194 -0.0112 -0.8328 -0.8156
    7SAPS   H9X  902   5.255   5.226   9.147 -0.6400  0.5098  2.0901
    7SAPS   H9Y  903   5.242   5.051   9.189  0.7726 -1.5791  0.9989
    7SAPS  C310  904   5.447   5.121   9.127  0.1488  0.0850 -0.5270
    7SAPS  H10X  905   5.483   5.017   9.146  0.9247  0.9748  3.8245
    7SAPS  H10Y  906   5.520   5.196   9.162 -0.4681 -0.2723  1.6292
    7SAPS  C311  907   5.433   5.130   8.971 -0.2041 -0.3870  0.5942
    7SAPS  H11X  908   5.368   5.219   8.961  0.8819  0.2603 -1.4186
    7SAPS  H11Y  909   5.380   5.039   8.936  0.6436 -0.5274 -0.3765
    7SAPS  C312  910   5.571   5.151   8.901  0.1656  0.4304  0.1709
    7SAPS  H12X  911   5.629   5.056   8.903 -0.5707 -0.0566 -0.7081
    7SAPS  H12Y  912   5.624   5.234   8.952  0.4062  1.5510 -1.8067
    7SAPS  C313  913   5.540   5.178   8.754  0.0539  0.2122  0.1078
    7SAPS  H13X  914   5.461   5.256   8.755 -0.5527 -0.3959 -0.2663
    7SAPS  H13Y  915   5.503   5.080   8.718  1.7346 -0.0541 -1.0289
    7SAPS  C314  916   5.653   5.228   8.671 -0.3745 -0.0894 -0.3748
    7SAPS  H14X  917   5.733   5.152   8.689 -0.2268  0.7717  3.2918
    7SAPS  H14Y  918   5.706   5.317   8.712  0.6167 -2.1117  3.1312
    7SAPS  C315  919   5.615   5.240   8.527 -0.0919 -0.4331  0.8069
    7SAPS  H15X  920   5.604   5.138   8.485  1.2043 -1.5826  3.0904
    7SAPS  H15Y  921   5.693   5.292   8.467  0.0356  0.4723  1.7239
    7SAPS  C316  922   5.477   5.310   8.497  0.1890 -0.3549  0.2048
    7SAPS  H16X  923   5.474   5.394   8.569 -1.3691 -1.2099  1.1943
    7SAPS  H16Y  924   5.399   5.241   8.538 -1.6501  1.2558 -0.4296
    7SAPS  C317  925   5.445   5.360   8.360 -0.2454  0.5885 -0.3064
    7SAPS  H17X  926   5.480   5.274   8.300 -2.4248 -2.3809  2.3609
    7SAPS  H17Y  927   5.499   5.452   8.328 -1.4035  1.0660 -0.9579
    7SAPS  C318  928   5.295   5.392   8.335 -0.1022 -0.5355 -0.4886
    7SAPS  H18X  929   5.253   5.464   8.407  3.1012 -0.4187  1.4634
    7SAPS  H18Y  930   5.239   5.296   8.344 -1.1258  0.2805  3.0511
    7SAPS  H18Z  931   5.283   5.439   8.235 -1.8857 -0.8376 -0.4365
    8SAPS     N  932   2.408   6.098  11.001 -0.7825 -0.2527 -0.2568
    8SAPS   HN1  933   2.342   6.043  10.943  0.8255 -1.8246 -0.6838
    8SAPS   HN2  934   2.468   6.142  10.929 -3.0744  0.6763 -1.7210
    8SAPS   HN3  935   2.457   6.031  11.064 -0.9954  0.0027  0.1912
    8SAPS   C12  936   2.336   6.208  11.080 -0.3130 -0.3104 -0.1532
    8SAPS  H12A  937   2.279   6.155  11.155 -2.2989 -0.1520 -1.4579
    8SAPS   C13  938   2.419   6.298  11.165 -0.0315  0.2250 -0.0424
    8SAPS  O13A  939   2.542   6.301  11.143  0.1656 -0.4537  0.5898
    8SAPS  O13B  940   2.368   6.361  11.260  0.4953  0.3663 -0.2394
    8SAPS   C11  941   2.234   6.287  10.991 -0.3186  0.4904  0.5546
    8SAPS  H11A  942   2.285   6.343  10.910  2.0902 -1.1242  0.8638
    8SAPS  H11B  943   2.186   6.357  11.064 -0.8229 -0.5896  1.2862
    8SAPS     P  944   1.996   6.168  11.003  0.0470  0.3231 -0.1749
    8SAPS   O13  945   1.954   6.026  11.003 -0.6232  0.4058 -0.4431
    8SAPS   O14  946   1.983   6.245  11.127 -0.1111 -0.2269  0.3340
    8SAPS   O12  947   2.136   6.192  10.937 -0.0960 -0.1748 -0.2887
    8SAPS   O11  948   1.896   6.234  10.904  0.2628  0.4681 -0.0167
    8SAPS    C1  949   1.925   6.314  10.787 -0.2381  0.5739 -0.3986
    8SAPS    HA  950   1.850   6.395  10.773 -1.0909 -0.0297  0.5766
    8SAPS    HB  951   2.019   6.368  10.810 -0.0811 -0.2177  0.9242
    8SAPS    C2  952   1.943   6.232  10.650  0.3053 -0.2088 -0.3824
    8SAPS    HS  953   1.947   6.312  10.574 -0.0337  1.0223  0.8555
    8SAPS   O21  954   1.835   6.139  10.629 -0.2529 -0.3998  0.6325
    8SAPS   C21  955   1.715   6.192  10.595  0.4239 -0.2955 -0.4206
    8SAPS   O22  956   1.693   6.311  10.585  0.5327 -0.8250 -0.0700
    8SAPS   C22  957   1.619   6.075  10.567  0.0477 -0.1946  0.1572
    8SAPS   H2R  958   1.668   5.988  10.617  0.0857  1.5439  3.4190
    8SAPS   H2S  959   1.522   6.086  10.620  0.5981  0.8015  0.9975
    8SAPS    C3  960   2.078   6.161  10.646 -0.0870  0.6384 -0.1500
    8SAPS    HX  961   2.076   6.071  10.711  1.4806  0.2619 -0.5906
    8SAPS    HY  962   2.155   6.223  10.696 -0.3845 -0.2044  1.4067
    8SAPS   O31  963   2.117   6.131  10.507 -0.7441 -0.3938 -0.2581
    8SAPS   C31  964   2.186   6.020  10.503  0.5548  0.0617  0.4804
    8SAPS   O32  965   2.218   5.952  10.593 -0.3366  0.1866 -0.3323
    8SAPS   C32  966   2.206   5.985  10.350  0.3512 -0.7823  0.3517
    8SAPS   H2X  967   2.295   6.038  10.310  0.0249 -0.3025  0.2538
    8SAPS   H2Y  968   2.127   6.033  10.288  0.1094 -0.1064  1.1602
    8SAPS   C23  969   1.592   6.057  10.412 -1.4050 -0.2843 -0.5701
    8SAPS   H3R  970   1.570   5.949  10.398 -0.2139 -0.5553 -0.4624
    8SAPS   H3S  971   1.687   6.075  10.357  1.1515 -0.0039  3.5039
    8SAPS   C24  972   1.469   6.138  10.365 -0.4035 -0.0292 -0.3056
    8SAPS   H4R  973   1.467   6.243  10.401  0.4820 -0.7407  1.9518
    8SAPS   H4S  974   1.379   6.087  10.407 -1.4021  1.5168 -0.4949
    8SAPS   C25  975   1.468   6.137  10.218 -0.2671  0.3249  0.6937
    8SAPS   H5R  976   1.401   6.060  10.176 -1.4636  1.3248  0.7151
    8SAPS   C26  977   1.546   6.212  10.135 -0.6158  0.8101 -0.3396
    8SAPS   H6R  978   1.537   6.189  10.028 -2.4666 -3.5480  0.5383
    8SAPS   C27  979   1.653   6.317  10.173 -0.1454  0.1400  0.2290
    8SAPS   H7R  980   1.751   6.276  10.139  0.5924  0.5208  1.7849
    8SAPS   H7S  981   1.662   6.320  10.284  1.3291 -2.0153  0.2363
    8SAPS   C28  982   1.641   6.463  10.135 -0.6435 -0.4529 -0.4975
    8SAPS   H8R  983   1.617   6.528  10.221  0.4222 -1.9609  1.0101
    8SAPS   C29  984   1.642   6.510  10.015  0.2355 -0.2376  0.3287
    8SAPS   H9R  985   1.627   6.611   9.974  1.7847 -0.9460 -2.2331
    8SAPS  C210  986   1.677   6.426   9.891 -0.1596 -0.2768  0.3590
    8SAPS  H10R  987   1.590   6.420   9.822  0.1621  0.2533 -0.0923
    8SAPS  H10S  988   1.716   6.323   9.909 -1.3756 -0.4037  2.6496
    8SAPS  C211  989   1.783   6.504   9.815  0.5801 -0.9179  0.3951
    8SAPS  H11R  990   1.853   6.562   9.877  2.1202 -1.3779 -0.8374
    8SAPS  C212  991   1.805   6.497   9.683  0.1968 -0.7990 -0.8796
    8SAPS  H12R  992   1.881   6.562   9.637  0.0388  0.7164  0.8728
    8SAPS  C213  993   1.742   6.424   9.574 -0.0868 -0.0675  0.6290
    8SAPS  H13R  994   1.690   6.487   9.499 -1.0555 -2.9184 -1.2484
    8SAPS  H13S  995   1.657   6.364   9.613  0.4948 -0.1402  1.8218
    8SAPS  C214  996   1.838   6.321   9.508  0.3365 -0.1173  0.1050
    8SAPS  H14R  997   1.874   6.239   9.572  0.5987 -0.4799 -0.5084
    8SAPS  C215  998   1.880   6.322   9.379 -0.8064  1.3162  0.2357
    8SAPS  H15R  999   1.962   6.250   9.363 -0.7613  1.4532 -0.1539
    8SAPS  C216 1000   1.831   6.428   9.278  0.2233  0.9857 -0.1891
    8SAPS  H16R 1001   1.891   6.520   9.295  1.6538 -0.2822  2.2015
    8SAPS  H16S 1002   1.723   6.454   9.290 -0.1713  0.7031 -2.5954
    8SAPS  C217 1003   1.844   6.393   9.126  0.3941 -0.0478 -0.2431
    8SAPS  H17R 1004   1.821   6.490   9.078 -0.7878 -0.6937 -1.0314
    8SAPS  H17S 1005   1.758   6.326   9.101 -0.7557  0.4906  1.9322
    8SAPS  C218 1006   1.981   6.347   9.083  0.5097  0.5697 -0.2324
    8SAPS  H18R 1007   1.980   6.355   8.972  0.1866  0.1811 -0.2584
    8SAPS  H18S 1008   1.991   6.239   9.103 -0.7815  0.7209  1.4613
    8SAPS  C219 1009   2.099   6.430   9.129 -0.4487 -0.2660 -0.1449
    8SAPS  H19R 1010   2.102   6.450   9.239 -0.3327 -3.7180  0.5958
    8SAPS  H19S 1011   2.109   6.534   9.091 -0.0389 -0.2152  0.0900
    8SAPS  C220 1012   2.225   6.350   9.094 -0.1944 -0.2109 -0.0038
    8SAPS  H20R 1013   2.213   6.248   9.136  0.8656  0.7313  2.7735
    8SAPS  H20S 1014   2.317   6.397   9.133  1.0020 -2.2786 -0.1808
    8SAPS  H20T 1015   2.217   6.360   8.983 -0.7489  0.8122  0.1211
    8SAPS   C33 1016   2.212   5.835  10.320  0.0090  0.0217  1.0352
    8SAPS   H3X 1017   2.133   5.803  10.249 -0.3989  2.6681  0.2026
    8SAPS   H3Y 1018   2.204   5.781  10.417 -0.1012 -1.8374  0.0321
    8SAPS   C34 1019   2.345   5.799  10.255  0.3171 -0.4011 -0.1093
    8SAPS   H4X 1020   2.360   5.689  10.254  0.3197 -0.3996 -0.1926
    8SAPS   H4Y 1021   2.422   5.850  10.317 -1.2951  0.7020  1.0633
    8SAPS   C35 1022   2.359   5.861  10.116 -0.3228  0.2782  0.2325
    8SAPS   H5X 1023   2.331   5.969  10.116 -4.5935 -0.6520  2.0077
    8SAPS   H5Y 1024   2.288   5.828  10.038  1.2128  1.9417 -2.0098
    8SAPS   C36 1025   2.495   5.828  10.050 -1.0234  0.5692 -0.4023
    8SAPS   H6X 1026   2.491   5.718  10.036  0.7194  0.6225 -1.5603
    8SAPS   H6Y 1027   2.581   5.849  10.117 -0.3061  0.8239 -1.3696
    8SAPS   C37 1028   2.527   5.903   9.911  0.2293  0.4772  0.2603
    8SAPS   H7X 1029   2.538   6.010   9.938  0.1853  0.1200  1.7682
    8SAPS   H7Y 1030   2.436   5.878   9.852  2.5446 -1.9040 -2.6144
    8SAPS   C38 1031   2.645   5.849   9.831  0.0160 -0.6277  0.6410
    8SAPS   H8X 1032   2.624   5.743   9.804 -1.1293 -0.1287 -0.5285
    8SAPS   H8Y 1033   2.735   5.836   9.894 -0.0368 -2.6336  0.3887
    8SAPS   C39 1034   2.702   5.934   9.711 -0.1011  0.4312 -0.3631
    8SAPS   H9X 1035   2.739   6.033   9.746 -1.1882  0.3684  1.0395
    8SAPS   H9Y 1036   2.617   5.940   9.640  0.8505 -0.0956 -1.5913
    8SAPS  C310 1037   2.813   5.868   9.637 -0.2386 -0.4337  0.2506
    8SAPS  H10X 1038   2.789   5.760   9.631 -1.6320 -0.1259 -0.2276
    8SAPS  H10Y 1039   2.902   5.859   9.703 -0.2411 -1.3111  0.1467
    8SAPS  C311 1040   2.839   5.924   9.503 -0.7503 -0.4596 -0.1419
    8SAPS  H11X 1041   2.862   6.032   9.519 -2.4095  0.0486 -0.8701
    8SAPS  H11Y 1042   2.749   5.925   9.438  0.3405  1.0243 -1.7268
    8SAPS  C312 1043   2.953   5.849   9.430 -0.5916  0.1897 -0.3843
    8SAPS  H12X 1044   2.914   5.747   9.408  0.9941 -1.4243  3.3991
    8SAPS  H12Y 1045   3.026   5.837   9.513 -0.9484  2.1171  0.2568
    8SAPS  C313 1046   3.021   5.919   9.306  0.1589  1.3000 -1.0344
    8SAPS  H13X 1047   3.116   5.862   9.294 -1.4831 -2.0300  0.2778
    8SAPS  H13Y 1048   3.044   6.025   9.331  0.4305  1.0203 -0.0226
    8SAPS  C314 1049   2.929   5.911   9.181  0.1244  0.1086 -0.5004
    8SAPS  H14X 1050   2.970   5.988   9.112 -0.0896  0.9996  0.3372
    8SAPS  H14Y 1051   2.824   5.926   9.212  0.8126 -1.0577  2.8670
    8SAPS  C315 1052   2.933   5.768   9.117  0.3621 -0.6021 -0.6948
    8SAPS  H15X 1053   2.853   5.705   9.160 -1.0295  1.7182  0.3309
    8SAPS  H15Y 1054   3.027   5.716   9.145 -0.4064 -0.7920  1.7706
    8SAPS  C316 1055   2.920   5.765   8.963 -0.0457 -0.3785  0.1289
    8SAPS  H16X 1056   2.997   5.826   8.911  0.9544 -3.3301 -2.1279
    8SAPS  H16Y 1057   2.830   5.820   8.929 -0.1653  1.6040  3.2806
    8SAPS  C317 1058   2.936   5.619   8.908  0.3017 -0.2426 -0.1987
    8SAPS  H17X 1059   3.035   5.595   8.952 -0.3789 -2.3900  0.3038
    8SAPS  H17Y 1060   2.956   5.633   8.800 -0.9450  2.3652 -0.1770
    8SAPS  C318 1061   2.832   5.519   8.933  1.2239 -0.0572 -0.3942
    8SAPS  H18X 1062   2.869   5.417   8.908  1.8710 -0.0907  0.6357
    8SAPS  H18Y 1063   2.745   5.538   8.867 -0.1785  1.2559  1.7418
    8SAPS  H18Z 1064   2.800   5.504   9.038  1.0585 -0.7569 -0.5392
    9SAPS     N 1065   4.470   4.014   6.486 -0.2903  0.5427 -0.0436
    9SAPS   HN1 1066   4.420   4.102   6.508  0.4959  1.3142 -1.2234
    9SAPS   HN2 1067   4.404   3.939   6.515 -1.4487  1.9712  1.1659
    9SAPS   HN3 1068   4.565   4.008   6.528 -0.5376 -0.8600  0.3668
    9SAPS   C12 1069   4.491   4.011   6.338 -0.1587 -0.0729 -0.1129
    9SAPS  H12A 1070   4.397   4.000   6.286 -0.1449 -0.4556 -0.0615
    9SAPS   C13 1071   4.553   4.134   6.279 -0.5814  0.3589 -0.3535
    9SAPS  O13A 1072   4.616   4.224   6.346  0.9949 -0.1162 -0.0670
    9SAPS  O13B 1073   4.543   4.147   6.149  0.1765 -0.3359  0.2370
    9SAPS   C11 1074   4.588   3.894   6.297  0.1164 -0.2738  0.3070
    9SAPS  H11A 1075   4.691   3.910   6.336  0.6076  1.8081 -1.6622
    9SAPS  H11B 1076   4.608   3.905   6.189  1.8532 -1.3587  0.4740
    9SAPS     P 1077   4.611   3.668   6.422 -0.0744 -0.1471 -0.0874
    9SAPS   O13 1078   4.509   3.566   6.461 -0.0066  0.0517  0.3413
    9SAPS   O14 1079   4.734   3.615   6.350 -0.7410  0.0126  0.9775
    9SAPS   O12 1080   4.543   3.764   6.321  0.7388  0.3204 -0.3781
    9SAPS   O11 1081   4.652   3.760   6.542  0.4979  0.4099  0.5318
    9SAPS    C1 1082   4.612   3.741   6.675 -0.0390 -0.1382 -0.1575
    9SAPS    HA 1083   4.616   3.845   6.715  0.4172 -0.9700  2.1223
    9SAPS    HB 1084   4.509   3.700   6.679 -1.0722  2.2071 -0.8417
    9SAPS    C2 1085   4.707   3.650   6.762  0.8079  0.0740 -0.8810
    9SAPS    HS 1086   4.669   3.670   6.863  0.2520 -1.1490 -0.8243
    9SAPS   O21 1087   4.843   3.690   6.745 -0.1256  0.1322  0.3888
    9SAPS   C21 1088   4.877   3.805   6.801  0.2424  1.2475  0.9016
    9SAPS   O22 1089   4.805   3.885   6.861 -0.4870 -0.1115  0.1638
    9SAPS   C22 1090   5.033   3.805   6.801  0.2404 -0.4333  0.1999
    9SAPS   H2R 1091   5.067   3.725   6.869 -2.2848  0.9048  3.2831
    9SAPS   H2S 1092   5.066   3.788   6.696  0.5322  0.2532  0.1745
    9SAPS    C3 1093   4.701   3.492   6.742 -0.1058 -0.2805 -0.3077
    9SAPS    HX 1094   4.720   3.473   6.635  0.2036  1.4720 -0.5794
    9SAPS    HY 1095   4.593   3.474   6.761 -0.0820  2.3623  3.6561
    9SAPS   O31 1096   4.798   3.416   6.821 -0.1227  0.5415 -0.6325
    9SAPS   C31 1097   4.923   3.420   6.781 -0.1143  0.9519  0.0192
    9SAPS   O32 1098   4.958   3.467   6.674  0.1847  0.2786 -0.4362
    9SAPS   C32 1099   5.007   3.331   6.857  0.6430  0.0162 -0.2003
    9SAPS   H2X 1100   5.079   3.269   6.799  0.8937  0.3655 -0.2714
    9SAPS   H2Y 1101   4.944   3.264   6.919 -0.6824 -0.8801 -2.4236
    9SAPS   C23 1102   5.074   3.940   6.851  0.3512 -0.2154  0.3221
    9SAPS   H3R 1103   5.003   4.019   6.818  1.0735  0.6477  0.8071
    9SAPS   H3S 1104   5.168   3.968   6.799 -0.4701  0.3713 -0.8993
    9SAPS   C24 1105   5.094   3.937   7.003  0.8642  0.1395  0.5321
    9SAPS   H4R 1106   5.171   3.861   7.026 -0.0718 -0.7504  0.7871
    9SAPS   H4S 1107   4.996   3.910   7.049  0.3526 -0.1839 -0.6907
    9SAPS   C25 1108   5.135   4.073   7.057  0.7376 -0.3236 -0.4524
    9SAPS   H5R 1109   5.190   4.137   6.986  0.4859  0.3729 -0.0286
    9SAPS   C26 1110   5.114   4.125   7.178  0.1615 -0.0046  0.0904
    9SAPS   H6R 1111   5.146   4.230   7.186 -0.1512 -0.0080  1.7725
    9SAPS   C27 1112   5.045   4.069   7.302  0.1118  1.0457  0.2345
    9SAPS   H7R 1113   5.067   3.960   7.304  1.7304  1.2338 -2.6993
    9SAPS   H7S 1114   4.936   4.092   7.301  0.2374  2.1275  2.8751
    9SAPS   C28 1115   5.088   4.143   7.433  0.1381  0.6354  1.0192
    9SAPS   H8R 1116   5.141   4.239   7.417  4.2955 -1.4191  1.0802
    9SAPS   C29 1117   5.074   4.084   7.561 -1.3293  0.2000  0.5433
    9SAPS   H9R 1118   5.117   4.147   7.640 -0.4118  0.4604 -0.1472
    9SAPS  C210 1119   5.005   3.950   7.591  0.1119  0.0555 -0.2088
    9SAPS  H10R 1120   5.070   3.860   7.596  1.5064  0.9580 -1.5019
    9SAPS  H10S 1121   4.944   3.918   7.504 -1.5107  1.0593  0.5092
    9SAPS  C211 1122   4.899   3.953   7.701  0.3068 -0.7146 -0.2849
    9SAPS  H11R 1123   4.802   4.002   7.687  1.0794  0.9485  0.0113
    9SAPS  C212 1124   4.923   3.905   7.824  0.4596 -0.0237 -0.4514
    9SAPS  H12R 1125   4.840   3.914   7.895  0.6450  2.0475 -0.4463
    9SAPS  C213 1126   5.046   3.845   7.880  0.1994  0.6204  0.6404
    9SAPS  H13R 1127   5.133   3.892   7.830  0.7701  0.7100  1.6928
    9SAPS  H13S 1128   5.050   3.738   7.848 -0.8168  1.1703 -1.5067
    9SAPS  C214 1129   5.079   3.853   8.029  0.5419  0.3231  0.4540
    9SAPS  H14R 1130   5.072   3.757   8.083 -1.5081  0.2661  0.1581
    9SAPS  C215 1131   5.108   3.964   8.098 -0.2123 -0.6924 -0.2116
    9SAPS  H15R 1132   5.102   3.953   8.207  0.0025 -1.2440 -0.2507
    9SAPS  C216 1133   5.115   4.106   8.043 -0.2157  0.5699  0.0951
    9SAPS  H16R 1134   5.054   4.123   7.952  0.2059  1.9176  0.0377
    9SAPS  H16S 1135   5.220   4.128   8.013  0.0634  0.6304  1.0713
    9SAPS  C217 1136   5.059   4.213   8.132 -0.4296  0.6878 -0.0210
    9SAPS  H17R 1137   4.954   4.191   8.159  0.0583 -2.9147 -0.5602
    9SAPS  H17S 1138   5.060   4.309   8.076 -1.2108 -0.2549 -1.7220
    9SAPS  C218 1139   5.141   4.225   8.263  0.5820 -0.3210  0.3851
    9SAPS  H18R 1140   5.249   4.210   8.241  0.8182  2.4264 -0.8356
    9SAPS  H18S 1141   5.111   4.150   8.339 -0.7714 -0.9668 -0.7518
    9SAPS  C219 1142   5.146   4.368   8.326 -0.0846 -0.1248  0.0683
    9SAPS  H19R 1143   5.046   4.417   8.334  1.2557  2.5872  1.7052
    9SAPS  H19S 1144   5.207   4.432   8.259 -0.9582 -1.2021 -1.8563
    9SAPS  C220 1145   5.203   4.361   8.470 -0.3222  1.1661 -0.3897
    9SAPS  H20R 1146   5.218   4.461   8.516  2.3774  0.4962  0.3586
    9SAPS  H20S 1147   5.306   4.320   8.474 -0.8119 -0.0273  2.8620
    9SAPS  H20T 1148   5.145   4.297   8.539  1.3929 -0.9436 -0.8042
    9SAPS   C33 1149   5.102   3.417   6.941  0.4839  0.3293 -0.5235
    9SAPS   H3X 1150   5.164   3.491   6.885  1.8429 -0.3430  0.0262
    9SAPS   H3Y 1151   5.174   3.347   6.988 -0.9716 -1.2754 -0.6089
    9SAPS   C34 1152   5.022   3.489   7.054 -0.1238  0.2808 -0.2245
    9SAPS   H4X 1153   4.976   3.407   7.114  2.4463 -1.2833 -0.2346
    9SAPS   H4Y 1154   4.943   3.557   7.017 -0.9788  0.8729  2.5073
    9SAPS   C35 1155   5.114   3.567   7.153  0.2472 -0.6374  0.3816
    9SAPS   H5X 1156   5.172   3.641   7.093 -1.6232  2.7052  2.3947
    9SAPS   H5Y 1157   5.185   3.494   7.197 -0.4883 -1.3755  0.3589
    9SAPS   C36 1158   5.034   3.651   7.261 -0.1207  0.1949  0.6767
    9SAPS   H6X 1159   4.946   3.695   7.209  1.5028  0.3117 -2.1574
    9SAPS   H6Y 1160   5.104   3.730   7.294  1.2974 -0.6170 -0.2789
    9SAPS   C37 1161   4.985   3.554   7.369 -0.1423 -0.6506  0.2626
    9SAPS   H7X 1162   5.071   3.494   7.405 -0.3446  0.4537  2.7449
    9SAPS   H7Y 1163   4.915   3.490   7.312  1.1105  0.2084 -2.4552
    9SAPS   C38 1164   4.920   3.602   7.498  0.0557 -0.0471  0.9489
    9SAPS   H8X 1165   4.839   3.673   7.473  0.5601 -0.3584 -1.8550
    9SAPS   H8Y 1166   4.992   3.661   7.559 -0.1304  2.0340 -0.7469
    9SAPS   C39 1167   4.854   3.490   7.584 -0.5512 -0.3318  0.2500
    9SAPS   H9X 1168   4.945   3.432   7.612 -0.1146 -0.1889 -0.7943
    9SAPS   H9Y 1169   4.774   3.435   7.529 -1.7462 -0.3344  1.9304
    9SAPS  C310 1170   4.787   3.556   7.701 -0.1688 -0.2414  0.3367
    9SAPS  H10X 1171   4.712   3.627   7.659  0.1486 -0.4941 -0.6785
    9SAPS  H10Y 1172   4.867   3.617   7.748  0.4427 -0.9311  0.2033
    9SAPS  C311 1173   4.716   3.450   7.790  0.2283  0.4295  0.1280
    9SAPS  H11X 1174   4.791   3.371   7.813  1.8561  1.7007 -0.6169
    9SAPS  H11Y 1175   4.641   3.397   7.728  2.3774 -2.2377 -0.3911
    9SAPS  C312 1176   4.640   3.510   7.916 -0.4833  0.5853  0.6498
    9SAPS  H12X 1177   4.587   3.421   7.957 -1.3320  1.1174  0.7264
    9SAPS  H12Y 1178   4.563   3.577   7.874  0.0821 -1.0219 -3.3962
    9SAPS  C313 1179   4.726   3.578   8.026  0.0350 -0.6646 -0.0433
    9SAPS  H13X 1180   4.788   3.660   7.984 -1.0805  0.6924  0.8584
    9SAPS  H13Y 1181   4.797   3.499   8.057 -0.7886 -1.4058  0.0028
    9SAPS  C314 1182   4.644   3.628   8.153  0.0024  0.3343  0.3542
    9SAPS  H14X 1183   4.575   3.544   8.173  0.2769 -0.5314 -2.0177
    9SAPS  H14Y 1184   4.582   3.716   8.125 -0.9217  0.4573  2.5539
    9SAPS  C315 1185   4.732   3.656   8.284  0.2802  0.5746 -0.4671
    9SAPS  H15X 1186   4.823   3.713   8.258  0.3022  0.6410 -0.2431
    9SAPS  H15Y 1187   4.766   3.558   8.323 -1.1258  0.8821  1.7102
    9SAPS  C316 1188   4.651   3.733   8.391  0.8019 -0.1347  0.2042
    9SAPS  H16X 1189   4.616   3.829   8.347 -0.3968 -0.9468 -0.6875
    9SAPS  H16Y 1190   4.710   3.759   8.481 -1.4027  1.5330  1.2572
    9SAPS  C317 1191   4.529   3.651   8.436 -0.2545 -0.5405  1.2213
    9SAPS  H17X 1192   4.563   3.560   8.489 -2.1106 -2.2953 -0.4562
    9SAPS  H17Y 1193   4.471   3.608   8.352  2.0852  1.1432 -1.4618
    9SAPS  C318 1194   4.441   3.731   8.531  0.5320 -0.2541 -0.1344
    9SAPS  H18X 1195   4.365   3.672   8.586  0.4188 -0.3733 -0.4137
    9SAPS  H18Y 1196   4.402   3.819   8.475  1.2426  1.3348  1.7494
    9SAPS  H18Z 1197   4.506   3.766   8.614  0.2015  1.5684 -0.5978
   10SAPS     N 1198   4.523   3.278   6.455 -0.0997  0.0865  0.2224
   10SAPS   HN1 1199   4.472   3.368   6.453 -1.0179 -0.4346 -1.2667
   10SAPS   HN2 1200   4.523   3.235   6.550  1.5370  0.3840  0.3886
   10SAPS   HN3 1201   4.620   3.299   6.424  0.0039 -2.7214 -1.6752
   10SAPS   C12 1202   4.445   3.209   6.344  0.8338 -0.5757  0.4327
   10SAPS  H12A 1203   4.347   3.176   6.375  1.1453 -1.8684  0.1036
   10SAPS   C13 1204   4.429   3.285   6.212  0.1593 -0.5342 -0.1482
   10SAPS  O13A 1205   4.477   3.400   6.182 -0.0377  0.0038 -0.2674
   10SAPS  O13B 1206   4.343   3.232   6.131  0.2192  0.1366  0.3777
   10SAPS   C11 1207   4.536   3.085   6.301  0.0838  0.9427  0.5160
   10SAPS  H11A 1208   4.641   3.117   6.286  0.9785 -2.6202 -2.3196
   10SAPS  H11B 1209   4.501   3.034   6.209  1.9051  0.0348  0.2604
   10SAPS     P 1210   4.624   2.859   6.384  0.0930  0.1301 -0.1491
   10SAPS   O13 1211   4.584   2.807   6.248 -0.2056 -0.1270  0.0643
   10SAPS   O14 1212   4.768   2.882   6.407 -0.4067  0.1934 -0.2964
   10SAPS   O12 1213   4.536   2.991   6.411 -0.3979  0.3594 -0.8044
   10SAPS   O11 1214   4.574   2.758   6.493 -0.6053  0.0919  0.2272
   10SAPS    C1 1215   4.624   2.770   6.627  0.0665 -0.7631 -0.2870
   10SAPS    HA 1216   4.672   2.870   6.642  0.3053 -0.7620 -1.0178
   10SAPS    HB 1217   4.541   2.759   6.699  0.8104 -2.3483  0.3760
   10SAPS    C2 1218   4.733   2.664   6.653  1.6945 -0.0889  0.0788
   10SAPS    HS 1219   4.797   2.664   6.562 -1.3554  0.0961 -2.2168
   10SAPS   O21 1220   4.657   2.544   6.690  0.0767 -0.8402 -0.1436
   10SAPS   C21 1221   4.654   2.457   6.585  0.1438  0.8247 -0.4547
   10SAPS   O22 1222   4.692   2.471   6.474  0.1399 -0.2523  0.5145
   10SAPS   C22 1223   4.601   2.328   6.648 -0.2866  0.5790 -0.5855
   10SAPS   H2R 1224   4.559   2.353   6.747 -0.0792  0.6702 -0.5196
   10SAPS   H2S 1225   4.516   2.302   6.581 -0.6146 -2.5597  0.8884
   10SAPS    C3 1226   4.830   2.702   6.771  0.0135  0.5339  0.3354
   10SAPS    HX 1227   4.897   2.614   6.786  1.1840  1.3541  0.0358
   10SAPS    HY 1228   4.773   2.721   6.864 -0.0314  1.7222  0.0804
   10SAPS   O31 1229   4.900   2.823   6.753  0.1875 -0.0307  0.2511
   10SAPS   C31 1230   5.027   2.823   6.726 -0.6364  0.4925 -0.5644
   10SAPS   O32 1231   5.094   2.720   6.712  0.2576 -0.5145 -0.3855
   10SAPS   C32 1232   5.068   2.972   6.712 -0.5468  0.7612  0.2101
   10SAPS   H2X 1233   4.987   3.033   6.757 -0.5121  0.1006  1.1825
   10SAPS   H2Y 1234   5.074   2.996   6.603 -1.8848 -0.6585 -0.2102
   10SAPS   C23 1235   4.707   2.220   6.656 -0.3776  0.3896  0.3215
   10SAPS   H3R 1236   4.766   2.223   6.562  0.9162  2.7211  1.1113
   10SAPS   H3S 1237   4.652   2.124   6.653 -0.0847  0.2295 -0.0286
   10SAPS   C24 1238   4.810   2.223   6.775 -0.2093 -0.3235  0.4367
   10SAPS   H4R 1239   4.847   2.121   6.798  3.2918  1.2310  2.4552
   10SAPS   H4S 1240   4.752   2.255   6.864  1.5879  1.1839  1.1369
   10SAPS   C25 1241   4.938   2.301   6.764  0.1376 -0.2792  0.1359
   10SAPS   H5R 1242   4.974   2.300   6.660 -3.1148  1.7005 -1.1680
   10SAPS   C26 1243   5.011   2.352   6.858 -0.6997  0.6072  0.5038
   10SAPS   H6R 1244   5.096   2.413   6.824  1.1066 -2.4253 -0.9044
   10SAPS   C27 1245   4.984   2.340   7.003 -0.5010 -0.9445  0.5605
   10SAPS   H7R 1246   5.088   2.329   7.042 -0.3568  1.1433  0.8884
   10SAPS   H7S 1247   4.923   2.250   7.024 -2.5650 -0.0308 -1.1338
   10SAPS   C28 1248   4.903   2.458   7.058  0.2597  0.5403  0.3524
   10SAPS   H8R 1249   4.794   2.441   7.056  0.3487 -0.4182  2.1316
   10SAPS   C29 1250   4.944   2.563   7.126 -0.2665  0.3973 -0.0410
   10SAPS   H9R 1251   4.872   2.641   7.154 -1.6585 -0.4521 -1.1252
   10SAPS  C210 1252   5.090   2.592   7.149 -0.7424 -0.6695  0.1700
   10SAPS  H10R 1253   5.101   2.702   7.163  0.1299 -0.2849 -2.8211
   10SAPS  H10S 1254   5.151   2.574   7.058 -1.0654 -0.0882 -0.1697
   10SAPS  C211 1255   5.141   2.501   7.259  0.4554 -0.4172  0.3373
   10SAPS  H11R 1256   5.172   2.403   7.221  0.0985 -0.1944 -0.5579
   10SAPS  C212 1257   5.159   2.545   7.387 -0.4976  0.1500 -0.3391
   10SAPS  H12R 1258   5.194   2.470   7.460  1.8331  0.9008 -0.6030
   10SAPS  C213 1259   5.120   2.672   7.459  0.7317  0.0203 -0.1447
   10SAPS  H13R 1260   5.034   2.653   7.527 -0.1426  0.4283 -1.1217
   10SAPS  H13S 1261   5.070   2.736   7.384  0.0072  0.0734  0.3739
   10SAPS  C214 1262   5.237   2.747   7.528  0.5802  0.3273 -0.8328
   10SAPS  H14R 1263   5.323   2.784   7.470  2.1621 -0.5692  0.8444
   10SAPS  C215 1264   5.246   2.784   7.657  0.5348 -0.2502  0.6239
   10SAPS  H15R 1265   5.345   2.822   7.684  0.4257  1.0312 -0.6942
   10SAPS  C216 1266   5.155   2.750   7.773  0.5075  0.1526 -0.1849
   10SAPS  H16R 1267   5.056   2.711   7.739 -1.4490  3.8364  0.7848
   10SAPS  H16S 1268   5.121   2.841   7.826 -0.0385 -1.2436  2.0214
   10SAPS  C217 1269   5.218   2.650   7.874  0.3394 -0.5143  0.0933
   10SAPS  H17R 1270   5.269   2.568   7.818 -0.9652 -1.5255  0.3296
   10SAPS  H17S 1271   5.139   2.597   7.931  1.2124 -0.2359  1.6148
   10SAPS  C218 1272   5.314   2.714   7.972  0.7563  0.1111 -0.4305
   10SAPS  H18R 1273   5.384   2.787   7.926  0.1695  2.8421  2.6381
   10SAPS  H18S 1274   5.375   2.636   8.023 -2.1206 -0.3766  2.6032
   10SAPS  C219 1275   5.239   2.786   8.084 -0.3230  0.8415 -0.6011
   10SAPS  H19R 1276   5.140   2.736   8.096 -0.3219  0.7972 -0.7722
   10SAPS  H19S 1277   5.209   2.881   8.035 -0.5134  1.5245  0.8080
   10SAPS  C220 1278   5.299   2.798   8.224 -1.0876 -0.5488 -0.5267
   10SAPS  H20R 1279   5.234   2.865   8.283 -1.3932 -2.2205  1.1178
   10SAPS  H20S 1280   5.400   2.845   8.218 -1.2331 -0.3390 -1.5433
   10SAPS  H20T 1281   5.304   2.702   8.279 -0.4670 -1.3618 -1.9275
   10SAPS   C33 1282   5.203   3.012   6.781  0.4695 -0.1596  0.2132
   10SAPS   H3X 1283   5.218   3.119   6.756 -1.5537  0.3625  1.0394
   10SAPS   H3Y 1284   5.292   2.955   6.746 -0.3932 -0.9734 -0.7167
   10SAPS   C34 1285   5.192   3.007   6.933  0.1153 -1.0039 -0.6054
   10SAPS   H4X 1286   5.123   2.923   6.953 -1.5822  0.6333  0.6935
   10SAPS   H4Y 1287   5.139   3.094   6.977 -0.2431 -0.4345 -2.0831
   10SAPS   C35 1288   5.324   2.976   6.999 -0.2159  0.4187 -0.5010
   10SAPS   H5X 1289   5.411   3.035   6.964  0.6565 -0.5306  0.0365
   10SAPS   H5Y 1290   5.348   2.870   6.980 -1.0019 -0.1265  1.2909
   10SAPS   C36 1291   5.315   2.987   7.150 -0.2287 -0.8036  0.4446
   10SAPS   H6X 1292   5.396   2.934   7.203 -2.0579 -0.4721  3.8654
   10SAPS   H6Y 1293   5.215   2.947   7.180 -0.0095 -1.6331  0.1071
   10SAPS   C37 1294   5.315   3.136   7.199  0.4811  0.1593 -0.4514
   10SAPS   H7X 1295   5.234   3.188   7.143 -0.2471  0.0959  0.5388
   10SAPS   H7Y 1296   5.416   3.179   7.178  2.0041 -1.1169  3.3567
   10SAPS   C38 1297   5.294   3.149   7.347 -0.6238 -0.1500 -0.0602
   10SAPS   H8X 1298   5.199   3.098   7.376 -0.8500  0.1958 -0.1927
   10SAPS   H8Y 1299   5.289   3.254   7.383 -3.1357 -0.6164  1.2467
   10SAPS   C39 1300   5.405   3.093   7.438 -0.0442 -0.8815  0.4298
   10SAPS   H9X 1301   5.495   3.144   7.398 -0.6617 -0.5332 -0.5269
   10SAPS   H9Y 1302   5.407   2.983   7.419  0.3875 -0.2585 -4.1853
   10SAPS  C310 1303   5.378   3.123   7.584  0.6633 -0.0177 -0.6481
   10SAPS  H10X 1304   5.290   3.061   7.610  0.4128  0.5499 -0.0883
   10SAPS  H10Y 1305   5.350   3.231   7.585  2.1002  0.4101  1.4502
   10SAPS  C311 1306   5.485   3.096   7.686 -0.1694  0.5545 -0.2372
   10SAPS  H11X 1307   5.581   3.146   7.659 -0.8214  2.1472  0.3033
   10SAPS  H11Y 1308   5.489   2.988   7.711 -1.9373 -0.2877 -3.0819
   10SAPS  C312 1309   5.440   3.155   7.820 -0.2088 -0.3254 -0.1742
   10SAPS  H12X 1310   5.336   3.122   7.840 -0.2857 -0.4596 -0.7973
   10SAPS  H12Y 1311   5.436   3.266   7.811  0.4989 -0.3703 -1.1329
   10SAPS  C313 1312   5.536   3.125   7.938  0.8220  0.5933 -0.2782
   10SAPS  H13X 1313   5.623   3.193   7.930  0.0051  1.9195  1.4925
   10SAPS  H13Y 1314   5.569   3.019   7.943  1.4372  0.8178  0.7425
   10SAPS  C314 1315   5.475   3.147   8.072  0.2460 -0.2046  0.1069
   10SAPS  H14X 1316   5.393   3.078   8.102 -0.2376  0.4515  0.3197
   10SAPS  H14Y 1317   5.425   3.246   8.071  0.8479  0.1521  1.8436
   10SAPS  C315 1318   5.576   3.134   8.188  0.7881 -0.1055  0.9132
   10SAPS  H15X 1319   5.639   3.225   8.195 -0.1721  0.6405  0.0746
   10SAPS  H15Y 1320   5.637   3.043   8.171  0.0639 -0.0442 -2.8299
   10SAPS  C316 1321   5.501   3.144   8.322  0.0043  0.0089  0.0454
   10SAPS  H16X 1322   5.427   3.061   8.326  2.3816 -2.2395  0.0151
   10SAPS  H16Y 1323   5.453   3.243   8.334  2.3990  1.1646  0.6268
   10SAPS  C317 1324   5.602   3.130   8.438 -0.0244  0.0367  0.5428
   10SAPS  H17X 1325   5.688   3.196   8.413  0.6825 -0.6538  1.0996
   10SAPS  H17Y 1326   5.630   3.023   8.429  0.0061  0.1958 -6.0335
   10SAPS  C318 1327   5.531   3.164   8.565  0.6459 -0.1138 -0.6588
   10SAPS  H18X 1328   5.583   3.149   8.662 -1.6790 -2.7878  0.3283
   10SAPS  H18Y 1329   5.433   3.112   8.565  1.2392 -1.2716  0.2897
   10SAPS  H18Z 1330   5.503   3.272   8.562  0.8459 -0.0822 -1.8607
   11SAPS     N 1331   0.875   3.731   6.116 -0.2874 -0.0207  0.3943
   11SAPS   HN1 1332   0.779   3.692   6.125  0.2954 -2.1840 -1.6850
   11SAPS   HN2 1333   0.935   3.685   6.188  0.3170 -3.2973 -1.9810
   11SAPS   HN3 1334   0.874   3.834   6.132  1.0676 -0.1164  1.2918
   11SAPS   C12 1335   0.930   3.739   5.983  0.3999 -0.1942  0.3989
   11SAPS  H12A 1336   1.035   3.717   5.991  0.3113 -0.6640  0.3228
   11SAPS   C13 1337   0.872   3.646   5.867 -0.6516  0.3416 -0.3597
   11SAPS  O13A 1338   0.783   3.560   5.893 -0.4295 -0.0351  0.5157
   11SAPS  O13B 1339   0.903   3.674   5.749 -0.1182 -0.2897  0.5850
   11SAPS   C11 1340   0.918   3.889   5.940 -0.1645 -0.3023 -0.6800
   11SAPS  H11A 1341   0.809   3.906   5.923 -0.8217 -1.1760  2.2294
   11SAPS  H11B 1342   0.985   3.906   5.853  1.6756  0.8921  0.8967
   11SAPS     P 1343   0.965   4.129   6.013  0.2241  0.1367 -0.0811
   11SAPS   O13 1344   1.057   4.171   5.909  0.0076 -0.1022  0.1994
   11SAPS   O14 1345   0.823   4.165   5.989 -0.3752 -0.0786 -0.0805
   11SAPS   O12 1346   0.976   3.974   6.042  0.3165  0.2952  0.4954
   11SAPS   O11 1347   0.998   4.210   6.147 -0.1652  0.4808  0.1591
   11SAPS    C1 1348   1.045   4.153   6.265  0.1319  0.3443 -0.0210
   11SAPS    HA 1349   1.017   4.046   6.265 -0.2806  0.4385  1.1340
   11SAPS    HB 1350   1.155   4.167   6.260  0.0125  1.3337 -0.1511
   11SAPS    C2 1351   0.989   4.204   6.401 -0.4809 -0.1370  0.2645
   11SAPS    HS 1352   0.882   4.175   6.402  0.0334 -2.1958  1.2829
   11SAPS   O21 1353   1.013   4.346   6.413 -0.1915 -0.3812  0.4792
   11SAPS   C21 1354   0.900   4.411   6.456 -0.5567 -0.8142  0.7311
   11SAPS   O22 1355   0.801   4.356   6.498 -0.1324  0.3250  0.1101
   11SAPS   C22 1356   0.905   4.560   6.418 -0.0211  0.0428  0.0828
   11SAPS   H2R 1357   0.976   4.610   6.488 -0.8314  0.4691  0.6135
   11SAPS   H2S 1358   0.952   4.576   6.318 -0.1111 -1.7766 -0.2742
   11SAPS    C3 1359   1.054   4.127   6.517 -0.8032  0.1836  0.2652
   11SAPS    HX 1360   1.159   4.162   6.528  0.0944 -2.3616  0.5892
   11SAPS    HY 1361   1.045   4.020   6.489  1.8855  0.1009 -0.5217
   11SAPS   O31 1362   0.995   4.143   6.646  0.2648 -0.2806  0.3775
   11SAPS   C31 1363   0.890   4.075   6.684  0.1764 -0.4079  0.7685
   11SAPS   O32 1364   0.830   3.990   6.622 -0.5559  0.2252 -0.1986
   11SAPS   C32 1365   0.831   4.146   6.817  0.2914 -0.2976  0.3044
   11SAPS   H2X 1366   0.902   4.224   6.852 -1.3975  0.9926  0.9544
   11SAPS   H2Y 1367   0.813   4.065   6.891 -3.2118  0.9192  0.9792
   11SAPS   C23 1368   0.767   4.631   6.408 -0.1138  0.8274 -0.4536
   11SAPS   H3R 1369   0.682   4.568   6.376 -0.8823  1.7252 -0.2075
   11SAPS   H3S 1370   0.767   4.714   6.334  1.3461  0.5849 -0.7684
   11SAPS   C24 1371   0.721   4.689   6.537  0.8094 -0.5563 -0.2225
   11SAPS   H4R 1372   0.713   4.599   6.601  1.4805 -1.3867 -1.2631
   11SAPS   H4S 1373   0.615   4.721   6.534 -0.0976 -3.0117  2.0309
   11SAPS   C25 1374   0.815   4.797   6.594 -0.5573  0.0599 -0.0008
   11SAPS   H5R 1375   0.803   4.900   6.558 -1.7167 -0.5540 -1.5007
   11SAPS   C26 1376   0.893   4.769   6.704 -0.0376  0.7782  0.6405
   11SAPS   H6R 1377   0.969   4.839   6.740  1.8912  0.0698 -1.7875
   11SAPS   C27 1378   0.899   4.638   6.778 -0.4512 -0.0515 -0.5063
   11SAPS   H7R 1379   0.878   4.550   6.715 -0.3458 -1.0305  0.7854
   11SAPS   H7S 1380   0.827   4.625   6.862 -0.5290  3.3536  0.0970
   11SAPS   C28 1381   1.043   4.629   6.832  0.7919 -0.5204 -0.5192
   11SAPS   H8R 1382   1.119   4.588   6.765  2.6653 -2.3842  2.5042
   11SAPS   C29 1383   1.084   4.669   6.953 -0.4930  0.1359  0.3731
   11SAPS   H9R 1384   1.185   4.646   6.991  0.2346  0.6661 -1.1593
   11SAPS  C210 1385   1.003   4.728   7.059 -0.2568 -0.4207  0.5770
   11SAPS  H10R 1386   0.935   4.799   7.008 -1.0976  0.7271  3.1195
   11SAPS  H10S 1387   1.071   4.796   7.114 -1.1775  1.2093 -0.2390
   11SAPS  C211 1388   0.933   4.634   7.141  0.6999 -0.0473 -0.4870
   11SAPS  H11R 1389   0.901   4.540   7.093 -2.0241  0.0398  0.9751
   11SAPS  C212 1390   0.892   4.666   7.268 -0.0071 -0.6651  0.2021
   11SAPS  H12R 1391   0.843   4.587   7.327  0.8568  0.6881  2.8911
   11SAPS  C213 1392   0.920   4.797   7.332  0.5186 -0.1211 -0.2633
   11SAPS  H13R 1393   0.935   4.872   7.251 -0.5917 -0.7742 -1.1021
   11SAPS  H13S 1394   1.013   4.807   7.392 -1.3146  1.1830  2.5485
   11SAPS  C214 1395   0.806   4.847   7.418  0.0726  0.1027 -0.1560
   11SAPS  H14R 1396   0.762   4.933   7.366  1.3271  0.5767 -0.4670
   11SAPS  C215 1397   0.763   4.805   7.537  0.1851 -0.2232 -0.2357
   11SAPS  H15R 1398   0.675   4.850   7.585  0.8929 -1.7044  2.6627
   11SAPS  C216 1399   0.833   4.696   7.614 -0.1797 -0.1082  0.4936
   11SAPS  H16R 1400   0.942   4.698   7.592 -0.1063 -1.5490  0.6331
   11SAPS  H16S 1401   0.795   4.597   7.581 -1.1979 -0.7141  3.1631
   11SAPS  C217 1402   0.808   4.689   7.766  0.0097  0.0809 -0.5147
   11SAPS  H17R 1403   0.869   4.604   7.803  0.6833  0.7623 -0.0244
   11SAPS  H17S 1404   0.701   4.672   7.789  0.7245 -1.4925  1.9978
   11SAPS  C218 1405   0.840   4.822   7.848 -0.0213 -0.5661  0.8680
   11SAPS  H18R 1406   0.751   4.887   7.833  0.8383  0.2216 -1.0410
   11SAPS  H18S 1407   0.927   4.876   7.806  1.2223 -3.5180 -0.6623
   11SAPS  C219 1408   0.857   4.802   8.004 -0.3551  0.0054  0.1502
   11SAPS  H19R 1409   0.935   4.724   8.018 -1.0442 -0.4311  1.8292
   11SAPS  H19S 1410   0.761   4.758   8.039 -1.3380  1.3901 -0.7081
   11SAPS  C220 1411   0.891   4.924   8.082 -0.8850 -0.2669 -0.7277
   11SAPS  H20R 1412   0.803   4.991   8.088 -0.3963  0.3716 -0.6001
   11SAPS  H20S 1413   0.979   4.980   8.041  0.2523 -0.5076  1.2526
   11SAPS  H20T 1414   0.918   4.899   8.186 -0.9217 -0.5508 -0.7857
   11SAPS   C33 1415   0.695   4.222   6.802 -0.6022 -0.0493  0.0478
   11SAPS   H3X 1416   0.608   4.153   6.796 -1.5603  1.0197  1.2113
   11SAPS   H3Y 1417   0.712   4.284   6.711 -0.6214 -0.3240 -0.1453
   11SAPS   C34 1418   0.661   4.300   6.933  0.0021 -0.5256  0.8973
   11SAPS   H4X 1419   0.570   4.358   6.907  0.4929 -0.3467 -0.4693
   11SAPS   H4Y 1420   0.744   4.369   6.960 -0.9191  0.6141  0.9087
   11SAPS   C35 1421   0.642   4.203   7.050 -0.1420  0.6795  0.8091
   11SAPS   H5X 1422   0.736   4.148   7.072 -0.6109 -0.4025  0.1499
   11SAPS   H5Y 1423   0.565   4.128   7.023 -0.6341  1.7054 -0.7895
   11SAPS   C36 1424   0.603   4.278   7.182  0.4745  0.1558  0.5485
   11SAPS   H6X 1425   0.502   4.321   7.169  0.1059 -0.7970  0.2248
   11SAPS   H6Y 1426   0.663   4.371   7.194  1.8415 -0.8268  1.7280
   11SAPS   C37 1427   0.614   4.189   7.310  0.0827  0.0726 -0.3074
   11SAPS   H7X 1428   0.721   4.166   7.330  0.2009  2.1046  1.8244
   11SAPS   H7Y 1429   0.557   4.096   7.289  0.6224 -0.0505 -1.3051
   11SAPS   C38 1430   0.554   4.255   7.435  0.1363  0.4267  0.8776
   11SAPS   H8X 1431   0.445   4.233   7.430 -0.1559  1.6694  1.5660
   11SAPS   H8Y 1432   0.586   4.361   7.433  3.4602 -0.4588  1.1963
   11SAPS   C39 1433   0.611   4.194   7.559 -0.2598  0.2166 -0.4093
   11SAPS   H9X 1434   0.709   4.143   7.550  0.6652  0.7657  4.1486
   11SAPS   H9Y 1435   0.544   4.106   7.572  0.6663 -0.9186 -2.8475
   11SAPS  C310 1436   0.602   4.284   7.681 -0.2234 -0.2897  0.0750
   11SAPS  H10X 1437   0.506   4.338   7.691  0.3402  0.6912  0.4058
   11SAPS  H10Y 1438   0.685   4.356   7.662 -0.3722  0.1842  1.1301
   11SAPS  C311 1439   0.625   4.216   7.818 -0.0260  0.8984 -0.2943
   11SAPS  H11X 1440   0.536   4.157   7.850  0.8598  0.3127  1.1577
   11SAPS  H11Y 1441   0.633   4.284   7.906  2.6852 -1.6792  1.6209
   11SAPS  C312 1442   0.745   4.123   7.829 -0.7915  0.0245  0.9836
   11SAPS  H12X 1443   0.844   4.175   7.824 -0.7992 -0.0994 -1.2580
   11SAPS  H12Y 1444   0.728   4.046   7.751 -1.3143  0.9374  0.1775
   11SAPS  C313 1445   0.729   4.047   7.959 -0.1857 -0.1496  0.6786
   11SAPS  H13X 1446   0.816   3.978   7.970  1.6780  2.1036  0.8973
   11SAPS  H13Y 1447   0.632   3.994   7.960 -1.2321  1.6602  1.8375
   11SAPS  C314 1448   0.741   4.128   8.094 -0.0642 -0.7035  0.1229
   11SAPS  H14X 1449   0.645   4.183   8.096 -0.5737 -1.5723  0.1438
   11SAPS  H14Y 1450   0.829   4.195   8.081 -0.0517 -1.0856 -2.3838
   11SAPS  C315 1451   0.754   4.046   8.222 -0.1719  0.2962  0.8924
   11SAPS  H15X 1452   0.844   3.985   8.198  0.8062  1.2843  1.9248
   11SAPS  H15Y 1453   0.675   3.969   8.232  0.3575 -0.1546  1.7472
   11SAPS  C316 1454   0.796   4.127   8.346  0.0326  0.0685  0.3480
   11SAPS  H16X 1455   0.716   4.197   8.381 -0.1972 -0.4929  0.9495
   11SAPS  H16Y 1456   0.869   4.203   8.312 -0.8282  1.5710  1.6799
   11SAPS  C317 1457   0.857   4.039   8.450 -0.4270  0.5017 -0.0330
   11SAPS  H17X 1458   0.901   4.111   8.522 -0.4988  0.4833  0.0275
   11SAPS  H17Y 1459   0.933   3.978   8.396 -2.1217  1.6839 -4.1627
   11SAPS  C318 1460   0.759   3.947   8.529  0.8446 -0.3233  0.4086
   11SAPS  H18X 1461   0.696   3.889   8.457  2.2473 -2.3676  0.7478
   11SAPS  H18Y 1462   0.689   3.999   8.598 -0.6666 -0.7462 -0.7398
   11SAPS  H18Z 1463   0.809   3.866   8.586 -0.0492 -2.5857 -1.8363
   12SAPS     N 1464   1.192   6.581   5.973  0.1495 -0.3940  0.7563
   12SAPS   HN1 1465   1.284   6.626   5.954  0.0513  0.0388  1.2952
   12SAPS   HN2 1466   1.188   6.574   6.077  1.5860  0.5188  0.9085
   12SAPS   HN3 1467   1.183   6.490   5.923 -4.4033  0.0800  0.3336
   12SAPS   C12 1468   1.084   6.663   5.917 -0.3230  0.1687 -0.1594
   12SAPS  H12A 1469   1.071   6.751   5.979 -0.9901  0.0895 -0.1751
   12SAPS   C13 1470   1.119   6.702   5.772  0.2384 -0.7042  0.8309
   12SAPS  O13A 1471   1.233   6.695   5.724 -0.1880  0.4261  0.7109
   12SAPS  O13B 1472   1.032   6.758   5.699  0.5519 -0.0465  0.4936
   12SAPS   C11 1473   0.945   6.587   5.937  0.7892 -0.3041 -0.1947
   12SAPS  H11A 1474   0.940   6.497   5.872 -2.0589 -1.9280  2.0155
   12SAPS  H11B 1475   0.859   6.646   5.898  1.8164  0.7787 -0.8924
   12SAPS     P 1476   0.807   6.587   6.164 -0.3229 -0.1504  0.4716
   12SAPS   O13 1477   0.828   6.730   6.188  0.2437  0.6575 -0.2520
   12SAPS   O14 1478   0.679   6.543   6.101 -0.2502  0.7983 -0.7012
   12SAPS   O12 1479   0.929   6.534   6.072  0.2616  0.0190 -0.4334
   12SAPS   O11 1480   0.832   6.506   6.295 -0.2836 -0.1468  0.2858
   12SAPS    C1 1481   0.946   6.427   6.317  0.4962  0.1062 -0.3073
   12SAPS    HA 1482   0.939   6.323   6.278 -0.5206 -0.6595  1.7787
   12SAPS    HB 1483   1.037   6.475   6.276  0.5686  1.7888  1.7127
   12SAPS    C2 1484   0.978   6.409   6.468  0.4876 -0.3777  0.1386
   12SAPS    HS 1485   1.068   6.346   6.488 -0.3402 -1.6954 -0.1438
   12SAPS   O21 1486   0.876   6.344   6.533 -0.1671  0.6392  0.6235
   12SAPS   C21 1487   0.866   6.208   6.520 -0.5229  0.2841  0.7157
   12SAPS   O22 1488   0.922   6.144   6.433  0.3140 -0.0698 -0.2238
   12SAPS   C22 1489   0.770   6.153   6.628 -0.7572  0.1760  0.2295
   12SAPS   H2R 1490   0.821   6.152   6.726  0.9522 -0.7198 -0.6142
   12SAPS   H2S 1491   0.683   6.222   6.630 -0.6376  0.4064 -1.0610
   12SAPS    C3 1492   1.001   6.538   6.557 -0.8249 -1.2081  0.0674
   12SAPS    HX 1493   0.912   6.603   6.543  0.5041  1.1504  1.8165
   12SAPS    HY 1494   1.084   6.599   6.517 -3.0082  1.0446 -1.2674
   12SAPS   O31 1495   1.020   6.511   6.695 -0.6285  0.3138 -0.5189
   12SAPS   C31 1496   0.931   6.546   6.784 -0.6627  0.0532  0.2458
   12SAPS   O32 1497   0.847   6.629   6.765 -0.3251  0.6015 -0.7974
   12SAPS   C32 1498   0.963   6.466   6.913 -0.5914  0.2680 -0.1412
   12SAPS   H2X 1499   1.064   6.504   6.939 -0.8379  0.3439  0.7158
   12SAPS   H2Y 1500   0.966   6.362   6.875  2.1517  1.1449 -2.7956
   12SAPS   C23 1501   0.723   6.001   6.601 -0.4533 -0.1937 -0.0183
   12SAPS   H3R 1502   0.709   5.984   6.492  1.5431  0.7211 -0.4640
   12SAPS   H3S 1503   0.620   5.987   6.641 -2.3839  1.0734 -3.9971
   12SAPS   C24 1504   0.833   5.915   6.667 -0.4610  0.9185 -0.2891
   12SAPS   H4R 1505   0.814   5.919   6.777 -0.7921 -1.4040 -0.2161
   12SAPS   H4S 1506   0.924   5.978   6.662 -1.3260  2.2436 -0.0661
   12SAPS   C25 1507   0.848   5.768   6.621 -0.3528 -0.4479  0.4607
   12SAPS   H5R 1508   0.889   5.752   6.520 -2.4342 -1.2248 -0.3247
   12SAPS   C26 1509   0.794   5.665   6.693  0.1469 -0.0106  0.1479
   12SAPS   H6R 1510   0.788   5.566   6.646 -0.6761 -0.8229  1.8630
   12SAPS   C27 1511   0.704   5.675   6.817 -0.3533  0.2283  1.2509
   12SAPS   H7R 1512   0.603   5.718   6.799 -0.1876 -0.2334 -1.0448
   12SAPS   H7S 1513   0.756   5.745   6.887  0.0486  0.6749  0.5206
   12SAPS   C28 1514   0.687   5.535   6.866 -0.7170 -0.3014 -0.5885
   12SAPS   H8R 1515   0.687   5.454   6.791  0.7046  0.9947 -2.0502
   12SAPS   C29 1516   0.667   5.503   6.996 -1.2006 -0.5494 -0.6817
   12SAPS   H9R 1517   0.668   5.398   7.029 -0.9544 -0.0925  0.8603
   12SAPS  C210 1518   0.645   5.599   7.109 -0.3318 -0.0908  0.6603
   12SAPS  H10R 1519   0.578   5.683   7.081  1.2708  0.9451 -0.1273
   12SAPS  H10S 1520   0.741   5.645   7.138  1.0179 -2.1409 -0.3136
   12SAPS  C211 1521   0.581   5.526   7.227 -0.2171  0.3719 -0.2078
   12SAPS  H11R 1522   0.502   5.455   7.197  0.3024 -0.3658  0.1596
   12SAPS  C212 1523   0.601   5.558   7.357 -0.1341 -0.8530  0.2468
   12SAPS  H12R 1524   0.530   5.519   7.432  0.6971  1.0827  2.1589
   12SAPS  C213 1525   0.693   5.658   7.431  0.7997 -0.0795  0.5122
   12SAPS  H13R 1526   0.747   5.722   7.358 -3.5616  1.0516 -2.0748
   12SAPS  H13S 1527   0.763   5.604   7.498  0.2021 -1.0278  0.4036
   12SAPS  C214 1528   0.611   5.753   7.513  0.1574  0.2315  0.2332
   12SAPS  H14R 1529   0.532   5.811   7.462 -0.0869 -0.1180  0.2055
   12SAPS  C215 1530   0.621   5.763   7.650  0.1626  0.2163 -0.1072
   12SAPS  H15R 1531   0.565   5.841   7.705  0.1941  0.4179 -0.3567
   12SAPS  C216 1532   0.718   5.693   7.735  0.2039 -1.0956  0.0591
   12SAPS  H16R 1533   0.817   5.682   7.687  0.8575  0.9074  0.8553
   12SAPS  H16S 1534   0.676   5.594   7.763 -0.0353 -0.5722  1.6367
   12SAPS  C217 1535   0.741   5.773   7.867  0.4915  0.1497  0.5290
   12SAPS  H17R 1536   0.642   5.780   7.917 -0.2603 -0.4937 -0.8062
   12SAPS  H17S 1537   0.785   5.871   7.841  3.7336 -1.1086  0.8356
   12SAPS  C218 1538   0.829   5.690   7.960  0.9206 -0.8881 -0.2642
   12SAPS  H18R 1539   0.923   5.658   7.909  2.1994  1.3471  0.4893
   12SAPS  H18S 1540   0.767   5.602   7.984 -3.7566  2.9285  3.8815
   12SAPS  C219 1541   0.879   5.770   8.085  0.8432 -0.0328 -0.5707
   12SAPS  H19R 1542   0.952   5.708   8.141  0.3354 -0.2350 -0.1158
   12SAPS  H19S 1543   0.792   5.782   8.153  2.2387 -1.5755  1.6245
   12SAPS  C220 1544   0.943   5.898   8.042  0.2086  0.3311  0.6765
   12SAPS  H20R 1545   0.873   5.971   7.997 -0.6436 -0.3072  0.9391
   12SAPS  H20S 1546   1.017   5.873   7.963 -2.0604  0.1851 -1.5291
   12SAPS  H20T 1547   1.002   5.953   8.119 -0.5868  2.1165  0.0716
   12SAPS   C33 1548   0.858   6.484   7.025  0.4123 -0.5305 -0.0494
   12SAPS   H3X 1549   0.755   6.480   6.985  0.4487 -1.2923 -0.0783
   12SAPS   H3Y 1550   0.862   6.585   7.073 -3.9663  0.0118 -0.3837
   12SAPS   C34 1551   0.868   6.373   7.136  0.4063 -0.1668  0.5682
   12SAPS   H4X 1552   0.969   6.367   7.181  0.4486 -0.6969  0.4036
   12SAPS   H4Y 1553   0.845   6.285   7.073  0.7109  0.1135  0.0529
   12SAPS   C35 1554   0.769   6.392   7.256  0.2048 -0.5009  0.0140
   12SAPS   H5X 1555   0.673   6.425   7.210  0.3183  0.4923  0.4494
   12SAPS   H5Y 1556   0.819   6.479   7.305  2.4158 -0.9371 -1.3622
   12SAPS   C36 1557   0.739   6.266   7.335 -0.1716  0.3379 -0.5610
   12SAPS   H6X 1558   0.832   6.205   7.336  1.5490  2.8036 -0.6016
   12SAPS   H6Y 1559   0.660   6.203   7.290 -0.0333 -1.8354  2.0301
   12SAPS   C37 1560   0.700   6.298   7.474  0.2767  0.3624  0.4974
   12SAPS   H7X 1561   0.605   6.355   7.470  1.4376  2.3996  0.6366
   12SAPS   H7Y 1562   0.780   6.363   7.516  0.1023  0.4047  0.7679
   12SAPS   C38 1563   0.689   6.165   7.554  0.6577  0.0296 -0.6620
   12SAPS   H8X 1564   0.786   6.111   7.550  0.1563 -1.0183  0.5995
   12SAPS   H8Y 1565   0.608   6.101   7.513 -1.7593  2.9684 -0.8048
   12SAPS   C39 1566   0.654   6.197   7.703  0.0765 -0.7172  0.7481
   12SAPS   H9X 1567   0.639   6.098   7.750  0.6985 -2.1569 -1.8881
   12SAPS   H9Y 1568   0.568   6.267   7.703  1.0776  0.6003 -0.6480
   12SAPS  C310 1569   0.771   6.276   7.770  0.3226  0.2762 -0.2889
   12SAPS  H10X 1570   0.735   6.368   7.819  0.1855  0.0071  0.1199
   12SAPS  H10Y 1571   0.845   6.322   7.701 -0.3427  0.6547 -0.7621
   12SAPS  C311 1572   0.857   6.191   7.866 -0.3731 -0.7381  0.1040
   12SAPS  H11X 1573   0.869   6.092   7.818  0.1293  0.2348 -1.9037
   12SAPS  H11Y 1574   0.789   6.191   7.954 -1.0916  1.8403 -0.3511
   12SAPS  C312 1575   0.985   6.255   7.908 -0.2115  0.2459  0.2894
   12SAPS  H12X 1576   1.054   6.276   7.823 -0.7462 -2.2585 -0.8673
   12SAPS  H12Y 1577   1.051   6.189   7.968  2.6890  1.4402 -1.3587
   12SAPS  C313 1578   0.963   6.383   7.980 -0.2050 -0.1297 -0.2070
   12SAPS  H13X 1579   0.900   6.367   8.070  0.6795  1.4827  0.7437
   12SAPS  H13Y 1580   0.916   6.454   7.908 -2.5672 -2.2581 -0.9253
   12SAPS  C314 1581   1.097   6.449   8.029  0.9273 -0.4574 -0.1142
   12SAPS  H14X 1582   1.083   6.558   8.041  1.2817 -0.5426  1.1954
   12SAPS  H14Y 1583   1.175   6.421   7.954  0.2128 -1.3055 -0.5574
   12SAPS  C315 1584   1.144   6.397   8.161 -0.3067 -0.0092 -0.6457
   12SAPS  H15X 1585   1.161   6.287   8.161 -1.6404 -0.2393 -0.7595
   12SAPS  H15Y 1586   1.063   6.416   8.235  1.6143  0.3139  1.4874
   12SAPS  C316 1587   1.282   6.463   8.201  0.4676 -0.6109 -0.2402
   12SAPS  H16X 1588   1.264   6.573   8.203  0.8164 -0.5514 -0.2241
   12SAPS  H16Y 1589   1.353   6.439   8.119 -1.1793 -0.7536 -1.6863
   12SAPS  C317 1590   1.335   6.423   8.340  0.4305  0.3422 -0.7665
   12SAPS  H17X 1591   1.334   6.312   8.347 -2.0773  0.3903  1.3540
   12SAPS  H17Y 1592   1.262   6.451   8.420 -1.4374 -0.7977 -1.9774
   12SAPS  C318 1593   1.469   6.487   8.384 -0.5144  0.3657  0.2149
   12SAPS  H18X 1594   1.457   6.598   8.380  0.0474  0.3931 -0.8148
   12SAPS  H18Y 1595   1.561   6.463   8.328 -0.6802 -1.1195  0.5348
   12SAPS  H18Z 1596   1.498   6.471   8.490  0.0110 -1.3350 -0.1728
   13SAPS     N 1597   1.726   2.307   6.303  0.1051 -0.1683 -0.0548
   13SAPS   HN1 1598   1.761   2.211   6.283  0.3975 -0.2869  0.9850
   13SAPS   HN2 1599   1.805   2.365   6.339 -0.5338  0.4172  0.4132
   13SAPS   HN3 1600   1.658   2.299   6.381 -1.3667 -1.3585 -1.3974
   13SAPS   C12 1601   1.661   2.367   6.191 -0.5342 -0.2795 -0.2332
   13SAPS  H12A 1602   1.734   2.359   6.111 -0.5169 -1.5395 -0.1113
   13SAPS   C13 1603   1.534   2.314   6.135  0.9100 -0.6506 -0.8848
   13SAPS  O13A 1604   1.495   2.201   6.172 -0.3763  0.3212 -0.2787
   13SAPS  O13B 1605   1.487   2.374   6.032 -0.3195 -0.1720 -0.2409
   13SAPS   C11 1606   1.629   2.517   6.230 -0.4218 -0.0638 -0.3941
   13SAPS  H11A 1607   1.550   2.518   6.307  1.7484  2.1900  2.0137
   13SAPS  H11B 1608   1.582   2.566   6.142 -0.5788  1.0482  0.2949
   13SAPS     P 1609   1.761   2.745   6.279 -0.1899 -0.0123 -0.0759
   13SAPS   O13 1610   1.867   2.741   6.180 -1.0971 -0.0232  0.5577
   13SAPS   O14 1611   1.634   2.811   6.246 -0.2384  0.0431  0.9066
   13SAPS   O12 1612   1.739   2.587   6.295  1.2914 -0.4410  0.3489
   13SAPS   O11 1613   1.806   2.791   6.419 -0.2142 -0.0698 -0.1344
   13SAPS    C1 1614   1.812   2.713   6.538  0.1196  0.9670 -0.2672
   13SAPS    HA 1615   1.854   2.613   6.515 -0.2650  0.7600 -0.0788
   13SAPS    HB 1616   1.893   2.761   6.597 -0.0288 -0.5991  1.2933
   13SAPS    C2 1617   1.672   2.704   6.623  0.3776 -0.2239 -0.2810
   13SAPS    HS 1618   1.596   2.664   6.552  1.8103 -0.7585 -1.5848
   13SAPS   O21 1619   1.653   2.838   6.672  0.0522  0.0741  0.1257
   13SAPS   C21 1620   1.526   2.877   6.685 -0.2692 -0.4752  0.7454
   13SAPS   O22 1621   1.429   2.821   6.642 -0.0332 -0.6167 -0.0210
   13SAPS   C22 1622   1.524   3.003   6.780 -1.0395  0.0733  0.0833
   13SAPS   H2R 1623   1.609   2.996   6.851 -0.1593 -0.4338 -0.9794
   13SAPS   H2S 1624   1.536   3.101   6.729 -1.8110  0.2503  0.2376
   13SAPS    C3 1625   1.675   2.609   6.747 -0.3279  0.4437 -0.0166
   13SAPS    HX 1626   1.767   2.626   6.808 -0.6965  4.3902 -0.3330
   13SAPS    HY 1627   1.685   2.504   6.710 -1.2408 -0.1505  1.3265
   13SAPS   O31 1628   1.563   2.622   6.833  0.1320  0.1143  0.1680
   13SAPS   C31 1629   1.473   2.521   6.842 -0.3115 -0.9267  0.3033
   13SAPS   O32 1630   1.463   2.424   6.772 -0.3220  0.3622 -0.0794
   13SAPS   C32 1631   1.396   2.533   6.971  0.2328 -0.2118 -0.2549
   13SAPS   H2X 1632   1.367   2.639   6.987 -0.9236 -0.5672  0.1984
   13SAPS   H2Y 1633   1.476   2.517   7.047 -0.2320  0.3252  0.3696
   13SAPS   C23 1634   1.386   3.026   6.849  1.0959  0.6622 -0.1317
   13SAPS   H3R 1635   1.306   3.039   6.774  0.1107 -1.4951  0.4771
   13SAPS   H3S 1636   1.398   3.123   6.901  0.2682  0.7004 -0.0042
   13SAPS   C24 1637   1.363   2.906   6.946 -0.3308 -0.3555  0.1864
   13SAPS   H4R 1638   1.453   2.896   7.010  0.1663 -1.1415 -0.6253
   13SAPS   H4S 1639   1.371   2.812   6.889  0.9380 -0.2079  0.1046
   13SAPS   C25 1640   1.236   2.921   7.020 -0.4538 -1.2027  0.1431
   13SAPS   H5R 1641   1.152   2.932   6.950  0.1264  2.4969 -0.1912
   13SAPS   C26 1642   1.216   2.909   7.152 -0.5909  0.8720 -0.5908
   13SAPS   H6R 1643   1.112   2.907   7.188 -0.8526  0.2921 -1.3582
   13SAPS   C27 1644   1.318   2.895   7.265 -0.6672 -0.7964 -0.5115
   13SAPS   H7R 1645   1.291   2.953   7.355 -1.0799 -2.0063  0.1635
   13SAPS   H7S 1646   1.414   2.936   7.225 -0.5450  2.8449  2.8907
   13SAPS   C28 1647   1.344   2.755   7.303  1.0448  0.4381  0.6098
   13SAPS   H8R 1648   1.413   2.702   7.236  0.2716  1.5595 -1.1612
   13SAPS   C29 1649   1.267   2.683   7.391 -0.2504  0.1894  0.5327
   13SAPS   H9R 1650   1.301   2.583   7.421 -2.5178 -0.4897  1.0425
   13SAPS  C210 1651   1.153   2.738   7.480  0.3151 -0.1616 -0.1932
   13SAPS  H10R 1652   1.135   2.848   7.471 -2.2332 -0.5650 -0.7631
   13SAPS  H10S 1653   1.186   2.722   7.584 -0.7172  1.6545  0.4681
   13SAPS  C211 1654   1.030   2.651   7.442 -0.5828  0.2236  0.1179
   13SAPS  H11R 1655   1.021   2.640   7.333  1.4820  2.4010 -0.3730
   13SAPS  C212 1656   0.944   2.590   7.524  0.1622 -0.5064 -0.1427
   13SAPS  H12R 1657   0.852   2.549   7.479 -1.4539  0.8891  1.6991
   13SAPS  C213 1658   0.938   2.589   7.677 -0.3001 -1.0367 -0.3601
   13SAPS  H13R 1659   1.041   2.594   7.718  0.4666 -3.1265 -1.8542
   13SAPS  H13S 1660   0.902   2.487   7.702  1.3402 -1.5974 -0.1267
   13SAPS  C214 1661   0.854   2.702   7.738 -0.3851  0.7244  0.6481
   13SAPS  H14R 1662   0.871   2.803   7.699 -0.8771  0.6248  0.1576
   13SAPS  C215 1663   0.770   2.678   7.840  0.0041  0.1358  0.6068
   13SAPS  H15R 1664   0.714   2.765   7.878 -1.1502  1.2956 -3.1985
   13SAPS  C216 1665   0.732   2.551   7.907  0.3903 -0.1066 -0.2845
   13SAPS  H16R 1666   0.741   2.468   7.834  2.6414  0.6338 -0.9287
   13SAPS  H16S 1667   0.629   2.557   7.951 -0.4112 -1.9603 -1.7739
   13SAPS  C217 1668   0.827   2.517   8.025  0.5471 -0.0131  0.4053
   13SAPS  H17R 1669   0.935   2.533   8.005  0.8236 -1.2552  0.8007
   13SAPS  H17S 1670   0.815   2.409   8.050  1.2483  0.6105  3.9524
   13SAPS  C218 1671   0.781   2.608   8.146  0.2005  0.3228 -0.3638
   13SAPS  H18R 1672   0.756   2.711   8.112 -2.3683 -0.1116 -0.0005
   13SAPS  H18S 1673   0.871   2.624   8.209  0.2261  0.4300 -0.4279
   13SAPS  C219 1674   0.660   2.549   8.222 -0.0537  0.1172  0.1619
   13SAPS  H19R 1675   0.686   2.454   8.273 -1.4148  0.3894  1.4430
   13SAPS  H19S 1676   0.595   2.516   8.137  0.6652  0.1051 -0.3936
   13SAPS  C220 1677   0.568   2.634   8.310 -0.1914 -0.3059 -0.1464
   13SAPS  H20R 1678   0.473   2.577   8.322 -0.1822 -0.7955 -2.0343
   13SAPS  H20S 1679   0.554   2.729   8.255 -0.4365 -0.2513  0.0080
   13SAPS  H20T 1680   0.627   2.670   8.397  0.4958  0.7030 -1.0063
   13SAPS   C33 1681   1.277   2.440   6.986  0.4334  0.4982  0.6837
   13SAPS   H3X 1682   1.314   2.337   6.966 -1.0915  0.0266  0.1361
   13SAPS   H3Y 1683   1.191   2.460   6.918 -0.9992 -2.0879  1.5947
   13SAPS   C34 1684   1.217   2.446   7.127 -0.5471  0.4677  0.3045
   13SAPS   H4X 1685   1.163   2.543   7.137  1.7877  1.8471  0.2635
   13SAPS   H4Y 1686   1.305   2.452   7.194 -0.3246 -0.2027  0.0812
   13SAPS   C35 1687   1.124   2.328   7.167  0.0755  0.1525 -0.1306
   13SAPS   H5X 1688   1.167   2.232   7.131  0.4539 -0.8212  2.6705
   13SAPS   H5Y 1689   1.020   2.323   7.129  0.2246  1.9371 -0.8361
   13SAPS   C36 1690   1.115   2.289   7.319 -0.1475 -0.4824  0.6817
   13SAPS   H6X 1691   1.048   2.201   7.320 -0.1656 -0.4705  0.5517
   13SAPS   H6Y 1692   1.063   2.367   7.380  0.6043  1.1957 -0.7160
   13SAPS   C37 1693   1.241   2.255   7.389 -0.9260  0.4472  0.1203
   13SAPS   H7X 1694   1.320   2.333   7.379 -1.3386  0.8120 -0.3223
   13SAPS   H7Y 1695   1.274   2.163   7.336 -2.0009  0.4485 -0.5818
   13SAPS   C38 1696   1.227   2.225   7.544  0.0653  0.0059  0.1780
   13SAPS   H8X 1697   1.310   2.161   7.581  0.1335 -0.1767 -0.2798
   13SAPS   H8Y 1698   1.137   2.161   7.557  0.9024 -1.7184 -1.8554
   13SAPS   C39 1699   1.210   2.344   7.641  0.3781 -0.0865 -0.1936
   13SAPS   H9X 1700   1.135   2.308   7.715 -1.3215  0.8510 -1.3789
   13SAPS   H9Y 1701   1.162   2.426   7.585 -1.6462 -0.4994  0.8301
   13SAPS  C310 1702   1.341   2.385   7.707  0.0761  0.1322 -0.0703
   13SAPS  H10X 1703   1.394   2.428   7.619  0.3920 -1.2671 -0.5857
   13SAPS  H10Y 1704   1.382   2.289   7.744 -0.9969  0.0947  1.0759
   13SAPS  C311 1705   1.335   2.483   7.823 -0.5510  0.3035 -0.3696
   13SAPS  H11X 1706   1.302   2.578   7.775 -1.3549 -0.3775 -1.2019
   13SAPS  H11Y 1707   1.436   2.502   7.863  0.5735 -1.6882 -2.0433
   13SAPS  C312 1708   1.247   2.450   7.942  0.0526  0.4853 -1.0049
   13SAPS  H12X 1709   1.149   2.404   7.921 -0.6407 -0.0243  2.6349
   13SAPS  H12Y 1710   1.219   2.545   7.993  0.1254  0.7382 -1.4346
   13SAPS  C313 1711   1.323   2.358   8.048  0.3735 -0.2474  0.2298
   13SAPS  H13X 1712   1.401   2.426   8.088  0.1003  2.8723 -3.9460
   13SAPS  H13Y 1713   1.379   2.282   7.989  1.6513  0.5438  0.3940
   13SAPS  C314 1714   1.235   2.288   8.146  0.8039  0.1151 -0.1846
   13SAPS  H14X 1715   1.306   2.240   8.217  0.8649  1.8787  0.9999
   13SAPS  H14Y 1716   1.175   2.205   8.104 -0.0631  0.9576 -0.6569
   13SAPS  C315 1717   1.147   2.386   8.233 -0.7101  0.0426 -0.0401
   13SAPS  H15X 1718   1.079   2.433   8.158 -2.5099  2.4719  2.8977
   13SAPS  H15Y 1719   1.216   2.463   8.275 -1.7511 -0.1317  2.1250
   13SAPS  C316 1720   1.068   2.310   8.339 -0.0964  0.1176 -0.0281
   13SAPS  H16X 1721   1.142   2.244   8.390  0.2671  0.4271 -0.1490
   13SAPS  H16Y 1722   1.001   2.241   8.284  1.1264 -2.2856  1.3573
   13SAPS  C317 1723   0.985   2.403   8.438  0.0121  0.4381  0.0101
   13SAPS  H17X 1724   0.937   2.336   8.512  0.8273  1.1309  1.2151
   13SAPS  H17Y 1725   0.907   2.451   8.374  0.7166  0.4269 -0.8709
   13SAPS  C318 1726   1.059   2.508   8.511  0.0055 -0.2369  0.4780
   13SAPS  H18X 1727   1.157   2.474   8.551  2.1607  1.6669 -2.6996
   13SAPS  H18Y 1728   1.022   2.553   8.606  1.2446 -1.0112  1.3689
   13SAPS  H18Z 1729   1.090   2.598   8.453  0.1665 -0.6019 -0.0038
   14SAPS     N 1730   0.978   5.383   5.735 -0.3705 -0.2507  0.4070
   14SAPS   HN1 1731   0.916   5.452   5.689 -1.8303 -0.6637  1.6544
   14SAPS   HN2 1732   1.067   5.433   5.757 -0.5930  0.1676  0.3503
   14SAPS   HN3 1733   0.990   5.298   5.676  1.7354 -0.2855  0.8094
   14SAPS   C12 1734   0.915   5.329   5.858  0.4147 -0.2389  0.3943
   14SAPS  H12A 1735   0.904   5.415   5.923  0.5705  1.3632 -1.5942
   14SAPS   C13 1736   0.777   5.261   5.853  0.3276  0.4723 -0.0782
   14SAPS  O13A 1737   0.727   5.230   5.745 -0.2479 -0.1103 -0.1856
   14SAPS  O13B 1738   0.730   5.218   5.964  0.3172 -0.4990  0.5901
   14SAPS   C11 1739   1.017   5.230   5.923 -0.1785 -1.1374 -0.4450
   14SAPS  H11A 1740   0.990   5.128   5.887  0.2659 -2.1967  2.0124
   14SAPS  H11B 1741   0.984   5.223   6.029  0.8568  0.3851  0.0183
   14SAPS     P 1742   1.234   5.317   6.045  0.1114 -0.0292  0.0989
   14SAPS   O13 1743   1.360   5.386   6.004  0.1409  0.3528 -0.0002
   14SAPS   O14 1744   1.141   5.402   6.129  0.2126  0.0251 -0.1250
   14SAPS   O12 1745   1.160   5.253   5.912 -0.2033  0.1039  0.4341
   14SAPS   O11 1746   1.273   5.187   6.130 -0.5680  0.5167  0.3238
   14SAPS    C1 1747   1.399   5.126   6.129  0.2514  0.1350 -0.7810
   14SAPS    HA 1748   1.386   5.036   6.065  2.5176  0.1569 -1.3746
   14SAPS    HB 1749   1.484   5.189   6.094  0.1656  1.7594  1.6908
   14SAPS    C2 1750   1.442   5.079   6.270  0.5823  0.0843 -0.7638
   14SAPS    HS 1751   1.540   5.027   6.263  1.0537  0.0615  3.5424
   14SAPS   O21 1752   1.341   4.983   6.319  0.1392 -0.2547  0.2430
   14SAPS   C21 1753   1.351   4.865   6.272 -0.6041 -0.1683 -0.9130
   14SAPS   O22 1754   1.439   4.824   6.195 -0.4571 -0.5497 -0.1668
   14SAPS   C22 1755   1.237   4.777   6.318 -0.2740  0.1003 -0.0031
   14SAPS   H2R 1756   1.146   4.834   6.290  0.5647  1.1395 -0.6619
   14SAPS   H2S 1757   1.233   4.683   6.258  2.3041 -0.0960 -0.0046
   14SAPS    C3 1758   1.456   5.195   6.380 -0.5460  0.1703  0.6607
   14SAPS    HX 1759   1.360   5.246   6.403  0.1415  1.3331  1.0341
   14SAPS    HY 1760   1.517   5.274   6.330 -0.5683 -1.1488 -1.5996
   14SAPS   O31 1761   1.515   5.149   6.503 -0.4684  0.2801 -0.0783
   14SAPS   C31 1762   1.654   5.146   6.518  0.0192  0.2403 -0.0711
   14SAPS   O32 1763   1.731   5.193   6.437  0.1860 -0.0809 -0.4931
   14SAPS   C32 1764   1.684   5.069   6.639 -0.4806 -0.0984  0.4818
   14SAPS   H2X 1765   1.795   5.059   6.645 -0.3484  1.4788  1.2058
   14SAPS   H2Y 1766   1.641   4.967   6.637  1.2219 -0.8971  1.5563
   14SAPS   C23 1767   1.254   4.751   6.466  1.2145 -0.1178 -0.3132
   14SAPS   H3R 1768   1.165   4.706   6.514  0.6718  1.3682  0.1368
   14SAPS   H3S 1769   1.280   4.841   6.526  2.6990  0.1396 -1.2718
   14SAPS   C24 1770   1.362   4.643   6.499  0.6071 -0.0490  0.2770
   14SAPS   H4R 1771   1.362   4.562   6.423  1.0623  1.2040 -1.1212
   14SAPS   H4S 1772   1.336   4.592   6.594  2.1862  0.4244  1.0095
   14SAPS   C25 1773   1.504   4.688   6.515 -0.8222  0.1254  0.2782
   14SAPS   H5R 1774   1.555   4.709   6.419  0.5944 -2.0849  0.4659
   14SAPS   C26 1775   1.576   4.703   6.633  0.0289 -0.3143  0.3675
   14SAPS   H6R 1776   1.673   4.757   6.634 -1.4219  2.5190  1.2822
   14SAPS   C27 1777   1.523   4.687   6.779 -0.7959 -0.3930  0.1478
   14SAPS   H7R 1778   1.612   4.687   6.846  0.6988  2.8262 -1.5933
   14SAPS   H7S 1779   1.486   4.583   6.794 -1.5318 -0.0688  0.5962
   14SAPS   C28 1780   1.408   4.777   6.820  0.1744 -0.5084 -0.5656
   14SAPS   H8R 1781   1.341   4.800   6.735 -0.6579 -0.3359  0.1126
   14SAPS   C29 1782   1.380   4.825   6.942  0.2477 -0.7668  0.0524
   14SAPS   H9R 1783   1.294   4.894   6.948 -1.2634 -2.3315 -2.1128
   14SAPS  C210 1784   1.460   4.814   7.071  0.4547 -0.6033 -0.2295
   14SAPS  H10R 1785   1.449   4.912   7.123  1.3679  1.0288 -2.9096
   14SAPS  H10S 1786   1.566   4.799   7.041  1.1796  0.7060  1.4793
   14SAPS  C211 1787   1.418   4.699   7.149 -0.4079  0.8289 -0.1080
   14SAPS  H11R 1788   1.422   4.602   7.098 -0.2360  0.0276  1.3728
   14SAPS  C212 1789   1.386   4.694   7.277 -0.5285  0.0901  0.7835
   14SAPS  H12R 1790   1.367   4.597   7.326  1.5458  0.5390  2.5976
   14SAPS  C213 1791   1.381   4.806   7.369  0.0069 -0.0623 -0.9287
   14SAPS  H13R 1792   1.272   4.829   7.381 -0.1547 -1.8709  2.4770
   14SAPS  H13S 1793   1.439   4.890   7.327 -1.7945  2.3995  1.1179
   14SAPS  C214 1794   1.449   4.790   7.500 -0.2463 -0.1251  0.3866
   14SAPS  H14R 1795   1.557   4.781   7.482 -0.3220 -0.3198  0.0122
   14SAPS  C215 1796   1.402   4.806   7.625 -0.5022 -0.4150 -0.9905
   14SAPS  H15R 1797   1.475   4.801   7.707 -1.9249 -1.3054  0.2707
   14SAPS  C216 1798   1.258   4.821   7.668  0.0620 -0.3342  0.0658
   14SAPS  H16R 1799   1.215   4.718   7.670  2.4028 -1.3517  0.7666
   14SAPS  H16S 1800   1.192   4.870   7.593  0.7287  1.4636  0.6096
   14SAPS  C217 1801   1.237   4.892   7.807  0.3433 -0.1579  0.0159
   14SAPS  H17R 1802   1.132   4.929   7.812  0.1314 -0.9061  3.2406
   14SAPS  H17S 1803   1.298   4.984   7.820  0.3590 -0.3843  1.8168
   14SAPS  C218 1804   1.267   4.805   7.931 -0.0554  0.0727  0.0140
   14SAPS  H18R 1805   1.341   4.732   7.891  0.3513  0.6218 -0.2441
   14SAPS  H18S 1806   1.180   4.738   7.948  0.4702 -0.4798  0.6186
   14SAPS  C219 1807   1.317   4.876   8.052 -0.0907  0.1830 -0.4724
   14SAPS  H19R 1808   1.416   4.919   8.027 -0.4160  0.8698 -0.6326
   14SAPS  H19S 1809   1.340   4.799   8.129  3.2230  1.6989  0.2025
   14SAPS  C220 1810   1.240   4.991   8.096  0.0338  0.9763 -0.0245
   14SAPS  H20R 1811   1.187   5.056   8.023 -1.9842  1.5597  1.8517
   14SAPS  H20S 1812   1.309   5.054   8.157 -2.6049  1.2154  3.0039
   14SAPS  H20T 1813   1.166   4.966   8.175  1.1472  0.2765  0.8218
   14SAPS   C33 1814   1.631   5.137   6.767  0.1494 -0.1934 -0.3754
   14SAPS   H3X 1815   1.522   5.154   6.757  0.2736  2.1403  1.2987
   14SAPS   H3Y 1816   1.679   5.236   6.784 -1.5174  0.6231 -0.2450
   14SAPS   C34 1817   1.671   5.063   6.893 -0.8913  0.0311  0.6903
   14SAPS   H4X 1818   1.781   5.048   6.901 -0.8460  0.5862  1.2151
   14SAPS   H4Y 1819   1.629   4.962   6.880 -0.1475 -0.1722 -0.2447
   14SAPS   C35 1820   1.625   5.130   7.018  0.5287  0.0868  0.0367
   14SAPS   H5X 1821   1.514   5.138   7.027  0.5548 -1.2353  2.4158
   14SAPS   H5Y 1822   1.662   5.232   6.996 -2.4597  0.9574 -1.4688
   14SAPS   C36 1823   1.688   5.062   7.141  0.2821  0.2838  0.3909
   14SAPS   H6X 1824   1.799   5.066   7.137  0.3148 -0.4075  0.4868
   14SAPS   H6Y 1825   1.649   4.959   7.155 -1.9053  0.8409 -1.0432
   14SAPS   C37 1826   1.648   5.127   7.270 -0.0947 -0.5153 -0.0400
   14SAPS   H7X 1827   1.539   5.131   7.291 -0.3659 -0.5107 -1.3470
   14SAPS   H7Y 1828   1.667   5.236   7.265  0.7464 -0.3644  3.6866
   14SAPS   C38 1829   1.707   5.055   7.387  0.0385 -0.0165  0.1077
   14SAPS   H8X 1830   1.812   5.026   7.365  0.3588 -0.4824  2.0641
   14SAPS   H8Y 1831   1.646   4.962   7.400  1.6015 -1.4007 -1.8081
   14SAPS   C39 1832   1.713   5.138   7.518 -1.6078  0.0988 -0.1361
   14SAPS   H9X 1833   1.617   5.182   7.551 -1.4038 -0.2297  0.9354
   14SAPS   H9Y 1834   1.767   5.231   7.488 -2.2776  0.2559 -0.8840
   14SAPS  C310 1835   1.783   5.074   7.636  0.1313  0.8377  0.3307
   14SAPS  H10X 1836   1.819   5.163   7.693 -0.2764 -0.1498  2.2429
   14SAPS  H10Y 1837   1.860   4.997   7.614 -0.9924 -0.6256  1.3143
   14SAPS  C311 1838   1.680   5.007   7.727  0.3813 -0.4687  0.2100
   14SAPS  H11X 1839   1.719   4.971   7.825  1.1045 -1.3378 -0.3837
   14SAPS  H11Y 1840   1.643   4.918   7.672  1.1486  0.6449 -2.1985
   14SAPS  C312 1841   1.558   5.094   7.767  0.4283  0.6846 -0.5137
   14SAPS  H12X 1842   1.509   5.041   7.851  2.8911 -0.9512 -0.0010
   14SAPS  H12Y 1843   1.483   5.099   7.685 -0.5147 -0.6727  0.2310
   14SAPS  C313 1844   1.581   5.240   7.815 -0.4521 -0.4161  0.1118
   14SAPS  H13X 1845   1.583   5.308   7.727 -1.8839  0.7253  0.9148
   14SAPS  H13Y 1846   1.682   5.256   7.859 -1.1496  2.6892  0.8479
   14SAPS  C314 1847   1.473   5.290   7.919  0.1263  0.1208 -0.1220
   14SAPS  H14X 1848   1.372   5.252   7.893 -0.4025  0.1820  1.6840
   14SAPS  H14Y 1849   1.462   5.400   7.922 -1.5794 -0.0174  0.2426
   14SAPS  C315 1850   1.498   5.225   8.058  0.4904 -0.7039 -0.0672
   14SAPS  H15X 1851   1.540   5.122   8.053  2.1040 -0.0639 -0.3284
   14SAPS  H15Y 1852   1.399   5.210   8.107 -1.2069 -0.2530 -3.1296
   14SAPS  C316 1853   1.602   5.292   8.151  0.4857  0.7705 -0.3944
   14SAPS  H16X 1854   1.577   5.399   8.160 -1.0925  0.2589  2.0530
   14SAPS  H16Y 1855   1.699   5.293   8.096  2.3918  0.5633  2.7085
   14SAPS  C317 1856   1.624   5.240   8.298  0.5046 -0.7064  0.1705
   14SAPS  H17X 1857   1.524   5.247   8.345 -0.6441  1.6136 -2.2994
   14SAPS  H17Y 1858   1.684   5.314   8.357  0.1207  0.4098 -0.7930
   14SAPS  C318 1859   1.694   5.105   8.319 -0.7307  0.4890  0.6583
   14SAPS  H18X 1860   1.695   5.072   8.425 -1.1340 -0.2111  0.4551
   14SAPS  H18Y 1861   1.800   5.115   8.287 -1.1969  0.6572 -0.9161
   14SAPS  H18Z 1862   1.650   5.018   8.265 -0.0483 -0.5105  1.6409
   15SAPS     N 1863   1.317   4.214   5.882 -0.5198 -0.4821  0.2054
   15SAPS   HN1 1864   1.214   4.200   5.883 -0.5068 -0.5533  0.9637
   15SAPS   HN2 1865   1.345   4.148   5.957 -0.1558  0.0469  0.5463
   15SAPS   HN3 1866   1.346   4.309   5.911 -2.3595  0.2881 -0.3415
   15SAPS   C12 1867   1.403   4.197   5.758  0.0001 -0.3061  0.5094
   15SAPS  H12A 1868   1.420   4.091   5.746 -0.2928 -0.2922 -0.0589
   15SAPS   C13 1869   1.327   4.243   5.626 -0.5024 -0.4601 -0.0752
   15SAPS  O13A 1870   1.234   4.326   5.641 -0.1628  0.2750 -0.2090
   15SAPS  O13B 1871   1.374   4.219   5.514 -0.0868 -0.1584 -0.2431
   15SAPS   C11 1872   1.524   4.273   5.787 -0.1514 -0.4846  0.3613
   15SAPS  H11A 1873   1.512   4.383   5.788  0.3997 -0.4246  1.6299
   15SAPS  H11B 1874   1.588   4.247   5.700  0.0019 -2.7659  1.0740
   15SAPS     P 1875   1.749   4.287   5.921  0.1230 -0.0008 -0.0645
   15SAPS   O13 1876   1.825   4.274   5.794  0.5039  0.1892  0.4723
   15SAPS   O14 1877   1.737   4.417   5.987 -0.2116  0.0444  0.5522
   15SAPS   O12 1878   1.600   4.228   5.894 -0.2165  0.0666 -0.1452
   15SAPS   O11 1879   1.812   4.193   6.024  0.0474  0.1136  0.3353
   15SAPS    C1 1880   1.740   4.129   6.124 -0.3277  0.3664  0.0626
   15SAPS    HA 1881   1.649   4.081   6.085 -0.4988  0.6980  0.0505
   15SAPS    HB 1882   1.799   4.045   6.168 -0.2114  0.7702  0.6936
   15SAPS    C2 1883   1.692   4.218   6.239  0.2235  0.0057  0.4744
   15SAPS    HS 1884   1.651   4.313   6.197  0.9236  0.4258  0.7198
   15SAPS   O21 1885   1.811   4.234   6.325  0.0235 -0.5749 -0.1800
   15SAPS   C21 1886   1.830   4.356   6.363 -0.2269 -0.0536 -0.5129
   15SAPS   O22 1887   1.771   4.455   6.324  0.1778 -0.5356 -0.4206
   15SAPS   C22 1888   1.944   4.361   6.466  0.0007  0.2403  0.4497
   15SAPS   H2R 1889   1.913   4.297   6.551  1.4359 -0.4835  0.4736
   15SAPS   H2S 1890   2.027   4.304   6.419  0.4625  1.9399 -0.8736
   15SAPS    C3 1891   1.575   4.143   6.305 -0.7857 -0.1599  0.8239
   15SAPS    HX 1892   1.608   4.039   6.328 -1.0998 -0.6479 -0.8265
   15SAPS    HY 1893   1.492   4.134   6.232 -0.0036 -0.6004 -0.0303
   15SAPS   O31 1894   1.548   4.211   6.427 -0.5841 -0.1835  0.3050
   15SAPS   C31 1895   1.437   4.180   6.491  0.0772  0.3996 -0.6273
   15SAPS   O32 1896   1.358   4.094   6.459 -0.2750  0.1230 -0.2346
   15SAPS   C32 1897   1.408   4.285   6.600  0.6172  0.3905 -0.3969
   15SAPS   H2X 1898   1.338   4.360   6.557 -1.3802 -1.9759 -1.5531
   15SAPS   H2Y 1899   1.497   4.348   6.621  0.1134  0.3160  2.4369
   15SAPS   C23 1900   1.994   4.505   6.496  0.2545 -0.1675  0.0209
   15SAPS   H3R 1901   2.005   4.568   6.405  0.4106 -2.1060 -1.3620
   15SAPS   H3S 1902   2.097   4.512   6.537 -0.4218  4.9049  1.5776
   15SAPS   C24 1903   1.907   4.589   6.599  0.1323  0.1059  0.1711
   15SAPS   H4R 1904   1.914   4.530   6.693  0.9278 -2.0614 -1.1667
   15SAPS   H4S 1905   1.797   4.586   6.583  0.1635  1.4373 -0.3908
   15SAPS   C25 1906   1.959   4.725   6.623  0.3336  0.2622 -0.4051
   15SAPS   H5R 1907   1.997   4.775   6.533 -1.5748  0.1675 -1.3057
   15SAPS   C26 1908   1.962   4.793   6.738  0.7578 -0.7780 -0.0651
   15SAPS   H6R 1909   2.004   4.895   6.734 -2.2032  0.5898  0.7381
   15SAPS   C27 1910   1.918   4.755   6.874  0.3286  0.5108  0.0213
   15SAPS   H7R 1911   1.824   4.695   6.872  1.4579 -1.4833  1.7336
   15SAPS   H7S 1912   1.868   4.840   6.926  0.2144 -1.6607  3.8217
   15SAPS   C28 1913   2.018   4.692   6.973  0.2829 -0.3643  0.1992
   15SAPS   H8R 1914   2.120   4.685   6.933  0.0784  0.9570 -0.6134
   15SAPS   C29 1915   1.992   4.657   7.093 -0.0352 -0.1562  0.3405
   15SAPS   H9R 1916   2.075   4.613   7.149  0.0442 -1.0877 -0.4758
   15SAPS  C210 1917   1.866   4.657   7.173  0.5692 -0.1434 -0.7893
   15SAPS  H10R 1918   1.841   4.550   7.189  0.9663 -0.2627 -0.9402
   15SAPS  H10S 1919   1.781   4.689   7.108 -0.3966 -1.1775 -0.0776
   15SAPS  C211 1920   1.876   4.730   7.306 -0.0362  0.0085 -0.7339
   15SAPS  H11R 1921   1.889   4.837   7.284 -0.4214 -0.1706 -1.8805
   15SAPS  C212 1922   1.897   4.670   7.425  0.3842 -0.3426  0.1547
   15SAPS  H12R 1923   1.887   4.740   7.509 -0.5845  1.7029 -1.5790
   15SAPS  C213 1924   1.902   4.518   7.461 -0.5796  0.3842  0.0921
   15SAPS  H13R 1925   1.891   4.452   7.371 -1.3998  0.1209  0.3745
   15SAPS  H13S 1926   1.814   4.478   7.515 -0.4872  0.1807  0.0937
   15SAPS  C214 1927   2.032   4.476   7.523  0.1673 -0.0804  0.1120
   15SAPS  H14R 1928   2.125   4.480   7.464  0.9499  0.6095  1.3514
   15SAPS  C215 1929   2.041   4.434   7.651  0.0760 -0.4819  0.9223
   15SAPS  H15R 1930   2.135   4.395   7.694  0.5187 -1.8508 -1.1510
   15SAPS  C216 1931   1.933   4.430   7.761 -0.3810 -0.7324  0.7642
   15SAPS  H16R 1932   1.830   4.452   7.727 -0.5116  1.3560  2.3342
   15SAPS  H16S 1933   1.951   4.520   7.824 -0.1827 -0.3742  0.2018
   15SAPS  C217 1934   1.933   4.298   7.840  0.2167  0.2946 -0.0398
   15SAPS  H17R 1935   1.925   4.218   7.763  0.4139  0.3760 -0.1446
   15SAPS  H17S 1936   1.840   4.296   7.900  0.1170 -1.9649 -0.2067
   15SAPS  C218 1937   2.042   4.273   7.947 -0.3813  0.6078  0.4856
   15SAPS  H18R 1938   2.027   4.345   8.031 -1.3890 -0.6578  1.4339
   15SAPS  H18S 1939   2.143   4.279   7.900  0.2325  0.3407  1.7243
   15SAPS  C219 1940   2.031   4.137   8.016 -0.0769 -0.1810  0.2651
   15SAPS  H19R 1941   2.133   4.095   8.031  0.2308  0.2788 -0.4796
   15SAPS  H19S 1942   1.983   4.074   7.939 -2.7173  0.7165  1.0585
   15SAPS  C220 1943   1.953   4.132   8.144 -0.0562  0.1370  0.1493
   15SAPS  H20R 1944   1.848   4.165   8.130 -0.3840 -1.3743 -1.3360
   15SAPS  H20S 1945   1.999   4.200   8.218  0.2044 -0.1328  0.2343
   15SAPS  H20T 1946   1.963   4.029   8.183  2.3883  0.1983 -0.1869
   15SAPS   C33 1947   1.359   4.224   6.735 -0.3309  0.3872  0.1038
   15SAPS   H3X 1948   1.442   4.188   6.799 -2.1091 -1.5260  1.5200
   15SAPS   H3Y 1949   1.287   4.139   6.727 -0.4713  0.3283  1.6708
   15SAPS   C34 1950   1.292   4.332   6.822 -0.0685 -0.2430 -0.0046
   15SAPS   H4X 1951   1.196   4.363   6.775 -0.1213  0.9453  0.8417
   15SAPS   H4Y 1952   1.350   4.424   6.843  0.5647 -0.5259 -0.4902
   15SAPS   C35 1953   1.265   4.264   6.957  0.3528 -0.1147 -0.4743
   15SAPS   H5X 1954   1.363   4.228   6.996 -0.3078 -1.4735 -0.0065
   15SAPS   H5Y 1955   1.210   4.167   6.948  0.2271 -0.3942  2.3043
   15SAPS   C36 1956   1.182   4.354   7.055  0.3587 -0.1179  0.5363
   15SAPS   H6X 1957   1.078   4.363   7.017  1.0660  2.0296 -1.1387
   15SAPS   H6Y 1958   1.232   4.453   7.062 -1.2571  0.6850  1.2589
   15SAPS   C37 1959   1.180   4.290   7.194  0.2517  0.1716  0.3040
   15SAPS   H7X 1960   1.286   4.260   7.208 -0.0481 -0.7658  0.6383
   15SAPS   H7Y 1961   1.116   4.200   7.179 -0.6395  0.9745 -1.0585
   15SAPS   C38 1962   1.135   4.383   7.303  0.1868 -0.0930 -0.2780
   15SAPS   H8X 1963   1.038   4.430   7.276 -0.8006 -1.7575  0.2356
   15SAPS   H8Y 1964   1.204   4.470   7.310 -0.9299  0.6628  3.7403
   15SAPS   C39 1965   1.113   4.306   7.432 -0.3353 -0.4724 -0.2417
   15SAPS   H9X 1966   1.206   4.249   7.455  0.0360  0.1682 -0.1197
   15SAPS   H9Y 1967   1.028   4.235   7.425 -0.1575 -0.8422  1.0806
   15SAPS  C310 1968   1.080   4.399   7.551  0.0258  0.6649  0.6551
   15SAPS  H10X 1969   0.970   4.415   7.550 -0.4614 -2.1887  0.5962
   15SAPS  H10Y 1970   1.126   4.500   7.551  1.3740  0.1417  3.2473
   15SAPS  C311 1971   1.105   4.320   7.680 -0.5102 -0.2763 -0.5656
   15SAPS  H11X 1972   1.208   4.278   7.675 -1.0545 -1.7926  0.2937
   15SAPS  H11Y 1973   1.035   4.234   7.688  1.4553 -1.7977  4.3811
   15SAPS  C312 1974   1.087   4.403   7.811 -0.5028 -0.5576 -0.7359
   15SAPS  H12X 1975   0.983   4.443   7.798 -0.5764 -0.9174 -1.2846
   15SAPS  H12Y 1976   1.148   4.495   7.801 -2.6557  0.9786 -0.6382
   15SAPS  C313 1977   1.104   4.323   7.936 -0.0606  0.2692 -0.3975
   15SAPS  H13X 1978   1.200   4.269   7.940 -0.8827 -1.2099 -0.0135
   15SAPS  H13Y 1979   1.029   4.242   7.949  0.5737  0.0498  2.5935
   15SAPS  C314 1980   1.084   4.410   8.060 -0.2633  0.6617 -0.1566
   15SAPS  H14X 1981   0.990   4.469   8.068 -1.4355 -1.3777  2.5130
   15SAPS  H14Y 1982   1.164   4.486   8.047  0.2056 -0.0485 -1.8064
   15SAPS  C315 1983   1.109   4.320   8.189 -0.0199  0.2142  0.1858
   15SAPS  H15X 1984   1.097   4.213   8.164  0.2416  0.3132 -0.3828
   15SAPS  H15Y 1985   1.028   4.337   8.263  0.3086 -1.2952  0.9101
   15SAPS  C316 1986   1.240   4.346   8.264  0.1791 -0.6942 -0.2746
   15SAPS  H16X 1987   1.263   4.455   8.264  1.7788 -0.9802 -1.7974
   15SAPS  H16Y 1988   1.325   4.300   8.210 -0.8339 -3.6567  0.4890
   15SAPS  C317 1989   1.233   4.297   8.406  0.0532 -0.4524 -0.8649
   15SAPS  H17X 1990   1.219   4.187   8.409 -0.6299 -0.3492 -0.0031
   15SAPS  H17Y 1991   1.148   4.345   8.460  1.1902  0.4847  0.1624
   15SAPS  C318 1992   1.363   4.343   8.488  0.0666  0.0210  0.2270
   15SAPS  H18X 1993   1.458   4.305   8.446  1.1787  2.5513  0.2789
   15SAPS  H18Y 1994   1.349   4.324   8.597 -0.6024 -2.2508 -0.2078
   15SAPS  H18Z 1995   1.376   4.453   8.484 -2.6207  0.4350  1.2055
   16SAPS     N 1996   5.409   0.538   6.556 -0.3320  0.0725  0.3807
   16SAPS   HN1 1997   5.405   0.470   6.635 -1.1430 -1.5133 -0.9663
   16SAPS   HN2 1998   5.499   0.589   6.568  0.0809  0.6829 -3.8605
   16SAPS   HN3 1999   5.325   0.599   6.554  1.0329  1.9977 -0.0815
   16SAPS   C12 2000   5.419   0.447   6.437 -0.6123 -0.0870 -0.0204
   16SAPS  H12A 2001   5.318   0.420   6.409 -0.5716 -0.4872  0.2132
   16SAPS   C13 2002   5.486   0.521   6.311  0.3683  0.4773 -0.9287
   16SAPS  O13A 2003   5.543   0.633   6.328  0.5567  0.3362  0.2395
   16SAPS  O13B 2004   5.497   0.448   6.210 -0.1386 -0.5493  0.0149
   16SAPS   C11 2005   5.496   0.319   6.471  0.2800  0.4481  0.2202
   16SAPS  H11A 2006   5.606   0.334   6.477  0.0935  2.0837 -0.0410
   16SAPS  H11B 2007   5.474   0.243   6.393  1.5377 -1.1122  1.3011
   16SAPS     P 2008   5.482   0.147   6.672  0.2994 -0.1225 -0.0506
   16SAPS   O13 2009   5.481   0.027   6.591  0.1335  0.0106 -0.5301
   16SAPS   O14 2010   5.612   0.186   6.738 -0.1045 -0.2958  0.3110
   16SAPS   O12 2011   5.437   0.272   6.590  0.0291 -0.3043 -0.0797
   16SAPS   O11 2012   5.370   0.129   6.782  0.6564  0.3094  0.6895
   16SAPS    C1 2013   5.227   0.160   6.761 -0.5038  0.0494  0.4131
   16SAPS    HA 2014   5.197   0.135   6.657 -2.1033 -1.5443  1.2010
   16SAPS    HB 2015   5.162   0.087   6.814 -0.6696 -1.6921 -2.0017
   16SAPS    C2 2016   5.183   0.306   6.800 -0.0461  0.5841  0.4951
   16SAPS    HS 2017   5.207   0.375   6.717 -1.2523  0.6549  0.1908
   16SAPS   O21 2018   5.240   0.335   6.937  0.5404  0.4865  0.3761
   16SAPS   C21 2019   5.330   0.427   6.939  0.8271 -0.2256 -0.5823
   16SAPS   O22 2020   5.393   0.478   6.845 -0.3992  0.8694 -0.2216
   16SAPS   C22 2021   5.346   0.461   7.091  0.8299  0.2677  0.3100
   16SAPS   H2R 2022   5.446   0.508   7.110  0.7642  1.0802 -1.2107
   16SAPS   H2S 2023   5.264   0.530   7.121 -0.8308 -1.9658  1.1042
   16SAPS    C3 2024   5.027   0.308   6.799  0.6947  0.1694  0.3064
   16SAPS    HX 2025   4.989   0.278   6.699  3.4461  1.8168 -1.3685
   16SAPS    HY 2026   4.992   0.412   6.809  0.5205  0.0492  1.0076
   16SAPS   O31 2027   4.968   0.232   6.904 -0.5378 -0.4612  0.1183
   16SAPS   C31 2028   4.888   0.293   6.985  0.3152  0.1462 -0.6433
   16SAPS   O32 2029   4.836   0.400   6.964 -0.6283 -0.1151 -0.6568
   16SAPS   C32 2030   4.869   0.196   7.105 -0.0730 -0.2320  0.3221
   16SAPS   H2X 2031   4.972   0.167   7.136 -1.2042 -2.7343  2.1001
   16SAPS   H2Y 2032   4.808   0.108   7.075  1.6578 -1.6011  0.6728
   16SAPS   C23 2033   5.346   0.329   7.174  0.4596  0.0077  0.1682
   16SAPS   H3R 2034   5.421   0.259   7.132  1.3875  0.1226  1.5356
   16SAPS   H3S 2035   5.243   0.288   7.176 -0.3487  1.8363 -1.3409
   16SAPS   C24 2036   5.377   0.343   7.330 -0.1073 -0.0015  0.2974
   16SAPS   H4R 2037   5.371   0.246   7.383  3.3905  1.0679  3.0442
   16SAPS   H4S 2038   5.291   0.404   7.365 -0.9347 -0.7328 -0.4188
   16SAPS   C25 2039   5.515   0.394   7.367  0.3622 -0.5898  0.2492
   16SAPS   H5R 2040   5.593   0.368   7.293 -0.9816  2.1220 -2.2919
   16SAPS   C26 2041   5.550   0.439   7.490  0.2660 -0.8537  0.0092
   16SAPS   H6R 2042   5.652   0.477   7.508  0.6773 -2.4303  1.2671
   16SAPS   C27 2043   5.453   0.465   7.599  0.2438  0.1011  0.7619
   16SAPS   H7R 2044   5.352   0.501   7.568  0.3305 -0.2219  0.0811
   16SAPS   H7S 2045   5.489   0.552   7.657  2.8725  0.5270 -1.3116
   16SAPS   C28 2046   5.420   0.346   7.683 -0.2430 -0.0185 -0.7110
   16SAPS   H8R 2047   5.347   0.274   7.643 -0.7573  0.5387 -0.7987
   16SAPS   C29 2048   5.477   0.322   7.800 -0.3147 -0.3728 -0.1822
   16SAPS   H9R 2049   5.440   0.235   7.857 -0.3517  1.2921  2.4950
   16SAPS  C210 2050   5.593   0.398   7.855  0.3912 -0.7576  0.0377
   16SAPS  H10R 2051   5.666   0.433   7.779  0.4481 -1.2645 -0.1429
   16SAPS  H10S 2052   5.651   0.317   7.902 -1.1214 -1.5461  0.6064
   16SAPS  C211 2053   5.554   0.500   7.959 -0.2006  0.0266  0.3525
   16SAPS  H11R 2054   5.564   0.604   7.924 -0.7435 -0.0925 -0.1664
   16SAPS  C212 2055   5.507   0.472   8.082  1.0522 -0.8866  0.1826
   16SAPS  H12R 2056   5.463   0.553   8.143 -0.4753 -2.3245  1.0567
   16SAPS  C213 2057   5.490   0.339   8.145 -0.2112  0.0130  0.3110
   16SAPS  H13R 2058   5.563   0.265   8.105  1.8803  1.3395  1.4693
   16SAPS  H13S 2059   5.387   0.303   8.127 -0.2901  1.6143 -3.3594
   16SAPS  C214 2060   5.531   0.370   8.288 -0.1829  0.1391 -0.1829
   16SAPS  H14R 2061   5.633   0.409   8.298  0.0512 -0.7548  1.2700
   16SAPS  C215 2062   5.460   0.359   8.403 -0.3069 -0.6446  0.2448
   16SAPS  H15R 2063   5.511   0.381   8.498  0.3794 -1.1499  0.0014
   16SAPS  C216 2064   5.320   0.303   8.422 -0.5779 -0.3757 -0.2332
   16SAPS  H16R 2065   5.297   0.234   8.338 -0.0271 -1.2775  0.3278
   16SAPS  H16S 2066   5.251   0.389   8.434  0.7531  0.6049  0.8888
   16SAPS  C217 2067   5.314   0.208   8.541 -0.5212 -0.2102  0.2190
   16SAPS  H17R 2068   5.208   0.180   8.553  0.1387 -2.9113  0.4675
   16SAPS  H17S 2069   5.347   0.264   8.631  2.0271  0.7833 -1.2168
   16SAPS  C218 2070   5.403   0.079   8.524 -0.1759 -0.1950  0.2129
   16SAPS  H18R 2071   5.510   0.104   8.515 -0.4196  0.5766 -0.7952
   16SAPS  H18S 2072   5.376   0.019   8.434 -1.2149 -1.3146  1.2275
   16SAPS  C219 2073   5.390  -0.022   8.647 -0.2378  0.1543 -0.7255
   16SAPS  H19R 2074   5.437   0.008   8.743 -0.0430  0.9176 -1.0428
   16SAPS  H19S 2075   5.454  -0.109   8.621 -0.4954 -0.2527 -0.0014
   16SAPS  C220 2076   5.249  -0.076   8.665 -0.0613  0.4869  0.0388
   16SAPS  H20R 2077   5.176  -0.008   8.714 -1.2258  1.5095 -2.9013
   16SAPS  H20S 2078   5.261  -0.172   8.719  0.7904 -0.0393 -1.0488
   16SAPS  H20T 2079   5.210  -0.095   8.563  2.1951 -1.3780 -0.5599
   16SAPS   C33 2080   4.793   0.260   7.215 -0.1559 -0.5634 -0.3371
   16SAPS   H3X 2081   4.689   0.294   7.193 -0.5205 -1.0379  0.5954
   16SAPS   H3Y 2082   4.838   0.360   7.231 -1.7296 -0.1009  1.5852
   16SAPS   C34 2083   4.810   0.190   7.350 -0.8680 -0.3401  0.3690
   16SAPS   H4X 2084   4.917   0.195   7.377 -0.8893  0.6043  0.3360
   16SAPS   H4Y 2085   4.787   0.082   7.356 -1.6740 -0.1556  0.7283
   16SAPS   C35 2086   4.740   0.269   7.469  0.8310  0.0906  0.5126
   16SAPS   H5X 2087   4.631   0.263   7.448  1.0672 -0.5878 -0.6220
   16SAPS   H5Y 2088   4.771   0.374   7.449  0.1376 -0.0786 -1.8130
   16SAPS   C36 2089   4.769   0.223   7.616 -0.3662 -0.0849  0.2608
   16SAPS   H6X 2090   4.878   0.223   7.637 -0.4692  0.1240  0.8041
   16SAPS   H6Y 2091   4.735   0.118   7.628 -2.3326  0.5471  0.7324
   16SAPS   C37 2092   4.680   0.285   7.719  0.8571 -0.3910  0.4892
   16SAPS   H7X 2093   4.577   0.281   7.679  0.8593  2.1109  0.0495
   16SAPS   H7Y 2094   4.703   0.394   7.713  1.6687 -0.4721  1.7003
   16SAPS   C38 2095   4.693   0.229   7.859 -0.0072  0.3933  0.3958
   16SAPS   H8X 2096   4.787   0.249   7.914  0.0105 -0.6818  0.7870
   16SAPS   H8Y 2097   4.708   0.119   7.848 -2.0205 -0.2175  2.8578
   16SAPS   C39 2098   4.571   0.271   7.949 -0.1404  0.7528 -0.1765
   16SAPS   H9X 2099   4.482   0.279   7.881 -0.2064  2.2937  0.0518
   16SAPS   H9Y 2100   4.585   0.372   7.994  1.9673  0.5850 -0.3876
   16SAPS  C310 2101   4.543   0.180   8.077  0.0645  0.5130  0.6594
   16SAPS  H10X 2102   4.464   0.226   8.141 -2.0472 -1.0729 -0.6823
   16SAPS  H10Y 2103   4.635   0.177   8.139  0.1839 -0.9363  0.4522
   16SAPS  C311 2104   4.500   0.033   8.045  0.2030  0.1006 -0.0093
   16SAPS  H11X 2105   4.568  -0.022   7.977 -0.3136  0.9697 -1.2636
   16SAPS  H11Y 2106   4.405   0.035   7.987  0.1937  0.6303  0.0188
   16SAPS  C312 2107   4.461  -0.060   8.162 -0.2125  0.9669 -0.8265
   16SAPS  H12X 2108   4.380  -0.132   8.140 -0.8649  1.8312 -1.3578
   16SAPS  H12Y 2109   4.417   0.001   8.244  1.7714  1.5616 -0.1522
   16SAPS  C313 2110   4.575  -0.148   8.224 -0.4208  1.0502  0.0638
   16SAPS  H13X 2111   4.643  -0.080   8.278 -0.4862  0.7032  0.5882
   16SAPS  H13Y 2112   4.637  -0.196   8.145  1.3118  2.4065  0.5456
   16SAPS  C314 2113   4.528  -0.257   8.321 -0.4639 -0.1165 -0.0278
   16SAPS  H14X 2114   4.618  -0.322   8.331  1.1610  2.0828  0.3736
   16SAPS  H14Y 2115   4.452  -0.322   8.273 -1.5128  1.3833 -0.4758
   16SAPS  C315 2116   4.466  -0.201   8.453  0.6110 -0.0683  0.4914
   16SAPS  H15X 2117   4.364  -0.162   8.434  1.1491  0.7962 -0.7347
   16SAPS  H15Y 2118   4.526  -0.119   8.497  0.9400  0.1985 -0.4218
   16SAPS  C316 2119   4.460  -0.309   8.566 -0.3944 -0.6114  0.1599
   16SAPS  H16X 2120   4.380  -0.378   8.531 -0.9320  0.0498  0.0613
   16SAPS  H16Y 2121   4.423  -0.262   8.659 -1.7705  0.7323 -1.0189
   16SAPS  C317 2122   4.584  -0.388   8.582 -0.1837  0.2218 -0.0124
   16SAPS  H17X 2123   4.677  -0.328   8.566  0.3372 -0.1962  1.3202
   16SAPS  H17Y 2124   4.581  -0.469   8.506  1.6411 -1.0415  1.2024
   16SAPS  C318 2125   4.598  -0.441   8.722 -0.2705  0.0854 -0.2032
   16SAPS  H18X 2126   4.694  -0.495   8.740 -0.8414 -0.7165  0.5271
   16SAPS  H18Y 2127   4.527  -0.519   8.758 -0.2456 -0.5422 -1.4313
   16SAPS  H18Z 2128   4.597  -0.362   8.800 -1.2870  0.4925 -0.6183
   17SAPC     N 2129   6.423   3.251  10.745  0.1138  0.0696  0.4938
   17SAPC   C12 2130   6.270   3.245  10.769  0.1775 -0.0411 -0.0499
   17SAPC  H12A 2131   6.242   3.339  10.815 -1.5545 -1.0874  1.1433
   17SAPC  H12B 2132   6.249   3.170  10.843 -2.0255  2.8360  2.4833
   17SAPC   C13 2133   6.490   3.256  10.870  0.1995  0.2375 -0.8864
   17SAPC  H13A 2134   6.456   3.339  10.930 -1.5724 -2.2366  1.8028
   17SAPC  H13B 2135   6.475   3.165  10.925 -0.9767  0.9929  0.1030
   17SAPC  H13C 2136   6.596   3.257  10.848  0.0963 -0.0019 -1.4145
   17SAPC   C14 2137   6.486   3.132  10.684  0.4633 -0.1160  0.7204
   17SAPC  H14A 2138   6.447   3.127  10.584 -1.0429  1.2366  1.1989
   17SAPC  H14B 2139   6.594   3.137  10.674  0.3226  1.0041 -0.5491
   17SAPC  H14C 2140   6.459   3.038  10.730  3.8762 -1.4156  0.3606
   17SAPC   C15 2141   6.456   3.368  10.666  0.1527  0.1494  0.2059
   17SAPC  H15A 2142   6.433   3.460  10.718 -0.9510 -0.8303  1.5190
   17SAPC  H15B 2143   6.564   3.375  10.656  0.0784 -0.0008 -0.7887
   17SAPC  H15C 2144   6.412   3.371  10.567 -0.6075 -1.4488  0.4609
   17SAPC   C11 2145   6.171   3.228  10.650 -0.2807  0.6478 -0.2222
   17SAPC  H11A 2146   6.177   3.332  10.613  1.7543  1.1556  1.3287
   17SAPC  H11B 2147   6.075   3.194  10.694 -0.9280  0.6640 -1.5805
   17SAPC     P 2148   6.167   2.989  10.534  0.1432 -0.3616 -0.5519
   17SAPC   O13 2149   6.127   2.932  10.660 -0.9561 -0.3901 -0.7987
   17SAPC   O14 2150   6.057   2.997  10.438 -0.4200 -0.3110  0.2090
   17SAPC   O12 2151   6.222   3.132  10.558 -0.2644  0.2197  0.0901
   17SAPC   O11 2152   6.288   2.912  10.483  0.1476 -0.2597 -0.6207
   17SAPC    C1 2153   6.386   2.966  10.394  0.1772  0.6326  0.1740
   17SAPC    HA 2154   6.350   3.048  10.329  0.6554 -0.1380 -1.1073
   17SAPC    HB 2155   6.482   2.996  10.442 -0.8938  1.0671  2.1553
   17SAPC    C2 2156   6.423   2.848  10.295 -0.0082  0.1473  0.0695
   17SAPC    HS 2157   6.500   2.887  10.226 -1.0994  1.9468 -0.2063
   17SAPC   O21 2158   6.308   2.802  10.224  0.3263 -0.0852 -0.2769
   17SAPC   C21 2159   6.255   2.890  10.139  0.1270  0.0899 -0.4272
   17SAPC   O22 2160   6.307   2.993  10.101  0.1147 -0.1454 -0.1307
   17SAPC   C22 2161   6.108   2.849  10.097 -0.4776  0.0470 -0.0795
   17SAPC   H2R 2162   6.046   2.846  10.189  1.2659  1.0450  1.1793
   17SAPC   H2S 2163   6.072   2.937  10.040  2.0306  1.8349  0.9271
   17SAPC    C3 2164   6.492   2.732  10.377 -0.0281  0.0926  0.0912
   17SAPC    HX 2165   6.410   2.670  10.420  0.3733 -2.4400 -2.4845
   17SAPC    HY 2166   6.542   2.771  10.468  0.7018 -0.3106 -0.1323
   17SAPC   O31 2167   6.567   2.641  10.296  0.0712 -0.3650 -0.4876
   17SAPC   C31 2168   6.692   2.677  10.275  0.4503 -0.0317  0.2855
   17SAPC   O32 2169   6.744   2.779  10.318 -0.4366  0.6472  0.0856
   17SAPC   C32 2170   6.757   2.571  10.181 -0.5021 -0.1930 -0.9443
   17SAPC   H2X 2171   6.706   2.578  10.083  0.3086 -1.7117 -1.5184
   17SAPC   H2Y 2172   6.753   2.469  10.225 -2.0433  0.5873  0.8801
   17SAPC   C23 2173   6.109   2.711  10.031 -0.5467 -0.5336  0.2893
   17SAPC   H3R 2174   6.020   2.694   9.966 -0.8510  1.0918  0.2449
   17SAPC   H3S 2175   6.108   2.625  10.102 -2.7283 -1.1586 -0.4028
   17SAPC   C24 2176   6.234   2.680   9.942 -0.4284  0.0451  0.0449
   17SAPC   H4R 2177   6.221   2.573   9.915 -0.2225  0.1283 -0.3920
   17SAPC   H4S 2178   6.328   2.678  10.003  0.0933 -0.4587 -0.7582
   17SAPC   C25 2179   6.241   2.784   9.833  0.5339 -0.1591 -0.0453
   17SAPC   H5R 2180   6.244   2.888   9.868 -0.3989  0.0780 -0.6311
   17SAPC   C26 2181   6.221   2.763   9.701  0.2136 -0.3388 -0.5035
   17SAPC   H6R 2182   6.221   2.847   9.629 -1.4718 -0.2306 -0.4111
   17SAPC   C27 2183   6.191   2.632   9.646  0.6895 -0.3242  0.6926
   17SAPC   H7R 2184   6.138   2.566   9.718 -3.5032  0.5171 -1.2631
   17SAPC   H7S 2185   6.287   2.582   9.620  1.3913  0.8152  1.0108
   17SAPC   C28 2186   6.095   2.662   9.526  0.5499  0.4327  0.1255
   17SAPC   H8R 2187   5.986   2.647   9.531  0.4411 -0.0254 -2.2950
   17SAPC   C29 2188   6.135   2.675   9.398  0.1201  0.6161  0.2688
   17SAPC   H9R 2189   6.063   2.706   9.320  0.6098 -1.2210 -0.9735
   17SAPC  C210 2190   6.279   2.683   9.352  0.4029 -0.6312 -0.1588
   17SAPC  H10R 2191   6.332   2.760   9.412  0.1564  0.3830 -1.2106
   17SAPC  H10S 2192   6.275   2.730   9.252 -0.7165  0.7207  0.4682
   17SAPC  C211 2193   6.356   2.553   9.353 -0.6830 -0.7604  0.6149
   17SAPC  H11R 2194   6.436   2.545   9.428 -0.6130 -1.1046  0.5050
   17SAPC  C212 2195   6.335   2.449   9.271  0.1479 -0.0225 -0.2559
   17SAPC  H12R 2196   6.407   2.366   9.277 -0.5839 -0.6714 -0.2642
   17SAPC  C213 2197   6.221   2.429   9.172 -0.1558 -0.0307  1.1242
   17SAPC  H13R 2198   6.196   2.529   9.131  0.7131  0.5922  2.0510
   17SAPC  H13S 2199   6.135   2.396   9.235 -1.3969 -2.6985 -1.6931
   17SAPC  C214 2200   6.246   2.304   9.085  0.2763 -0.7458  0.0917
   17SAPC  H14R 2201   6.223   2.212   9.142 -1.6909  0.4824  1.3810
   17SAPC  C215 2202   6.269   2.297   8.955  0.2392 -0.7989 -0.4220
   17SAPC  H15R 2203   6.279   2.197   8.910  0.3927 -0.3380 -1.4456
   17SAPC  C216 2204   6.290   2.412   8.858  0.6935 -1.0510  0.0864
   17SAPC  H16R 2205   6.398   2.438   8.848  0.2645  0.1933 -1.9388
   17SAPC  H16S 2206   6.242   2.506   8.891  1.4821 -1.1010  1.4313
   17SAPC  C217 2207   6.238   2.369   8.718  0.3862 -0.4597 -0.4183
   17SAPC  H17R 2208   6.129   2.347   8.721  0.5618 -1.2701  1.2788
   17SAPC  H17S 2209   6.299   2.284   8.680 -1.1939 -1.1677 -1.4363
   17SAPC  C218 2210   6.257   2.480   8.613  0.6486  0.3251  0.3598
   17SAPC  H18R 2211   6.329   2.560   8.640  0.2093  0.3743  1.4436
   17SAPC  H18S 2212   6.163   2.539   8.614  0.3447 -0.1471  0.4715
   17SAPC  C219 2213   6.280   2.421   8.474 -0.3080  0.5188  0.5057
   17SAPC  H19R 2214   6.198   2.349   8.452 -0.9199  1.2313  0.4299
   17SAPC  H19S 2215   6.373   2.360   8.477 -0.4936  0.2618  2.1813
   17SAPC  C220 2216   6.285   2.525   8.356  0.6241 -0.2056 -0.6173
   17SAPC  H20R 2217   6.357   2.606   8.380  1.4186 -1.1586  0.3681
   17SAPC  H20S 2218   6.191   2.583   8.359  0.6397 -0.2215  1.2739
   17SAPC  H20T 2219   6.299   2.484   8.254 -2.2302 -2.0784 -0.3687
   17SAPC   C33 2220   6.904   2.596  10.157  0.0556 -0.2369 -0.7013
   17SAPC   H3X 2221   6.958   2.499  10.150 -0.2289 -0.5389  0.8128
   17SAPC   H3Y 2222   6.948   2.643  10.248  1.7925 -2.5454 -0.2644
   17SAPC   C34 2223   6.932   2.676  10.026  0.3215 -0.7283 -0.3893
   17SAPC   H4X 2224   6.864   2.764  10.022  1.5912  0.2514 -1.3774
   17SAPC   H4Y 2225   6.909   2.612   9.937  1.2691 -0.5303 -0.7873
   17SAPC   C35 2226   7.078   2.727  10.019  0.5802  0.0338  0.6429
   17SAPC   H5X 2227   7.146   2.651  10.062 -1.3894 -0.8739  2.3704
   17SAPC   H5Y 2228   7.074   2.821  10.078 -1.4927  1.5751 -1.7499
   17SAPC   C36 2229   7.129   2.784   9.877 -0.0307 -1.1559 -0.2386
   17SAPC   H6X 2230   7.234   2.820   9.881 -0.8744  1.7845 -1.6668
   17SAPC   H6Y 2231   7.061   2.871   9.862  3.0891  1.7251  1.1950
   17SAPC   C37 2232   7.108   2.683   9.770  0.3175  0.5500 -0.2128
   17SAPC   H7X 2233   6.997   2.684   9.759  0.3304  1.2022 -0.3708
   17SAPC   H7Y 2234   7.129   2.577   9.793 -0.5027  0.3403 -0.3805
   17SAPC   C38 2235   7.170   2.743   9.646  0.1834 -0.2571  0.0212
   17SAPC   H8X 2236   7.281   2.737   9.650  0.4947 -0.1696 -3.9600
   17SAPC   H8Y 2237   7.171   2.852   9.624  1.9318 -0.0445  0.9474
   17SAPC   C39 2238   7.109   2.686   9.517 -0.0779 -0.4949 -0.0526
   17SAPC   H9X 2239   6.998   2.695   9.527  0.1460  0.9061  1.6454
   17SAPC   H9Y 2240   7.140   2.580   9.509 -0.5777 -0.7301  0.9508
   17SAPC  C310 2241   7.165   2.764   9.392  0.2058  0.1971  0.0147
   17SAPC  H10X 2242   7.275   2.756   9.399  0.0854 -0.1685  1.8215
   17SAPC  H10Y 2243   7.131   2.870   9.403 -1.5372 -0.3058 -0.2021
   17SAPC  C311 2244   7.125   2.715   9.251 -0.2346  0.3353 -0.3868
   17SAPC  H11X 2245   7.188   2.778   9.184 -0.1774 -0.0919 -0.7429
   17SAPC  H11Y 2246   7.016   2.728   9.234 -1.0479 -1.5872  2.5354
   17SAPC  C312 2247   7.149   2.564   9.226 -0.2586  0.1787  0.0182
   17SAPC  H12X 2248   7.064   2.520   9.283  0.2227 -0.7066  0.0721
   17SAPC  H12Y 2249   7.246   2.525   9.261 -0.3781 -1.2499 -1.1488
   17SAPC  C313 2250   7.131   2.529   9.081  0.5965  0.7714  0.1431
   17SAPC  H13X 2251   7.204   2.591   9.023  1.2400  0.5130  0.6582
   17SAPC  H13Y 2252   7.029   2.559   9.051  0.4271 -0.6879 -0.8334
   17SAPC  C314 2253   7.160   2.383   9.050  0.2156  0.4787 -0.3047
   17SAPC  H14X 2254   7.081   2.312   9.081 -0.2528  0.5607 -1.2625
   17SAPC  H14Y 2255   7.257   2.342   9.086  1.5445  0.8390 -3.1536
   17SAPC  C315 2256   7.164   2.352   8.893 -0.6020 -0.1325 -0.0880
   17SAPC  H15X 2257   7.073   2.385   8.838  0.1416 -0.0383 -1.2968
   17SAPC  H15Y 2258   7.172   2.242   8.885 -1.0373 -0.0857 -1.3835
   17SAPC  C316 2259   7.278   2.414   8.815 -0.3134  0.0391  0.0088
   17SAPC  H16X 2260   7.303   2.520   8.834 -1.1495  0.0888  0.9292
   17SAPC  H16Y 2261   7.249   2.394   8.710  2.4997 -2.5752 -0.4317
   17SAPC  C317 2262   7.407   2.330   8.809 -1.6923  0.0740  0.5994
   17SAPC  H17X 2263   7.389   2.223   8.782  0.4852 -0.1565 -0.0671
   17SAPC  H17Y 2264   7.457   2.329   8.908 -0.3939 -0.4645 -0.0418
   17SAPC  C318 2265   7.493   2.377   8.694 -0.5040 -0.6758  0.1419
   17SAPC  H18X 2266   7.524   2.483   8.708 -0.6187 -0.5509 -0.5036
   17SAPC  H18Y 2267   7.587   2.318   8.692  0.7483  1.0348  2.7734
   17SAPC  H18Z 2268   7.436   2.379   8.598 -0.6551 -1.1455  0.2180
   18SAPC     N 2269   0.593   3.049  10.623 -0.4397 -0.1680  0.2873
   18SAPC   C12 2270   0.690   2.939  10.580 -0.0178 -0.1008 -0.1290
   18SAPC  H12A 2271   0.635   2.848  10.563 -0.9276  0.0845  1.5488
   18SAPC  H12B 2272   0.759   2.927  10.663  0.3622  2.8123  0.0952
   18SAPC   C13 2273   0.490   3.084  10.522  0.0312  0.1434  0.2896
   18SAPC  H13A 2274   0.410   3.011  10.523  0.2410 -0.1173 -0.7540
   18SAPC  H13B 2275   0.445   3.181  10.538 -3.4937 -1.5193  1.4794
   18SAPC  H13C 2276   0.541   3.096  10.428 -1.4700  1.4992 -0.4058
   18SAPC   C14 2277   0.519   3.017  10.746  0.3058 -0.5401 -0.1317
   18SAPC  H14A 2278   0.581   3.027  10.834 -0.8803 -0.5285  0.7267
   18SAPC  H14B 2279   0.432   3.078  10.767 -0.0955 -0.7459 -1.1296
   18SAPC  H14C 2280   0.479   2.920  10.721 -1.3937 -0.0703  0.6305
   18SAPC   C15 2281   0.678   3.171  10.653 -0.4990 -0.5898  0.3189
   18SAPC  H15A 2282   0.729   3.207  10.564  1.6422 -2.7719  0.5432
   18SAPC  H15B 2283   0.619   3.244  10.706  0.3117 -0.6934  1.4013
   18SAPC  H15C 2284   0.765   3.145  10.712 -0.4252  1.3350  1.1188
   18SAPC   C11 2285   0.769   2.968  10.450 -0.0837 -0.3651 -0.2260
   18SAPC  H11A 2286   0.702   3.010  10.372  2.5595  1.0277 -1.9082
   18SAPC  H11B 2287   0.803   2.875  10.400  2.3639  0.1975  0.2684
   18SAPC     P 2288   1.011   3.015  10.533  0.2502 -0.4584 -0.2706
   18SAPC   O13 2289   1.098   3.135  10.552  0.4292  0.1850  0.2087
   18SAPC   O14 2290   0.980   2.939  10.653 -0.1099 -0.1637 -0.2023
   18SAPC   O12 2291   0.876   3.070  10.468 -0.4453 -0.2135 -0.3149
   18SAPC   O11 2292   1.084   2.923  10.430  0.4754 -0.1905  0.7242
   18SAPC    C1 2293   1.085   2.965  10.289 -0.0583  0.9027 -0.2168
   18SAPC    HA 2294   1.120   2.882  10.224  1.1306  1.1741  0.0424
   18SAPC    HB 2295   0.990   2.998  10.243 -0.9894 -0.8711  0.3481
   18SAPC    C2 2296   1.197   3.068  10.249 -0.0762  0.1116  0.5304
   18SAPC    HS 2297   1.172   3.159  10.307 -1.0400  0.4609 -0.4151
   18SAPC   O21 2298   1.205   3.092  10.107 -0.0749 -0.0184 -0.6190
   18SAPC   C21 2299   1.098   3.149  10.054  0.4191 -0.1367  0.6239
   18SAPC   O22 2300   1.002   3.195  10.112  0.4811 -0.0908  0.3206
   18SAPC   C22 2301   1.102   3.142   9.902  0.5695  0.0232 -0.5976
   18SAPC   H2R 2302   1.163   3.227   9.864 -0.6957  1.6331  0.7846
   18SAPC   H2S 2303   1.148   3.043   9.882  0.5422 -0.2598  0.6125
   18SAPC    C3 2304   1.339   3.040  10.299  0.7644 -0.1816 -0.0200
   18SAPC    HX 2305   1.308   3.028  10.405  0.3596  1.1373  0.0196
   18SAPC    HY 2306   1.412   3.124  10.294  1.2647 -0.5386  1.0226
   18SAPC   O31 2307   1.394   2.922  10.238  0.0354 -0.3374 -0.5794
   18SAPC   C31 2308   1.459   2.844  10.320  0.1130 -0.0418  0.1431
   18SAPC   O32 2309   1.480   2.856  10.437  0.0510  0.0117 -0.6740
   18SAPC   C32 2310   1.507   2.721  10.235 -0.6777  0.4887 -0.0033
   18SAPC   H2X 2311   1.528   2.648  10.317 -0.0045  0.8081  0.1169
   18SAPC   H2Y 2312   1.604   2.739  10.185 -0.0889 -4.6461 -1.2869
   18SAPC   C23 2313   0.965   3.151   9.840  0.0527 -0.3862  0.9900
   18SAPC   H3R 2314   0.904   3.236   9.875 -1.7426 -0.7121 -1.0937
   18SAPC   H3S 2315   0.901   3.063   9.861 -0.3394 -0.1888  0.6393
   18SAPC   C24 2316   0.971   3.176   9.690  0.3666 -0.1338  0.0520
   18SAPC   H4R 2317   1.044   3.260   9.688  1.4103 -0.9270  1.9716
   18SAPC   H4S 2318   0.872   3.217   9.659  0.5393 -0.9485 -1.6360
   18SAPC   C25 2319   1.010   3.066   9.606 -0.5064  0.4174 -0.1235
   18SAPC   H5R 2320   1.049   2.977   9.658  1.9431  1.3850 -0.1411
   18SAPC   C26 2321   1.008   3.063   9.470 -0.1205 -0.2688  0.4952
   18SAPC   H6R 2322   1.039   2.976   9.409 -1.6793  1.0308 -2.3384
   18SAPC   C27 2323   0.968   3.175   9.383  0.6381 -0.6709  0.1870
   18SAPC   H7R 2324   0.937   3.269   9.434  1.0447 -0.7717  0.6297
   18SAPC   H7S 2325   0.872   3.151   9.333 -0.3014  0.5539  1.3361
   18SAPC   C28 2326   1.075   3.218   9.282 -0.4507 -0.3008 -0.6146
   18SAPC   H8R 2327   1.138   3.301   9.317  0.3705 -1.3328  0.4507
   18SAPC   C29 2328   1.085   3.163   9.161 -0.7717 -0.1511  0.7302
   18SAPC   H9R 2329   1.163   3.199   9.093 -1.3779  0.5145  0.3617
   18SAPC  C210 2330   0.996   3.056   9.101  0.0414  0.1116  0.3888
   18SAPC  H10R 2331   0.950   2.988   9.177  0.0991  0.3353  0.6236
   18SAPC  H10S 2332   1.065   2.997   9.038 -0.0724  0.5646 -0.1605
   18SAPC  C211 2333   0.890   3.109   9.002  0.3077 -0.0969 -0.6685
   18SAPC  H11R 2334   0.821   3.171   9.061  1.7122 -0.3979  1.4264
   18SAPC  C212 2335   0.870   3.093   8.870 -0.0902 -0.0378  0.2391
   18SAPC  H12R 2336   0.792   3.152   8.820 -1.1062  0.3098  2.1483
   18SAPC  C213 2337   0.964   3.007   8.786  0.1127 -0.1288  0.1878
   18SAPC  H13R 2338   1.017   2.941   8.858 -0.7597 -0.8929  0.1420
   18SAPC  H13S 2339   1.036   3.075   8.736  0.7791  0.3642  1.7751
   18SAPC  C214 2340   0.894   2.923   8.688 -0.1087 -0.1142 -0.8269
   18SAPC  H14R 2341   0.794   2.891   8.721 -0.7980  2.3209 -0.3424
   18SAPC  C215 2342   0.940   2.881   8.569  0.3668 -0.2261 -0.7501
   18SAPC  H15R 2343   0.880   2.823   8.497 -1.3791 -1.4073  1.5103
   18SAPC  C216 2344   1.080   2.899   8.516 -1.1568  0.0809 -0.3795
   18SAPC  H16R 2345   1.126   2.800   8.499 -1.8938 -0.4383  0.5396
   18SAPC  H16S 2346   1.146   2.954   8.587 -1.5809  0.2661 -0.1227
   18SAPC  C217 2347   1.083   2.984   8.385  0.3879 -0.2849 -0.2467
   18SAPC  H17R 2348   1.186   2.998   8.345 -0.7951 -0.4565 -3.6891
   18SAPC  H17S 2349   1.045   3.084   8.413  0.5898 -0.5553  1.0974
   18SAPC  C218 2350   1.001   2.920   8.263 -0.5126  0.1444  0.1827
   18SAPC  H18R 2351   0.897   2.961   8.263  0.6642  3.4334  0.5225
   18SAPC  H18S 2352   1.001   2.809   8.268  1.1059  0.1985  1.9994
   18SAPC  C219 2353   1.048   2.960   8.121  0.4520  0.1751  0.8255
   18SAPC  H19R 2354   1.159   2.967   8.127  0.4980  0.2968 -0.0558
   18SAPC  H19S 2355   1.008   3.058   8.088 -2.2728 -0.8191  0.9222
   18SAPC  C220 2356   1.004   2.859   8.014 -0.7620 -0.5916  0.7254
   18SAPC  H20R 2357   0.894   2.870   8.006 -0.8956 -0.9156  1.9246
   18SAPC  H20S 2358   1.030   2.759   8.055 -0.4419 -0.7355  0.1828
   18SAPC  H20T 2359   1.052   2.870   7.914  1.2017 -3.4045  1.2404
   18SAPC   C33 2360   1.415   2.657  10.128 -0.1211 -0.1505  1.1888
   18SAPC   H3X 2361   1.327   2.605  10.171  2.0305 -3.6831  1.8149
   18SAPC   H3Y 2362   1.473   2.580  10.072 -2.0069  0.1637 -1.3727
   18SAPC   C34 2363   1.365   2.757  10.012 -0.0062  0.1000  0.3314
   18SAPC   H4X 2364   1.429   2.839   9.975 -0.4900  0.1886 -0.3135
   18SAPC   H4Y 2365   1.281   2.818  10.051  0.1449  0.6406 -0.1701
   18SAPC   C35 2366   1.313   2.679   9.892  0.3205  0.5410 -0.6579
   18SAPC   H5X 2367   1.214   2.632   9.911  1.6608 -1.3697  2.3663
   18SAPC   H5Y 2368   1.381   2.591   9.886  0.0171  0.3523 -1.4010
   18SAPC   C36 2369   1.318   2.769   9.769 -0.5122 -0.8241 -0.7656
   18SAPC   H6X 2370   1.414   2.823   9.755 -0.7028  0.1790  1.3652
   18SAPC   H6Y 2371   1.237   2.846   9.767  2.2259  2.2729 -2.3794
   18SAPC   C37 2372   1.280   2.682   9.647 -0.2310  0.3853 -0.0540
   18SAPC   H7X 2373   1.176   2.645   9.654  0.0237 -0.6352 -1.2843
   18SAPC   H7Y 2374   1.355   2.602   9.628 -0.5728  0.2979 -1.0529
   18SAPC   C38 2375   1.302   2.768   9.522 -0.0641  0.4179 -0.1105
   18SAPC   H8X 2376   1.409   2.798   9.520 -0.2350  1.0300 -1.0140
   18SAPC   H8Y 2377   1.241   2.861   9.530 -0.4726  0.0581  1.2267
   18SAPC   C39 2378   1.266   2.704   9.384 -0.1307  0.3622  0.6561
   18SAPC   H9X 2379   1.160   2.674   9.378  0.3793 -1.2606 -2.1697
   18SAPC   H9Y 2380   1.334   2.617   9.367  0.2124  0.3959  1.7755
   18SAPC  C310 2381   1.299   2.804   9.266 -0.0635  0.2882 -0.1629
   18SAPC  H10X 2382   1.407   2.819   9.289  0.1229 -2.6254  1.3616
   18SAPC  H10Y 2383   1.247   2.901   9.277 -0.6690 -0.1411  0.9980
   18SAPC  C311 2384   1.273   2.735   9.135 -0.1288 -0.0878  0.4995
   18SAPC  H11X 2385   1.163   2.729   9.119 -0.0436 -0.0431 -0.1311
   18SAPC  H11Y 2386   1.315   2.633   9.144  0.5835  0.2433  0.9995
   18SAPC  C312 2387   1.337   2.812   9.016 -0.1009 -0.3519 -0.2583
   18SAPC  H12X 2388   1.447   2.801   9.026 -0.1354  1.0180  2.4633
   18SAPC  H12Y 2389   1.318   2.919   9.036 -1.6042 -0.6874  0.2543
   18SAPC  C313 2390   1.294   2.755   8.885  0.4933  0.0858 -0.3033
   18SAPC  H13X 2391   1.193   2.798   8.868  0.8058  1.3210  0.8463
   18SAPC  H13Y 2392   1.282   2.645   8.888 -0.2580  0.1537  3.1564
   18SAPC  C314 2393   1.382   2.801   8.773 -1.0943  0.1649  0.3026
   18SAPC  H14X 2394   1.350   2.757   8.676  0.7160 -0.0158 -0.2473
   18SAPC  H14Y 2395   1.480   2.759   8.805 -1.1091  0.1501  0.3286
   18SAPC  C315 2396   1.398   2.953   8.757 -0.2920 -0.1003 -1.0394
   18SAPC  H15X 2397   1.458   3.009   8.832 -0.7868 -1.2356  0.2582
   18SAPC  H15Y 2398   1.298   3.001   8.760  0.2288  0.9813  1.7804
   18SAPC  C316 2399   1.450   2.996   8.624  0.1985 -0.0068  0.0858
   18SAPC  H16X 2400   1.399   2.938   8.544  1.8216  1.1988 -1.9175
   18SAPC  H16Y 2401   1.558   2.971   8.612  0.2826 -0.1966  1.1470
   18SAPC  C317 2402   1.433   3.145   8.601  0.5056  0.8716 -1.2715
   18SAPC  H17X 2403   1.485   3.190   8.688  0.3061  1.7725 -1.6086
   18SAPC  H17Y 2404   1.326   3.173   8.614  0.6804  0.1421  3.8720
   18SAPC  C318 2405   1.473   3.210   8.472 -0.1612  0.2737 -0.2347
   18SAPC  H18X 2406   1.580   3.209   8.442 -1.2535  0.1378 -4.8694
   18SAPC  H18Y 2407   1.457   3.320   8.471  0.3037  0.3626  0.6354
   18SAPC  H18Z 2408   1.403   3.169   8.397 -1.0454 -0.2503  0.8413
   19SAPC     N 2409   5.365   3.158  10.658 -0.1936 -1.0651 -0.0872
   19SAPC   C12 2410   5.342   3.284  10.576  0.8375 -0.3594  0.8428
   19SAPC  H12A 2411   5.249   3.268  10.523 -0.1049 -0.7624  2.5176
   19SAPC  H12B 2412   5.408   3.299  10.493 -0.8662 -1.4860 -0.8123
   19SAPC   C13 2413   5.391   3.053  10.557 -0.3700  0.2888  0.1146
   19SAPC  H13A 2414   5.471   3.075  10.487 -1.9909 -0.5981 -2.1270
   19SAPC  H13B 2415   5.417   2.961  10.607  1.1411 -0.1295 -1.3228
   19SAPC  H13C 2416   5.312   3.026  10.489  0.7011 -0.9312 -0.6856
   19SAPC   C14 2417   5.481   3.171  10.754 -0.5971 -0.3639  0.4288
   19SAPC  H14A 2418   5.467   3.247  10.830 -2.3139  0.0511 -0.2637
   19SAPC  H14B 2419   5.504   3.082  10.810 -2.4028 -0.7037  0.6838
   19SAPC  H14C 2420   5.568   3.198  10.695 -0.4400  0.2693  0.9298
   19SAPC   C15 2421   5.238   3.114  10.728 -0.0804  0.1259 -0.2300
   19SAPC  H15A 2422   5.190   3.195  10.782 -0.8189 -0.1492 -0.4647
   19SAPC  H15B 2423   5.156   3.092  10.662  0.3120 -2.0521 -0.0395
   19SAPC  H15C 2424   5.257   3.019  10.775  1.2269 -0.6845 -2.2679
   19SAPC   C11 2425   5.319   3.418  10.647 -0.8454  1.2713  0.2367
   19SAPC  H11A 2426   5.292   3.504  10.582  0.9432  2.4519  0.9815
   19SAPC  H11B 2427   5.415   3.444  10.696 -0.7213  0.3979  0.4825
   19SAPC     P 2428   5.063   3.444  10.697 -0.2759 -0.4435  0.5449
   19SAPC   O13 2429   4.967   3.384  10.794 -0.5625 -0.0467  0.2980
   19SAPC   O14 2430   5.059   3.591  10.674  0.4317 -0.1357  0.0072
   19SAPC   O12 2431   5.213   3.414  10.752 -0.4504  0.2375 -0.1066
   19SAPC   O11 2432   5.051   3.363  10.555  0.7908 -0.7089 -0.2707
   19SAPC    C1 2433   4.965   3.420  10.455  0.0224 -0.1598  0.3978
   19SAPC    HA 2434   4.995   3.524  10.431  0.0633 -0.4203 -0.7381
   19SAPC    HB 2435   4.992   3.354  10.370  2.0245  0.3268  0.6046
   19SAPC    C2 2436   4.812   3.406  10.475 -0.0920  0.5381  0.7622
   19SAPC    HS 2437   4.802   3.401  10.586  2.6232 -0.9688  1.0434
   19SAPC   O21 2438   4.774   3.281  10.415  0.3759 -0.7702  0.1818
   19SAPC   C21 2439   4.657   3.238  10.448 -0.7052  0.3497 -0.0346
   19SAPC   O22 2440   4.575   3.280  10.526 -0.6245 -0.4964  0.3329
   19SAPC   C22 2441   4.637   3.105  10.367  0.4111 -0.2879 -0.1871
   19SAPC   H2R 2442   4.735   3.066  10.334 -0.4973 -1.1648 -1.9728
   19SAPC   H2S 2443   4.578   3.028  10.421 -0.8369 -0.7167 -2.0682
   19SAPC    C3 2444   4.731   3.530  10.422  0.0434  1.1382 -0.2454
   19SAPC    HX 2445   4.758   3.615  10.489  1.2223 -0.2065  1.0734
   19SAPC    HY 2446   4.623   3.509  10.435 -0.0498  0.6985 -1.6528
   19SAPC   O31 2447   4.770   3.545  10.287 -0.2241  0.3229  0.2374
   19SAPC   C31 2448   4.686   3.521  10.190 -0.4230  0.0245 -0.1110
   19SAPC   O32 2449   4.575   3.472  10.204  0.0791  0.8464 -0.1690
   19SAPC   C32 2450   4.737   3.576  10.060  0.4670  0.0368 -0.0895
   19SAPC   H2X 2451   4.845   3.555  10.048  0.5149  0.1828  0.0917
   19SAPC   H2Y 2452   4.726   3.686  10.066  2.2004  0.1533  2.0409
   19SAPC   C23 2453   4.563   3.130  10.231 -0.1123  0.0785  0.7441
   19SAPC   H3R 2454   4.625   3.195  10.165  1.0292 -0.7491  0.9674
   19SAPC   H3S 2455   4.468   3.179  10.258 -1.2855 -1.6220 -0.0883
   19SAPC   C24 2456   4.520   2.994  10.163  0.3798 -0.2270 -0.2527
   19SAPC   H4R 2457   4.465   3.021  10.069  1.7703  2.2149 -0.4484
   19SAPC   H4S 2458   4.446   2.955  10.236  0.3250 -0.1592 -0.2724
   19SAPC   C25 2459   4.631   2.896  10.133 -0.2524 -0.4413  0.0416
   19SAPC   H5R 2460   4.685   2.845  10.215  1.0843  0.3096 -0.3475
   19SAPC   C26 2461   4.668   2.868  10.004  0.4888  0.1026  0.3404
   19SAPC   H6R 2462   4.752   2.800   9.985  0.7746  0.7388 -0.7190
   19SAPC   C27 2463   4.610   2.920   9.872 -0.1216 -0.3418 -0.0831
   19SAPC   H7R 2464   4.684   2.906   9.790 -1.2986 -0.8837 -1.0797
   19SAPC   H7S 2465   4.599   3.030   9.884  0.5206 -0.0235 -2.0148
   19SAPC   C28 2466   4.482   2.855   9.831 -0.2704  0.6831  0.0215
   19SAPC   H8R 2467   4.424   2.831   9.922  0.5246  0.2648  0.4242
   19SAPC   C29 2468   4.416   2.836   9.710 -0.2620 -0.3090 -0.0259
   19SAPC   H9R 2469   4.322   2.779   9.708  0.2087 -1.0811 -0.8034
   19SAPC  C210 2470   4.463   2.886   9.577 -0.2921 -0.1327 -0.4037
   19SAPC  H10R 2471   4.556   2.832   9.551  0.8170 -0.2086  3.2688
   19SAPC  H10S 2472   4.488   2.993   9.596  0.8810 -0.5799  0.7102
   19SAPC  C211 2473   4.351   2.873   9.484  0.1014 -0.8142 -0.3482
   19SAPC  H11R 2474   4.273   2.949   9.495  0.2286 -0.8760  1.1470
   19SAPC  C212 2475   4.339   2.769   9.401  0.2366 -0.4705  0.1343
   19SAPC  H12R 2476   4.254   2.748   9.333 -0.5988 -1.1226  1.3505
   19SAPC  C213 2477   4.431   2.649   9.393  0.5120 -0.8130  0.1885
   19SAPC  H13R 2478   4.514   2.641   9.465 -0.9042 -0.9280  1.8640
   19SAPC  H13S 2479   4.474   2.652   9.290 -0.2597 -0.4982 -0.1376
   19SAPC  C214 2480   4.352   2.520   9.402 -0.5891 -0.0669 -0.4201
   19SAPC  H14R 2481   4.290   2.524   9.493 -0.3418  0.2681 -0.2624
   19SAPC  C215 2482   4.331   2.427   9.310  0.6926  0.3737 -0.2825
   19SAPC  H15R 2483   4.268   2.342   9.340  1.1071  1.0658  2.8948
   19SAPC  C216 2484   4.380   2.428   9.171  0.0314  0.8745  0.9029
   19SAPC  H16R 2485   4.428   2.328   9.162 -1.7686  0.0782 -0.7071
   19SAPC  H16S 2486   4.446   2.515   9.154 -0.8050  1.2910 -0.3539
   19SAPC  C217 2487   4.271   2.433   9.071  0.6826  0.3039 -0.0759
   19SAPC  H17R 2488   4.233   2.536   9.053  1.5519  0.2417 -2.7936
   19SAPC  H17S 2489   4.193   2.360   9.100  1.6128 -0.5961  0.2218
   19SAPC  C218 2490   4.318   2.396   8.924 -0.3197 -0.3709  0.2962
   19SAPC  H18R 2491   4.412   2.453   8.913  0.0335 -1.0424 -0.2133
   19SAPC  H18S 2492   4.244   2.430   8.848  1.6190 -0.7144 -1.8493
   19SAPC  C219 2493   4.340   2.241   8.897  0.1396  0.2812  0.0678
   19SAPC  H19R 2494   4.406   2.201   8.977  1.5308  1.5952 -0.3672
   19SAPC  H19S 2495   4.401   2.236   8.805 -1.4570  0.0619 -1.0203
   19SAPC  C220 2496   4.218   2.156   8.901 -0.0353 -0.4081  1.0059
   19SAPC  H20R 2497   4.231   2.047   8.883 -1.8846 -0.4552 -0.3981
   19SAPC  H20S 2498   4.138   2.186   8.830  0.0070 -0.3121  0.9985
   19SAPC  H20T 2499   4.173   2.169   9.001  2.3080  2.6493  1.8208
   19SAPC   C33 2500   4.660   3.517   9.930 -0.2900 -0.0136 -0.1545
   19SAPC   H3X 2501   4.552   3.528   9.954 -0.0265 -0.8384  1.5943
   19SAPC   H3Y 2502   4.671   3.407   9.931  0.4703  0.0499  1.3649
   19SAPC   C34 2503   4.700   3.595   9.806 -0.0330  0.2196 -0.0092
   19SAPC   H4X 2504   4.800   3.566   9.767  0.0770  0.8924 -0.2397
   19SAPC   H4Y 2505   4.699   3.705   9.822  0.5969  0.4924 -1.6738
   19SAPC   C35 2506   4.588   3.570   9.701  0.5717  0.1245  0.0679
   19SAPC   H5X 2507   4.493   3.601   9.749  1.8098 -0.9283  3.4523
   19SAPC   H5Y 2508   4.583   3.459   9.690 -0.0486  0.1928 -0.4282
   19SAPC   C36 2509   4.585   3.662   9.580 -0.2056  0.2536  0.5415
   19SAPC   H6X 2510   4.615   3.768   9.599  0.7230  0.2289 -0.6568
   19SAPC   H6Y 2511   4.480   3.652   9.548  0.0968 -1.5543  0.0213
   19SAPC   C37 2512   4.686   3.617   9.471  0.1456 -0.2412  0.7321
   19SAPC   H7X 2513   4.665   3.511   9.445 -0.7049  0.5233 -1.9776
   19SAPC   H7Y 2514   4.789   3.624   9.511 -0.1674  1.3986  1.3397
   19SAPC   C38 2515   4.692   3.699   9.341  0.3917 -0.0086  0.0781
   19SAPC   H8X 2516   4.594   3.732   9.300  1.6138  0.2996 -2.7659
   19SAPC   H8Y 2517   4.749   3.634   9.272 -2.3231 -3.0211  0.4690
   19SAPC   C39 2518   4.772   3.823   9.362  0.2186  0.9391 -1.0674
   19SAPC   H9X 2519   4.867   3.810   9.418  0.5226  1.8803 -1.3430
   19SAPC   H9Y 2520   4.711   3.886   9.430 -0.5795 -0.8516 -0.0418
   19SAPC  C310 2521   4.797   3.905   9.236  0.2849 -0.4231  0.5315
   19SAPC  H10X 2522   4.817   4.008   9.272  0.9483 -0.4278  0.2025
   19SAPC  H10Y 2523   4.700   3.901   9.181 -0.0145  0.9344  0.9391
   19SAPC  C311 2524   4.911   3.862   9.141 -0.1031 -0.0200 -0.4906
   19SAPC  H11X 2525   4.904   3.752   9.129 -0.4301  0.0720 -1.2442
   19SAPC  H11Y 2526   5.006   3.881   9.194  0.3702 -2.1118 -0.5136
   19SAPC  C312 2527   4.900   3.928   9.002  0.5539 -0.3216 -0.2914
   19SAPC  H12X 2528   4.883   4.038   9.010  0.5286 -0.4057  1.2242
   19SAPC  H12Y 2529   4.803   3.888   8.967 -0.4921  1.7656  0.0280
   19SAPC  C313 2530   5.014   3.896   8.909 -0.0848  0.6956 -0.1547
   19SAPC  H13X 2531   5.030   3.786   8.909  0.6887  0.7866 -1.9987
   19SAPC  H13Y 2532   5.098   3.956   8.950  0.3108 -0.8456  1.3856
   19SAPC  C314 2533   4.975   3.939   8.766 -0.4524  0.8837  0.6169
   19SAPC  H14X 2534   4.944   4.045   8.758 -3.0936  0.0654 -1.5222
   19SAPC  H14Y 2535   4.888   3.872   8.746  2.0091 -3.1503  2.1488
   19SAPC  C315 2536   5.092   3.921   8.660 -0.6004 -0.1952 -0.0827
   19SAPC  H15X 2537   5.161   4.008   8.665  0.5691 -1.0564 -0.5761
   19SAPC  H15Y 2538   5.050   3.913   8.558  0.0619 -1.2756 -0.2935
   19SAPC  C316 2539   5.156   3.784   8.665 -0.3339  0.2894 -0.6572
   19SAPC  H16X 2540   5.078   3.707   8.645 -0.4103 -0.1365  1.1092
   19SAPC  H16Y 2541   5.204   3.765   8.764 -0.3324  2.2240 -0.2504
   19SAPC  C317 2542   5.271   3.759   8.560 -0.1416 -0.6123  0.3468
   19SAPC  H17X 2543   5.337   3.678   8.597  1.7136  0.3910 -0.6645
   19SAPC  H17Y 2544   5.335   3.849   8.564  0.5477 -0.9578 -1.9825
   19SAPC  C318 2545   5.219   3.720   8.425  0.3742  0.2368  0.0825
   19SAPC  H18X 2546   5.119   3.769   8.416  0.4521  0.5305  0.7795
   19SAPC  H18Y 2547   5.197   3.612   8.414  0.7814  0.3472 -2.3539
   19SAPC  H18Z 2548   5.275   3.770   8.343 -0.5308  1.3645  0.1176
   20SAPC     N 2549   1.834   1.708  10.992 -0.2721 -0.5777 -0.1900
   20SAPC   C12 2550   1.804   1.606  10.881 -0.3074  0.3350 -0.4666
   20SAPC  H12A 2551   1.893   1.605  10.820 -2.1013 -0.5647 -3.2409
   20SAPC  H12B 2552   1.732   1.638  10.808  0.1864 -0.1205 -1.1680
   20SAPC   C13 2553   1.864   1.842  10.930 -0.1006  0.8652 -0.7338
   20SAPC  H13A 2554   1.858   1.919  11.005 -1.1577  0.9957 -0.9355
   20SAPC  H13B 2555   1.959   1.847  10.879  0.7826  0.0947  0.7589
   20SAPC  H13C 2556   1.779   1.875  10.872 -0.4311 -0.5576 -1.1110
   20SAPC   C14 2557   1.722   1.717  11.085  0.6033 -0.0859 -0.0418
   20SAPC  H14A 2558   1.737   1.798  11.155  3.1513 -0.9857  0.5778
   20SAPC  H14B 2559   1.632   1.743  11.031  1.5579  3.4471 -0.1607
   20SAPC  H14C 2560   1.708   1.623  11.136  1.2911  1.4947  3.3879
   20SAPC   C15 2561   1.956   1.667  11.070  0.5368 -0.0724  0.1786
   20SAPC  H15A 2562   1.954   1.560  11.088  3.4432 -0.4332 -1.0788
   20SAPC  H15B 2563   2.051   1.688  11.023 -0.5052  0.5621 -1.7191
   20SAPC  H15C 2564   1.953   1.731  11.157 -0.1692  1.2564 -0.7896
   20SAPC   C11 2565   1.780   1.455  10.924 -0.1192 -0.0072  0.8240
   20SAPC  H11A 2566   1.871   1.422  10.978 -1.3608 -1.1601  2.2854
   20SAPC  H11B 2567   1.763   1.390  10.836 -1.2888 -1.4468  2.0600
   20SAPC     P 2568   1.516   1.451  10.948  0.1235  0.2208 -0.1243
   20SAPC   O13 2569   1.493   1.332  10.863  0.6416 -0.0917 -0.1405
   20SAPC   O14 2570   1.416   1.478  11.056 -0.6071 -0.2248 -0.0509
   20SAPC   O12 2571   1.669   1.452  11.005  0.5435 -0.3553 -0.2454
   20SAPC   O11 2572   1.513   1.578  10.850  0.7464  0.1011  0.3195
   20SAPC    C1 2573   1.466   1.576  10.712  0.3254 -0.5659 -0.5126
   20SAPC    HA 2574   1.533   1.513  10.650  0.0033 -0.6738 -0.7519
   20SAPC    HB 2575   1.365   1.531  10.705  0.2555 -0.2019 -2.0234
   20SAPC    C2 2576   1.459   1.719  10.654 -0.3173 -0.4812 -0.6701
   20SAPC    HS 2577   1.394   1.779  10.722  1.4046  0.1671  0.4814
   20SAPC   O21 2578   1.401   1.710  10.515 -0.1814 -0.5483 -0.0683
   20SAPC   C21 2579   1.331   1.823  10.475 -0.1975  0.7061 -0.0377
   20SAPC   O22 2580   1.321   1.924  10.538 -0.2764  0.6195 -0.1619
   20SAPC   C22 2581   1.274   1.807  10.330 -0.3371 -0.5269  0.6655
   20SAPC   H2R 2582   1.275   1.701  10.297  1.8347  0.2576 -2.1914
   20SAPC   H2S 2583   1.166   1.826  10.343 -0.1717 -0.1940  1.6367
   20SAPC    C3 2584   1.600   1.800  10.657 -0.0500 -0.2267  0.4880
   20SAPC    HX 2585   1.622   1.804  10.766  1.2743  2.3464  0.2007
   20SAPC    HY 2586   1.585   1.898  10.607  0.2121 -1.0702 -1.3381
   20SAPC   O31 2587   1.688   1.715  10.589 -0.1642 -0.2552 -0.3790
   20SAPC   C31 2588   1.687   1.737  10.450  0.4143 -0.5924  0.2934
   20SAPC   O32 2589   1.644   1.833  10.392 -0.2325  0.0526  0.1229
   20SAPC   C32 2590   1.737   1.615  10.376  0.3192  0.5375 -0.6652
   20SAPC   H2X 2591   1.703   1.527  10.436 -1.0311  2.5689  1.7379
   20SAPC   H2Y 2592   1.848   1.613  10.383  0.2914  2.4559  1.8303
   20SAPC   C23 2593   1.328   1.910  10.231 -0.5132 -0.1677 -0.3188
   20SAPC   H3R 2594   1.423   1.875  10.186  0.8123  2.5004  0.1972
   20SAPC   H3S 2595   1.359   2.001  10.287 -1.5805 -0.4317  0.7443
   20SAPC   C24 2596   1.218   1.965  10.137  0.0197  0.1295  0.8258
   20SAPC   H4R 2597   1.249   2.053  10.078 -1.6354  0.5932  0.5813
   20SAPC   H4S 2598   1.140   2.010  10.202  0.4976  1.7421  0.3047
   20SAPC   C25 2599   1.159   1.847  10.050  0.0952  0.0378 -0.2720
   20SAPC   H5R 2600   1.112   1.769  10.113 -0.5195 -0.7796 -1.6873
   20SAPC   C26 2601   1.152   1.840   9.915 -0.3919  0.1154 -0.2791
   20SAPC   H6R 2602   1.120   1.744   9.871  2.1175  0.1137 -2.3828
   20SAPC   C27 2603   1.204   1.941   9.813  0.5599  0.1322 -0.3141
   20SAPC   H7R 2604   1.236   2.033   9.866 -0.2613 -0.2121  0.8025
   20SAPC   H7S 2605   1.118   1.968   9.748  1.1597 -0.7716 -1.5363
   20SAPC   C28 2606   1.313   1.876   9.739 -0.0066  0.4219  0.9409
   20SAPC   H8R 2607   1.398   1.844   9.800 -0.7168  1.3921  2.5216
   20SAPC   C29 2608   1.301   1.849   9.607 -0.1727 -0.2149  0.2993
   20SAPC   H9R 2609   1.381   1.801   9.548  0.2190  0.7579  0.0171
   20SAPC  C210 2610   1.178   1.859   9.514  0.0409 -0.2091  0.3240
   20SAPC  H10R 2611   1.098   1.917   9.565  1.4896  0.7459  1.5931
   20SAPC  H10S 2612   1.137   1.757   9.503  0.3658 -0.4079  0.8926
   20SAPC  C211 2613   1.209   1.936   9.385  0.3417  0.1258  0.4568
   20SAPC  H11R 2614   1.262   2.033   9.389  0.7829 -0.1176  0.5872
   20SAPC  C212 2615   1.178   1.890   9.263  0.0042 -0.5620 -0.5670
   20SAPC  H12R 2616   1.203   1.951   9.175 -1.7079 -1.5459 -1.8080
   20SAPC  C213 2617   1.105   1.766   9.225  0.4381 -0.4969 -0.3782
   20SAPC  H13R 2618   1.004   1.793   9.187  0.6913  0.8770 -0.1188
   20SAPC  H13S 2619   1.083   1.700   9.311  1.1417  0.3971  0.5047
   20SAPC  C214 2620   1.193   1.675   9.142  0.3582  1.1829  0.2081
   20SAPC  H14R 2621   1.290   1.654   9.189  0.0530  1.5757  1.0165
   20SAPC  C215 2622   1.165   1.625   9.018 -0.1900 -0.0151 -0.0135
   20SAPC  H15R 2623   1.233   1.552   8.972  2.1016  0.3094  2.5881
   20SAPC  C216 2624   1.044   1.639   8.935  0.3832  0.1710  0.6387
   20SAPC  H16R 2625   1.082   1.679   8.839 -1.0725  0.4439  0.1469
   20SAPC  H16S 2626   0.972   1.716   8.971 -1.0200 -0.0004 -1.6155
   20SAPC  C217 2627   0.957   1.514   8.911 -0.4582 -0.0291  0.2843
   20SAPC  H17R 2628   0.947   1.470   9.012 -1.5730 -0.3131  0.0557
   20SAPC  H17S 2629   1.018   1.429   8.874 -0.9421 -1.6306  2.9214
   20SAPC  C218 2630   0.826   1.522   8.827 -0.0897  0.7829 -0.4978
   20SAPC  H18R 2631   0.849   1.470   8.732 -0.8894 -1.2652  0.3628
   20SAPC  H18S 2632   0.810   1.630   8.808  1.1101  0.8799 -1.0710
   20SAPC  C219 2633   0.702   1.458   8.891 -0.0801  0.0299  0.0793
   20SAPC  H19R 2634   0.705   1.347   8.896 -3.1374 -0.0939  0.7442
   20SAPC  H19S 2635   0.621   1.472   8.817 -2.0149 -1.1279  1.8760
   20SAPC  C220 2636   0.670   1.505   9.033 -0.3194 -0.3575  0.0044
   20SAPC  H20R 2637   0.591   1.448   9.086  0.5816 -0.8577  0.8385
   20SAPC  H20S 2638   0.645   1.613   9.037 -0.7198 -0.4583  0.3053
   20SAPC  H20T 2639   0.764   1.505   9.092 -0.6932  3.0447  0.7874
   20SAPC   C33 2640   1.705   1.619  10.221 -0.0960 -0.1660  0.2142
   20SAPC   H3X 2641   1.744   1.711  10.173 -0.9144 -0.0095 -0.1677
   20SAPC   H3Y 2642   1.596   1.614  10.203 -0.2150  0.4427  0.7262
   20SAPC   C34 2643   1.768   1.498  10.147  0.2168 -0.2295 -0.0193
   20SAPC   H4X 2644   1.713   1.404  10.170  1.6903 -0.8771  1.0051
   20SAPC   H4Y 2645   1.875   1.486  10.175  0.3059  1.9623  0.7447
   20SAPC   C35 2646   1.757   1.511   9.989 -0.3419 -0.3779 -0.2792
   20SAPC   H5X 2647   1.669   1.570   9.956  0.1928  0.6079  0.0193
   20SAPC   H5Y 2648   1.745   1.406   9.955 -0.7427 -0.2489 -0.5414
   20SAPC   C36 2649   1.894   1.552   9.923  0.7515  0.0024  0.3893
   20SAPC   H6X 2650   1.978   1.493   9.966  0.4601 -0.1176  0.7927
   20SAPC   H6Y 2651   1.901   1.662   9.940 -0.7202  0.0195  1.0204
   20SAPC   C37 2652   1.889   1.535   9.767 -0.0139 -0.6339  0.6854
   20SAPC   H7X 2653   1.829   1.448   9.735 -3.3514  1.8423 -0.3220
   20SAPC   H7Y 2654   1.989   1.527   9.719 -1.1190  0.1966 -1.9158
   20SAPC   C38 2655   1.818   1.652   9.691  0.4180 -0.0180 -0.6370
   20SAPC   H8X 2656   1.856   1.747   9.735 -0.7764 -0.9040  2.6090
   20SAPC   H8Y 2657   1.708   1.644   9.704  0.4803 -0.6471 -0.4797
   20SAPC   C39 2658   1.838   1.641   9.539  0.2322 -0.2491 -0.4969
   20SAPC   H9X 2659   1.789   1.550   9.500 -0.0425 -0.1308 -0.4300
   20SAPC   H9Y 2660   1.944   1.632   9.507 -0.1567 -0.2210 -1.8255
   20SAPC  C310 2661   1.777   1.768   9.472  0.2377  0.4578  0.2271
   20SAPC  H10X 2662   1.788   1.864   9.528  0.7447  0.9824 -0.7521
   20SAPC  H10Y 2663   1.667   1.757   9.468 -0.0678  2.1848  2.0100
   20SAPC  C311 2664   1.834   1.778   9.329 -0.3297  0.4274 -0.2005
   20SAPC  H11X 2665   1.820   1.687   9.267 -0.3111 -0.9525  1.7313
   20SAPC  H11Y 2666   1.943   1.796   9.342  0.8281 -4.0957 -1.7724
   20SAPC  C312 2667   1.784   1.901   9.248  0.7825 -0.6176  0.2713
   20SAPC  H12X 2668   1.812   2.000   9.290 -0.7429 -0.2658  0.5360
   20SAPC  H12Y 2669   1.675   1.898   9.268  0.6444  0.9932 -0.0340
   20SAPC  C313 2670   1.809   1.901   9.100  0.0881  0.7589 -0.0472
   20SAPC  H13X 2671   1.781   1.808   9.046  1.0795  1.4397 -1.7925
   20SAPC  H13Y 2672   1.920   1.909   9.101  0.0638  1.1801 -0.6739
   20SAPC  C314 2673   1.757   2.020   9.029 -0.4299 -0.3290 -0.0201
   20SAPC  H14X 2674   1.801   2.114   9.069  0.3281  0.4415 -2.4931
   20SAPC  H14Y 2675   1.648   2.018   9.048 -0.6250  3.0722 -0.1393
   20SAPC  C315 2676   1.786   2.019   8.878  0.9727  0.0895  0.2025
   20SAPC  H15X 2677   1.767   2.122   8.841 -1.0550 -0.0588  0.7040
   20SAPC  H15Y 2678   1.707   1.955   8.834  1.0159 -1.1175  1.7893
   20SAPC  C316 2679   1.930   1.978   8.840 -0.6640 -0.1993 -0.0383
   20SAPC  H16X 2680   1.963   1.876   8.868  0.3099  0.1307  0.0536
   20SAPC  H16Y 2681   2.004   2.047   8.885  0.8284 -1.9832  0.3602
   20SAPC  C317 2682   1.968   1.988   8.688 -0.0018 -0.0615 -0.6264
   20SAPC  H17X 2683   2.078   2.001   8.674 -0.1553  0.2491 -1.6108
   20SAPC  H17Y 2684   1.920   2.083   8.657 -1.3603  0.0279  1.5216
   20SAPC  C318 2685   1.925   1.859   8.612  0.1421 -0.6819  0.3977
   20SAPC  H18X 2686   1.966   1.767   8.658 -0.0843 -0.9402  0.0838
   20SAPC  H18Y 2687   1.950   1.864   8.504 -0.3790 -0.6336  0.2756
   20SAPC  H18Z 2688   1.815   1.851   8.629  0.4340 -2.1052  1.8736
   21SAPC     N 2689   1.579   0.099  10.860  0.2175  0.1635 -0.1794
   21SAPC   C12 2690   1.565   0.233  10.783  0.8683  0.1079 -0.9065
   21SAPC  H12A 2691   1.620   0.227  10.690  0.3505 -1.1754 -1.1495
   21SAPC  H12B 2692   1.600   0.313  10.847 -0.8019  1.5216 -1.6925
   21SAPC   C13 2693   1.727   0.069  10.856  0.2509  0.0402  0.0047
   21SAPC  H13A 2694   1.754  -0.014  10.919 -0.1604  0.0756  0.2296
   21SAPC  H13B 2695   1.762   0.037  10.758  1.3737 -0.5914  0.5928
   21SAPC  H13C 2696   1.789   0.141  10.907  0.4893 -1.3065  1.6978
   21SAPC   C14 2697   1.544   0.121  11.004  0.3518 -0.0384 -0.5415
   21SAPC  H14A 2698   1.554   0.032  11.063 -0.6196 -0.3208 -0.7863
   21SAPC  H14B 2699   1.603   0.201  11.046 -0.9603  1.4157 -1.3785
   21SAPC  H14C 2700   1.439   0.142  11.018  0.3696 -0.3338  0.0566
   21SAPC   C15 2701   1.503  -0.014  10.812  0.4589  0.3691  0.9667
   21SAPC  H15A 2702   1.401   0.016  10.794 -0.4549 -1.9185  2.0748
   21SAPC  H15B 2703   1.536  -0.046  10.714 -1.9156 -0.5584  0.4039
   21SAPC  H15C 2704   1.507  -0.093  10.885  0.5136 -0.4774  0.0811
   21SAPC   C11 2705   1.418   0.275  10.759  0.2001 -0.1918  0.3192
   21SAPC  H11A 2706   1.413   0.386  10.757 -1.9453 -0.1914  2.2646
   21SAPC  H11B 2707   1.355   0.249  10.846  0.1634 -1.0199  0.0514
   21SAPC     P 2708   1.217   0.181  10.624  0.1131  0.4753  0.1078
   21SAPC   O13 2709   1.207   0.113  10.496  0.7421  0.6140  0.1274
   21SAPC   O14 2710   1.184   0.114  10.753 -0.4212 -0.1492  0.2327
   21SAPC   O12 2711   1.361   0.227  10.637  0.1622 -0.7046 -0.3123
   21SAPC   O11 2712   1.146   0.320  10.615  0.0797  0.5769 -0.1487
   21SAPC    C1 2713   1.173   0.426  10.528 -0.0713 -0.0235 -0.2848
   21SAPC    HA 2714   1.164   0.520  10.587 -1.8392  0.3879 -1.1514
   21SAPC    HB 2715   1.274   0.418  10.481  0.3561 -2.0422  0.8266
   21SAPC    C2 2716   1.064   0.442  10.415 -0.1808  0.1996 -0.2851
   21SAPC    HS 2717   0.967   0.419  10.463 -1.0770  0.7880 -1.7584
   21SAPC   O21 2718   1.101   0.365  10.297 -0.1003  0.8073  0.1058
   21SAPC   C21 2719   0.992   0.306  10.245  1.4144 -0.2934 -0.2790
   21SAPC   O22 2720   0.877   0.319  10.290  0.3056 -0.1593  0.6834
   21SAPC   C22 2721   1.045   0.216  10.134 -0.0281  0.9514  0.3299
   21SAPC   H2R 2722   1.095   0.287  10.065 -0.0254  3.0095  2.3575
   21SAPC   H2S 2723   1.125   0.150  10.173  0.3252 -0.9705 -3.2342
   21SAPC    C3 2724   1.050   0.594  10.378 -0.2181 -0.8225 -0.6188
   21SAPC    HX 2725   1.150   0.624  10.341  0.0535 -1.0573 -0.0991
   21SAPC    HY 2726   1.042   0.658  10.469  2.1110 -0.6064 -0.5123
   21SAPC   O31 2727   0.945   0.619  10.283 -0.0207  0.1367  0.6707
   21SAPC   C31 2728   0.823   0.608  10.331 -0.0537 -0.2445  0.1075
   21SAPC   O32 2729   0.788   0.584  10.445  0.2224  0.1148 -0.6696
   21SAPC   C32 2730   0.723   0.617  10.216  0.5766  0.2127 -0.7011
   21SAPC   H2X 2731   0.716   0.512  10.182 -1.0765 -0.4768  1.5680
   21SAPC   H2Y 2732   0.760   0.683  10.134 -2.8886  2.1887 -0.8431
   21SAPC   C23 2733   0.953   0.121  10.050 -1.0622  0.2535  0.5767
   21SAPC   H3R 2734   0.874   0.074  10.112 -1.7595  0.6601  0.0077
   21SAPC   H3S 2735   1.017   0.042  10.005 -1.0755  0.7741 -0.3802
   21SAPC   C24 2736   0.874   0.193   9.937 -0.7731 -0.6956 -0.2291
   21SAPC   H4R 2737   0.822   0.107   9.890  1.1671 -2.0589  0.0088
   21SAPC   H4S 2738   0.956   0.215   9.866  0.0544 -1.8483  0.3357
   21SAPC   C25 2739   0.787   0.312   9.973 -0.0264  0.4586 -0.4760
   21SAPC   H5R 2740   0.695   0.286  10.027 -0.3340 -0.3995 -1.3711
   21SAPC   C26 2741   0.799   0.437   9.939 -0.8258 -0.7855  0.4131
   21SAPC   H6R 2742   0.715   0.505   9.961  1.2673  1.3577  2.3739
   21SAPC   C27 2743   0.902   0.500   9.856  0.3431 -0.0316  0.2486
   21SAPC   H7R 2744   0.986   0.430   9.837  0.8956  0.1296  1.9318
   21SAPC   H7S 2745   0.954   0.582   9.908  0.9425 -0.1913 -0.0950
   21SAPC   C28 2746   0.859   0.547   9.719 -0.0276 -0.0438 -0.1100
   21SAPC   H8R 2747   0.816   0.648   9.714 -3.0649 -1.1688  1.2333
   21SAPC   C29 2748   0.869   0.483   9.599 -0.4500 -0.3754 -0.6220
   21SAPC   H9R 2749   0.826   0.523   9.505  0.4822 -0.7661 -1.2367
   21SAPC  C210 2750   0.940   0.348   9.576 -0.5413 -0.7150  0.0920
   21SAPC  H10R 2751   1.012   0.320   9.656 -1.0111  0.9537  1.1355
   21SAPC  H10S 2752   1.002   0.352   9.483 -2.1354 -1.3858 -1.0481
   21SAPC  C211 2753   0.836   0.245   9.558  0.2896 -0.5845 -0.2355
   21SAPC  H11R 2754   0.816   0.204   9.658 -1.2071  1.3232  0.3036
   21SAPC  C212 2755   0.767   0.195   9.444 -0.1405  0.0787 -0.5057
   21SAPC  H12R 2756   0.701   0.107   9.457 -0.3037  0.4416  1.4015
   21SAPC  C213 2757   0.779   0.224   9.299 -0.5368  0.0449  0.2134
   21SAPC  H13R 2758   0.842   0.149   9.247 -0.7233  1.9109 -2.9818
   21SAPC  H13S 2759   0.843   0.312   9.275 -1.7908  0.9179 -0.0907
   21SAPC  C214 2760   0.651   0.247   9.226 -0.4293 -1.0439  0.3664
   21SAPC  H14R 2761   0.586   0.310   9.288  0.9550  0.5270  0.2913
   21SAPC  C215 2762   0.613   0.199   9.106  0.4194 -1.0471  0.1467
   21SAPC  H15R 2763   0.512   0.223   9.069 -0.2169  0.6517  2.7277
   21SAPC  C216 2764   0.694   0.115   9.015  0.0819  0.3874 -0.0536
   21SAPC  H16R 2765   0.731   0.032   9.080  0.0099  0.7955  0.5121
   21SAPC  H16S 2766   0.775   0.172   8.965 -1.0612  1.6008 -0.5888
   21SAPC  C217 2767   0.589   0.067   8.911  1.3283 -0.2949 -0.4348
   21SAPC  H17R 2768   0.541   0.150   8.855 -1.0661 -0.8866  0.6006
   21SAPC  H17S 2769   0.511   0.011   8.967 -0.0243  0.2313 -1.7157
   21SAPC  C218 2770   0.647  -0.036   8.815 -0.6181 -0.1425 -0.4305
   21SAPC  H18R 2771   0.729  -0.089   8.869  1.7065  1.7337 -1.9467
   21SAPC  H18S 2772   0.691   0.025   8.734  1.4308  0.4955  1.1027
   21SAPC  C219 2773   0.545  -0.141   8.774 -0.3991  0.2692 -0.5013
   21SAPC  H19R 2774   0.445  -0.097   8.755 -0.0693  0.4027 -2.0226
   21SAPC  H19S 2775   0.535  -0.217   8.854  2.8747 -0.5205 -0.7040
   21SAPC  C220 2776   0.573  -0.207   8.640 -0.4412  0.1412  0.2328
   21SAPC  H20R 2777   0.592  -0.123   8.569  0.0216  0.9244  1.2464
   21SAPC  H20S 2778   0.486  -0.269   8.609 -0.9815  1.1520 -0.3199
   21SAPC  H20T 2779   0.668  -0.266   8.639  0.6894  1.8051  2.2013
   21SAPC   C33 2780   0.586   0.663  10.269 -0.2190 -0.5229 -0.4655
   21SAPC   H3X 2781   0.592   0.760  10.321  0.2445 -0.9528  0.3084
   21SAPC   H3Y 2782   0.551   0.583  10.337  0.3807 -1.1328 -0.8549
   21SAPC   C34 2783   0.479   0.664  10.162  0.2768  0.6165 -0.1889
   21SAPC   H4X 2784   0.377   0.668  10.208  1.8624  3.0422  3.6317
   21SAPC   H4Y 2785   0.491   0.570  10.104 -0.0322 -0.4089  1.3498
   21SAPC   C35 2786   0.483   0.795  10.074 -0.0986  0.1955 -0.4854
   21SAPC   H5X 2787   0.587   0.819  10.044  0.2677  0.8113  1.1666
   21SAPC   H5Y 2788   0.434   0.876  10.133 -4.5096 -1.4474 -1.4701
   21SAPC   C36 2789   0.402   0.776   9.944 -0.2519  0.7239  0.4449
   21SAPC   H6X 2790   0.391   0.875   9.895  0.5768  1.7063  2.1447
   21SAPC   H6Y 2791   0.301   0.739   9.970 -1.3868  2.3300 -1.3924
   21SAPC   C37 2792   0.471   0.678   9.850  1.1266 -0.0523  0.1684
   21SAPC   H7X 2793   0.502   0.585   9.901 -2.2001 -0.2798  1.9756
   21SAPC   H7Y 2794   0.563   0.716   9.799  0.3275  2.5818  0.5146
   21SAPC   C38 2795   0.370   0.626   9.744 -0.6938 -0.5104  0.3712
   21SAPC   H8X 2796   0.311   0.714   9.711 -0.4243 -0.6668 -0.5459
   21SAPC   H8Y 2797   0.291   0.554   9.775 -1.7922 -2.2966 -5.4211
   21SAPC   C39 2798   0.435   0.570   9.625  0.4912  0.3150 -0.3489
   21SAPC   H9X 2799   0.356   0.518   9.568  0.3245  1.6992 -1.4409
   21SAPC   H9Y 2800   0.507   0.492   9.658 -2.4965 -3.5588 -2.1655
   21SAPC  C310 2801   0.510   0.671   9.541 -0.0283 -0.3377 -0.4406
   21SAPC  H10X 2802   0.601   0.691   9.601  0.3444  0.1425 -1.1507
   21SAPC  H10Y 2803   0.449   0.761   9.519 -2.2021 -1.2377  1.4013
   21SAPC  C311 2804   0.550   0.613   9.402 -0.3117 -0.4826  0.3752
   21SAPC  H11X 2805   0.625   0.533   9.418  1.4163  1.0856  0.5346
   21SAPC  H11Y 2806   0.609   0.691   9.348 -0.2626 -1.7465 -1.4759
   21SAPC  C312 2807   0.437   0.565   9.317 -0.6239 -0.1501  0.6123
   21SAPC  H12X 2808   0.343   0.619   9.343 -1.6030 -1.0532 -0.8741
   21SAPC  H12Y 2809   0.414   0.459   9.341  2.2784 -1.2802 -1.1283
   21SAPC  C313 2810   0.466   0.579   9.167  0.8712  0.3964 -0.8563
   21SAPC  H13X 2811   0.566   0.534   9.146  1.2732  0.2633  1.1432
   21SAPC  H13Y 2812   0.470   0.685   9.133  1.2918 -0.0121 -2.1735
   21SAPC  C314 2813   0.358   0.510   9.093  0.0198  0.1188  0.7928
   21SAPC  H14X 2814   0.263   0.559   9.121  0.4437  0.9201  0.8728
   21SAPC  H14Y 2815   0.352   0.402   9.119  2.6449 -0.4271 -0.5052
   21SAPC  C315 2816   0.367   0.520   8.944  0.0323 -0.8085  0.2146
   21SAPC  H15X 2817   0.277   0.478   8.894 -1.1715  0.7469  0.9923
   21SAPC  H15Y 2818   0.441   0.438   8.930 -1.2587 -1.9921  0.0899
   21SAPC  C316 2819   0.422   0.652   8.882  0.1306 -0.2707 -0.2184
   21SAPC  H16X 2820   0.532   0.654   8.899  0.1465 -0.6082 -0.2675
   21SAPC  H16Y 2821   0.368   0.736   8.929 -1.3278 -1.4149  0.2133
   21SAPC  C317 2822   0.409   0.678   8.725 -0.2922  0.1949 -0.0569
   21SAPC  H17X 2823   0.479   0.757   8.690  0.8480 -0.9961 -0.5449
   21SAPC  H17Y 2824   0.305   0.705   8.693 -0.8674  0.2179  1.7437
   21SAPC  C318 2825   0.460   0.553   8.647  0.2619 -0.0938  0.7510
   21SAPC  H18X 2826   0.429   0.577   8.543  1.0199 -2.4284 -0.0868
   21SAPC  H18Y 2827   0.402   0.468   8.688  0.8952  0.9841  4.1679
   21SAPC  H18Z 2828   0.571   0.551   8.650  0.2606 -0.0116  0.8423
   22SAPC     N 2829   5.571   4.833  10.998  0.2050 -0.3804 -0.6176
   22SAPC   C12 2830   5.546   4.826  10.845  0.5421 -0.2120  0.4139
   22SAPC  H12A 2831   5.643   4.836  10.799  0.1783 -1.2808 -0.6350
   22SAPC  H12B 2832   5.489   4.916  10.827  1.5492  0.8160  2.0701
   22SAPC   C13 2833   5.632   4.963  11.036  0.5718 -0.0727  0.1418
   22SAPC  H13A 2834   5.576   5.049  11.003  2.3036  1.7670  1.7398
   22SAPC  H13B 2835   5.641   4.977  11.143 -0.1452 -0.7034  0.2883
   22SAPC  H13C 2836   5.729   4.961  10.989 -0.1818 -0.8673 -1.4494
   22SAPC   C14 2837   5.441   4.821  11.066 -0.3924 -1.0210 -0.1080
   22SAPC  H14A 2838   5.453   4.841  11.171 -0.0473 -1.3744 -0.0759
   22SAPC  H14B 2839   5.374   4.899  11.034  3.0637  1.5140 -1.7938
   22SAPC  H14C 2840   5.418   4.715  11.063  1.1627 -1.3914 -2.6049
   22SAPC   C15 2841   5.661   4.727  11.040 -0.4054 -0.4525  0.2699
   22SAPC  H15A 2842   5.678   4.718  11.146 -1.7407 -2.5391  0.3517
   22SAPC  H15B 2843   5.629   4.632  11.000 -1.6557 -0.0771  0.3232
   22SAPC  H15C 2844   5.757   4.736  10.991 -1.7266  0.3276 -2.4119
   22SAPC   C11 2845   5.478   4.703  10.773  1.2664 -0.4182  0.3576
   22SAPC  H11A 2846   5.465   4.727  10.665 -1.6220 -1.0226  0.4825
   22SAPC  H11B 2847   5.376   4.680  10.811  1.0767  0.6913  0.5637
   22SAPC     P 2848   5.680   4.543  10.709  0.0025  0.0106  0.1211
   22SAPC   O13 2849   5.776   4.655  10.690 -0.4216  0.5797 -0.9494
   22SAPC   O14 2850   5.740   4.418  10.767  0.2543 -0.4604  0.5454
   22SAPC   O12 2851   5.563   4.594  10.798 -0.3228 -0.4745  0.2507
   22SAPC   O11 2852   5.606   4.500  10.573 -0.0059 -0.0505 -0.2901
   22SAPC    C1 2853   5.632   4.571  10.461  0.0758 -0.5283  0.2430
   22SAPC    HA 2854   5.544   4.572  10.393  0.5659  1.1655 -0.4107
   22SAPC    HB 2855   5.656   4.679  10.472  0.0903 -0.4362 -0.6179
   22SAPC    C2 2856   5.733   4.497  10.374 -0.4909 -0.0062  0.3792
   22SAPC    HS 2857   5.830   4.509  10.426 -0.3699  2.5065 -0.2731
   22SAPC   O21 2858   5.754   4.571  10.251 -0.2262  0.0061 -0.4372
   22SAPC   C21 2859   5.809   4.688  10.260 -0.0236 -0.4967 -0.5220
   22SAPC   O22 2860   5.861   4.743  10.360 -0.1126 -0.1537 -0.1885
   22SAPC   C22 2861   5.807   4.752  10.123 -0.1399 -1.2589 -0.1396
   22SAPC   H2R 2862   5.908   4.751  10.077 -0.2184 -0.3543 -0.3617
   22SAPC   H2S 2863   5.733   4.695  10.062 -0.5843 -0.5589 -0.2756
   22SAPC    C3 2864   5.701   4.345  10.354  0.0401 -0.6957 -0.7112
   22SAPC    HX 2865   5.621   4.342  10.277 -1.1662 -0.9295  0.5129
   22SAPC    HY 2866   5.660   4.308  10.451  1.4046  0.3434  0.3053
   22SAPC   O31 2867   5.824   4.269  10.318  0.1548 -0.0817  0.0081
   22SAPC   C31 2868   5.785   4.152  10.284  0.5104 -0.0249  0.3485
   22SAPC   O32 2869   5.675   4.099  10.289  0.1913  0.1951  0.3009
   22SAPC   C32 2870   5.907   4.071  10.246 -0.3984 -0.0469  0.8940
   22SAPC   H2X 2871   5.892   3.963  10.267  3.7559 -1.6820 -2.8771
   22SAPC   H2Y 2872   5.996   4.112  10.298  0.8485  0.3306 -1.4029
   22SAPC   C23 2873   5.774   4.902  10.128  0.2648 -1.2561  0.0906
   22SAPC   H3R 2874   5.849   4.941  10.200  3.6056 -1.2440 -3.0767
   22SAPC   H3S 2875   5.675   4.908  10.178  0.0310  0.2198 -0.4722
   22SAPC   C24 2876   5.766   4.994  10.004  0.4218 -0.6636 -0.5126
   22SAPC   H4R 2877   5.866   4.984   9.957  0.8413  0.2437  0.1786
   22SAPC   H4S 2878   5.737   5.096  10.035 -1.2890 -1.1523 -0.3760
   22SAPC   C25 2879   5.669   4.949   9.899  0.1700  0.1734 -0.2711
   22SAPC   H5R 2880   5.565   4.972   9.928  0.4811 -0.0464  1.0988
   22SAPC   C26 2881   5.687   4.905   9.774  0.4687  0.1624  0.0410
   22SAPC   H6R 2882   5.604   4.867   9.713  1.6408  2.1476 -3.0312
   22SAPC   C27 2883   5.822   4.881   9.705  0.3855  0.9289 -0.2398
   22SAPC   H7R 2884   5.900   4.856   9.780  1.2751 -0.6894 -1.6303
   22SAPC   H7S 2885   5.857   4.976   9.660  0.2559  0.1009 -2.1897
   22SAPC   C28 2886   5.802   4.773   9.604 -0.3874 -0.3999 -0.5910
   22SAPC   H8R 2887   5.757   4.679   9.641  2.8876 -2.3241 -1.0831
   22SAPC   C29 2888   5.840   4.784   9.476 -0.4097 -0.3541 -0.1094
   22SAPC   H9R 2889   5.849   4.686   9.426  0.2510  0.3917 -1.4960
   22SAPC  C210 2890   5.916   4.898   9.413  0.8524  0.7980 -0.1450
   22SAPC  H10R 2891   5.966   4.852   9.325 -1.5430 -1.1726 -0.5534
   22SAPC  H10S 2892   5.998   4.942   9.474  0.9170  1.0527 -0.4106
   22SAPC  C211 2893   5.823   5.010   9.369 -0.0186 -0.1861  0.0437
   22SAPC  H11R 2894   5.765   5.058   9.449  0.6014  0.2898  0.2150
   22SAPC  C212 2895   5.794   5.047   9.244  0.1164  0.4805 -0.4688
   22SAPC  H12R 2896   5.724   5.130   9.230  0.5528  1.1211  0.9837
   22SAPC  C213 2897   5.855   5.000   9.111 -0.1672 -0.2249  0.0894
   22SAPC  H13R 2898   5.963   4.995   9.132 -0.1218  2.1655  0.7699
   22SAPC  H13S 2899   5.846   5.073   9.027  1.6475  0.4255  0.4260
   22SAPC  C214 2900   5.796   4.862   9.078 -0.7726  0.7486  0.3350
   22SAPC  H14R 2901   5.722   4.825   9.150  0.0874 -1.6996  0.0797
   22SAPC  C215 2902   5.809   4.796   8.959  0.7046 -0.1351  0.0488
   22SAPC  H15R 2903   5.759   4.698   8.948 -0.0578  0.3266 -0.7167
   22SAPC  C216 2904   5.882   4.841   8.841 -0.0349 -1.0315  0.6699
   22SAPC  H16R 2905   5.974   4.783   8.817  0.2467 -0.0740 -0.7164
   22SAPC  H16S 2906   5.925   4.942   8.858 -2.3199  0.1594 -0.1334
   22SAPC  C217 2907   5.791   4.839   8.716 -0.7287  0.1505 -0.1542
   22SAPC  H17R 2908   5.699   4.901   8.729 -0.3283  0.6313  0.4920
   22SAPC  H17S 2909   5.755   4.736   8.698 -1.9313 -0.0020  2.5979
   22SAPC  C218 2910   5.863   4.873   8.587  0.7922  0.0189  0.2667
   22SAPC  H18R 2911   5.951   4.808   8.568  0.8269  0.5653 -1.6776
   22SAPC  H18S 2912   5.893   4.980   8.600 -0.1106  0.3054  0.0584
   22SAPC  C219 2913   5.773   4.879   8.463 -0.1756  0.3995 -0.4614
   22SAPC  H19R 2914   5.675   4.918   8.497 -1.2193 -0.6558 -2.0724
   22SAPC  H19S 2915   5.732   4.783   8.423 -0.7784  1.4862 -2.6142
   22SAPC  C220 2916   5.830   4.952   8.340  0.1973 -0.1114  0.0506
   22SAPC  H20R 2917   5.827   5.062   8.352  1.6124 -0.0748  0.3000
   22SAPC  H20S 2918   5.775   4.924   8.247 -2.1132  2.0867  0.6309
   22SAPC  H20T 2919   5.938   4.927   8.333  0.1115 -1.4548  2.6017
   22SAPC   C33 2920   5.933   4.092  10.089 -0.0141  0.3755  0.1654
   22SAPC   H3X 2921   6.041   4.070  10.074 -0.6267 -0.9490 -3.3004
   22SAPC   H3Y 2922   5.911   4.196  10.056 -0.9594 -0.4088 -1.8453
   22SAPC   C34 2923   5.865   3.991  10.000  0.0837 -0.0398  0.3461
   22SAPC   H4X 2924   5.756   4.010  10.007 -0.1870 -0.9578 -0.8926
   22SAPC   H4Y 2925   5.888   3.886  10.029 -0.9912 -0.9693 -1.8859
   22SAPC   C35 2926   5.898   4.003   9.849 -0.6627  0.6085 -0.0539
   22SAPC   H5X 2927   6.003   3.971   9.831 -0.7466  0.7671 -0.8732
   22SAPC   H5Y 2928   5.898   4.111   9.821 -0.2057  0.3948 -0.9071
   22SAPC   C36 2929   5.808   3.938   9.750 -0.7759 -0.3981 -0.2216
   22SAPC   H6X 2930   5.705   3.979   9.754  0.3231  2.6120  3.2194
   22SAPC   H6Y 2931   5.801   3.829   9.770 -1.6913 -0.1755  0.7464
   22SAPC   C37 2932   5.877   3.943   9.619  0.9313 -0.1749  0.1641
   22SAPC   H7X 2933   5.978   3.896   9.624  0.3078 -1.4836  0.6810
   22SAPC   H7Y 2934   5.903   4.049   9.597 -1.0853  0.6723  1.5682
   22SAPC   C38 2935   5.798   3.876   9.509  0.3554  0.2816  0.1959
   22SAPC   H8X 2936   5.698   3.926   9.515 -0.7252 -1.8875  1.1166
   22SAPC   H8Y 2937   5.771   3.777   9.550 -0.0333  0.3434  0.1014
   22SAPC   C39 2938   5.858   3.889   9.367 -0.2669 -0.4900 -0.5448
   22SAPC   H9X 2939   5.952   3.831   9.354  0.0339 -0.1639  0.1150
   22SAPC   H9Y 2940   5.886   3.994   9.346 -0.0298 -0.7098 -1.3828
   22SAPC  C310 2941   5.780   3.836   9.250 -0.2244 -0.1752 -0.2149
   22SAPC  H10X 2942   5.709   3.918   9.229  1.1991  1.7772  2.0464
   22SAPC  H10Y 2943   5.717   3.751   9.283 -0.8277  0.6576  0.8304
   22SAPC  C311 2944   5.854   3.815   9.120  0.2933  0.4632  0.0584
   22SAPC  H11X 2945   5.814   3.719   9.078 -0.3295  0.5736  0.3888
   22SAPC  H11Y 2946   5.964   3.811   9.135  0.5087 -0.6095 -1.5624
   22SAPC  C312 2947   5.817   3.914   9.004 -0.4165 -0.3782  0.5662
   22SAPC  H12X 2948   5.800   4.015   9.047  0.5818 -0.4568  1.1741
   22SAPC  H12Y 2949   5.721   3.890   8.954 -0.4431  0.5495  0.1503
   22SAPC  C313 2950   5.928   3.946   8.903 -0.1769 -0.0329  0.2612
   22SAPC  H13X 2951   5.966   3.856   8.851  0.3760  1.6863 -2.5071
   22SAPC  H13Y 2952   6.009   3.996   8.961  1.9805 -1.3402 -1.4868
   22SAPC  C314 2953   5.873   4.038   8.792 -1.0232  0.0459  0.0174
   22SAPC  H14X 2954   5.846   4.137   8.834  1.7299  1.0331 -0.2845
   22SAPC  H14Y 2955   5.784   3.990   8.747 -0.1269 -0.9948 -0.7165
   22SAPC  C315 2956   5.973   4.071   8.685 -1.0514  0.1796 -0.0952
   22SAPC  H15X 2957   5.939   4.155   8.621 -1.1333 -1.2667 -2.0369
   22SAPC  H15Y 2958   5.973   3.991   8.608 -1.9541 -0.1023  0.1790
   22SAPC  C316 2959   6.115   4.098   8.736  0.0551  0.0638  0.0353
   22SAPC  H16X 2960   6.158   4.016   8.797 -0.0086 -0.1145 -0.1618
   22SAPC  H16Y 2961   6.096   4.189   8.797  3.1213  0.2008  0.9524
   22SAPC  C317 2962   6.220   4.138   8.629  0.2270 -0.1296  0.7367
   22SAPC  H17X 2963   6.320   4.147   8.676  0.4326 -0.5751  0.3890
   22SAPC  H17Y 2964   6.192   4.231   8.575 -2.0217 -0.9355  0.3921
   22SAPC  C318 2965   6.231   4.027   8.522 -0.1937 -0.2021 -0.4027
   22SAPC  H18X 2966   6.136   4.039   8.465  0.8243  0.1544 -2.1131
   22SAPC  H18Y 2967   6.230   3.925   8.565 -1.3501 -0.0856 -0.1222
   22SAPC  H18Z 2968   6.324   4.043   8.464  0.0568 -1.5564 -0.3985
   23SAPC     N 2969   1.048   6.508  11.051 -1.0647  0.5426 -0.6947
   23SAPC   C12 2970   1.153   6.586  10.981 -0.1668  0.0907  0.1726
   23SAPC  H12A 2971   1.247   6.534  10.993  2.7768  4.8083  0.1671
   23SAPC  H12B 2972   1.168   6.675  11.041 -0.3101  0.0380  0.2905
   23SAPC   C13 2973   1.045   6.371  10.995 -0.7470 -0.2854  1.1215
   23SAPC  H13A 2974   1.141   6.322  11.000 -1.2489 -1.3679  0.5123
   23SAPC  H13B 2975   0.982   6.304  11.051 -0.6154 -0.4679  1.0545
   23SAPC  H13C 2976   1.017   6.367  10.891  0.9980 -0.5012  0.6245
   23SAPC   C14 2977   1.089   6.509  11.194 -0.1831 -0.2303  0.3140
   23SAPC  H14A 2978   1.117   6.608  11.229 -1.4941  1.0194 -1.9153
   23SAPC  H14B 2979   1.007   6.477  11.257 -0.3640  0.8098  0.6422
   23SAPC  H14C 2980   1.179   6.452  11.211 -0.8715 -1.3646  0.1977
   23SAPC   C15 2981   0.914   6.566  11.041  0.5933 -0.5815  0.1080
   23SAPC  H15A 2982   0.871   6.583  10.944 -1.3541  1.6743  1.2440
   23SAPC  H15B 2983   0.844   6.500  11.092  2.0082 -1.0939  1.4739
   23SAPC  H15C 2984   0.904   6.658  11.096  2.3181 -1.9478  2.9837
   23SAPC   C11 2985   1.150   6.620  10.832 -0.3306  0.0807 -0.0615
   23SAPC  H11A 2986   1.245   6.674  10.811 -0.6020  0.1129 -1.2279
   23SAPC  H11B 2987   1.065   6.687  10.807 -0.1395 -0.0521 -1.1211
   23SAPC     P 2988   1.276   6.419  10.705 -0.0929  0.0868 -0.1966
   23SAPC   O13 2989   1.381   6.445  10.810  0.0043  0.4875 -0.1986
   23SAPC   O14 2990   1.243   6.276  10.679  0.4988 -0.1945 -0.7908
   23SAPC   O12 2991   1.145   6.501  10.752 -0.1544 -0.0436 -0.0994
   23SAPC   O11 2992   1.315   6.484  10.571 -0.2901  0.1037  0.4819
   23SAPC    C1 2993   1.250   6.575  10.487  0.2420  0.1496 -0.1423
   23SAPC    HA 2994   1.147   6.592  10.526 -0.8768 -1.4675 -2.1950
   23SAPC    HB 2995   1.309   6.668  10.470  0.3500  0.2150  0.5503
   23SAPC    C2 2996   1.229   6.510  10.341  0.6057 -0.3997 -0.4442
   23SAPC    HS 2997   1.154   6.572  10.287  0.6015  0.2379  0.2881
   23SAPC   O21 2998   1.194   6.373  10.352 -0.1190 -0.7019  0.8673
   23SAPC   C21 2999   1.065   6.347  10.363 -0.6821 -0.2255 -0.1569
   23SAPC   O22 3000   0.979   6.428  10.392 -0.3009 -0.1279  0.0371
   23SAPC   C22 3001   1.031   6.202  10.361  0.0826  0.3980 -0.1048
   23SAPC   H2R 3002   1.118   6.142  10.396 -0.2329 -0.7671 -1.2470
   23SAPC   H2S 3003   0.956   6.192  10.443  0.6539 -2.6546  0.1457
   23SAPC    C3 3004   1.352   6.519  10.247 -0.1333 -0.4441 -0.5946
   23SAPC    HX 3005   1.414   6.437  10.288  0.0215 -0.1927 -0.3204
   23SAPC    HY 3006   1.410   6.612  10.263  0.2502 -0.6251 -0.9359
   23SAPC   O31 3007   1.322   6.497  10.111  0.5708 -0.2115  0.0740
   23SAPC   C31 3008   1.292   6.608  10.033 -0.0134  0.3208 -0.1142
   23SAPC   O32 3009   1.292   6.720  10.076 -0.2383  0.2643  0.4845
   23SAPC   C32 3010   1.260   6.566   9.893  0.2284 -0.2172  0.0653
   23SAPC   H2X 3011   1.172   6.501   9.910  1.7402 -2.5083 -0.3770
   23SAPC   H2Y 3012   1.345   6.510   9.848  1.0050  0.9651 -0.0009
   23SAPC   C23 3013   0.991   6.156  10.222  0.1225 -0.2803 -0.5292
   23SAPC   H3R 3014   0.920   6.227  10.175 -0.0583 -0.9136 -1.2289
   23SAPC   H3S 3015   0.944   6.056  10.223 -2.7802  0.9697  0.3943
   23SAPC   C24 3016   1.113   6.156  10.124  1.0143 -0.5411  0.6151
   23SAPC   H4R 3017   1.172   6.071  10.164 -0.5601 -2.7474 -1.3793
   23SAPC   H4S 3018   1.173   6.248  10.133  1.8927 -0.6190 -2.8573
   23SAPC   C25 3019   1.072   6.113   9.983 -0.4780  0.7288 -0.3746
   23SAPC   H5R 3020   0.973   6.065   9.978 -0.5897  0.8726  0.3878
   23SAPC   C26 3021   1.148   6.128   9.872 -0.0927  0.0681  0.2131
   23SAPC   H6R 3022   1.100   6.101   9.777 -3.1689  0.7054  1.4726
   23SAPC   C27 3023   1.283   6.191   9.867  0.1625  0.0502 -0.5086
   23SAPC   H7R 3024   1.299   6.237   9.967  0.6210 -1.2308  0.0282
   23SAPC   H7S 3025   1.293   6.274   9.793  3.5268  0.2543  0.0014
   23SAPC   C28 3026   1.391   6.088   9.825  0.1545 -0.0342 -0.3551
   23SAPC   H8R 3027   1.444   6.042   9.910 -1.6673 -2.3614 -0.4080
   23SAPC   C29 3028   1.408   6.034   9.706  0.1014 -0.5354 -0.2029
   23SAPC   H9R 3029   1.488   5.959   9.698  0.3297 -0.5591  1.7550
   23SAPC  C210 3030   1.320   6.061   9.586  0.3496  0.0469  0.2838
   23SAPC  H10R 3031   1.243   6.140   9.600  0.9509  0.9082 -1.1121
   23SAPC  H10S 3032   1.248   5.978   9.571 -1.6987  1.6901  0.5662
   23SAPC  C211 3033   1.392   6.084   9.458 -0.1335  0.0975  0.5541
   23SAPC  H11R 3034   1.408   5.996   9.395  2.3107  0.5432  0.4731
   23SAPC  C212 3035   1.427   6.207   9.408  0.4781  0.2706  0.2691
   23SAPC  H12R 3036   1.475   6.203   9.309  1.7310  0.2282  0.8552
   23SAPC  C213 3037   1.398   6.350   9.458 -0.1866 -0.5573  0.0838
   23SAPC  H13R 3038   1.494   6.406   9.450 -0.4813 -0.0325  0.2020
   23SAPC  H13S 3039   1.380   6.348   9.568  1.7843  0.0168  0.4605
   23SAPC  C214 3040   1.288   6.420   9.390  0.3571  0.5212 -0.6339
   23SAPC  H14R 3041   1.197   6.394   9.446  0.0209  1.0842 -0.9114
   23SAPC  C215 3042   1.292   6.492   9.277  0.4654  0.3170 -0.1446
   23SAPC  H15R 3043   1.203   6.538   9.232 -0.9647  1.7062  3.6527
   23SAPC  C216 3044   1.421   6.521   9.208  0.4157 -0.9660  0.2105
   23SAPC  H16R 3045   1.498   6.444   9.233  2.1816  0.7819  0.4235
   23SAPC  H16S 3046   1.458   6.618   9.249 -0.8514 -1.3938  2.5660
   23SAPC  C217 3047   1.410   6.539   9.057  0.1154  0.0055  0.0411
   23SAPC  H17R 3048   1.331   6.612   9.028 -0.6208 -0.9833 -0.5036
   23SAPC  H17S 3049   1.359   6.444   9.030 -2.0559  1.8220 -2.8499
   23SAPC  C218 3050   1.539   6.559   8.976 -0.1546 -0.3802  0.4675
   23SAPC  H18R 3051   1.515   6.537   8.870 -2.6400  1.3594  0.6014
   23SAPC  H18S 3052   1.607   6.479   9.013 -0.1989 -1.4084 -1.5081
   23SAPC  C219 3053   1.596   6.693   8.996 -0.4391 -0.1075  0.1129
   23SAPC  H19R 3054   1.704   6.686   8.972 -0.3698  0.1571  0.3390
   23SAPC  H19S 3055   1.583   6.720   9.103  0.1300 -0.1213  0.1854
   23SAPC  C220 3056   1.533   6.807   8.906  0.5332 -0.1678 -0.2673
   23SAPC  H20R 3057   1.429   6.831   8.938  0.2532 -2.9176  1.1804
   23SAPC  H20S 3058   1.510   6.763   8.806  0.1213  0.6842 -0.5582
   23SAPC  H20T 3059   1.606   6.889   8.894  0.9818 -0.3128  1.2902
   23SAPC   C33 3060   1.230   6.691   9.806  0.4385 -0.2326 -0.7547
   23SAPC   H3X 3061   1.316   6.761   9.816  0.1347  0.0502 -0.1180
   23SAPC   H3Y 3062   1.137   6.747   9.829 -0.3016 -2.0337  0.8222
   23SAPC   C34 3063   1.206   6.647   9.660 -0.1740 -0.2959  0.0616
   23SAPC   H4X 3064   1.121   6.575   9.655 -1.5498  1.3081 -0.4506
   23SAPC   H4Y 3065   1.302   6.595   9.635  0.4494  0.6921  0.3425
   23SAPC   C35 3066   1.177   6.764   9.569  0.3395  0.1965  0.0563
   23SAPC   H5X 3067   1.088   6.821   9.602 -1.1324 -0.9650 -1.7151
   23SAPC   H5Y 3068   1.141   6.723   9.472 -1.4730 -1.1548  1.2556
   23SAPC   C36 3069   1.299   6.851   9.539  0.0443  0.4553  0.9202
   23SAPC   H6X 3070   1.374   6.783   9.493 -1.2717  0.4923 -1.4775
   23SAPC   H6Y 3071   1.318   6.908   9.632 -3.7308 -0.6268  2.5247
   23SAPC   C37 3072   1.272   6.952   9.425 -0.3008  0.0269 -0.0572
   23SAPC   H7X 3073   1.354   7.027   9.434  1.2806 -1.7777  1.3686
   23SAPC   H7Y 3074   1.173   7.002   9.424  0.1588  1.0128  0.8910
   23SAPC   C38 3075   1.279   6.879   9.288  0.1197 -0.4009 -0.3117
   23SAPC   H8X 3076   1.204   6.797   9.297  1.2302 -1.4067 -0.0106
   23SAPC   H8Y 3077   1.375   6.824   9.277  0.1315 -0.4628  0.0937
   23SAPC   C39 3078   1.242   6.961   9.167 -0.2810  0.4211 -0.2568
   23SAPC   H9X 3079   1.334   7.001   9.118 -0.7280  1.4486 -0.2888
   23SAPC   H9Y 3080   1.181   7.049   9.197  0.2106  2.0547 -3.5548
   23SAPC  C310 3081   1.161   6.873   9.063  0.1077  0.3360 -0.7043
   23SAPC  H10X 3082   1.064   6.849   9.111  1.0501 -1.4970  0.3844
   23SAPC  H10Y 3083   1.220   6.783   9.038  0.8697  0.6429 -0.0458
   23SAPC  C311 3084   1.144   6.957   8.934  0.9101 -0.1530  0.1370
   23SAPC  H11X 3085   1.238   6.993   8.888  0.9498  0.7220  0.8762
   23SAPC  H11Y 3086   1.086   7.045   8.968  2.9172  0.5864  1.8778
   23SAPC  C312 3087   1.076   6.861   8.823 -0.1042 -0.4895  0.0664
   23SAPC  H12X 3088   0.985   6.811   8.864  1.3211 -1.7300  1.8462
   23SAPC  H12Y 3089   1.142   6.774   8.805 -1.4820 -2.0267  2.0059
   23SAPC  C313 3090   1.026   6.936   8.701 -0.2278 -0.6671 -0.5158
   23SAPC  H13X 3091   1.003   7.044   8.717 -1.2625 -0.4893 -2.7738
   23SAPC  H13Y 3092   0.934   6.882   8.669  0.3886 -1.0581 -1.6916
   23SAPC  C314 3093   1.122   6.930   8.577 -0.3316  0.0813  0.7481
   23SAPC  H14X 3094   1.071   6.980   8.492 -0.2030 -1.1659 -0.1001
   23SAPC  H14Y 3095   1.129   6.824   8.543 -0.3145 -0.2830  1.8638
   23SAPC  C315 3096   1.261   6.982   8.600  0.0406 -0.1601 -0.0759
   23SAPC  H15X 3097   1.330   6.962   8.515  0.7116 -1.2091  0.6843
   23SAPC  H15Y 3098   1.305   6.933   8.690  2.7162  0.2055 -1.1157
   23SAPC  C316 3099   1.259   7.138   8.628 -0.0924 -0.1844  0.1525
   23SAPC  H16X 3100   1.193   7.155   8.716 -1.5454 -1.9369 -0.5187
   23SAPC  H16Y 3101   1.213   7.195   8.545  0.6191  4.3036  2.5669
   23SAPC  C317 3102   1.399   7.195   8.657  0.0116 -0.6571 -0.1302
   23SAPC  H17X 3103   1.464   7.186   8.568  1.4867 -2.0644  1.0372
   23SAPC  H17Y 3104   1.455   7.128   8.725  0.0470 -1.7510 -1.2162
   23SAPC  C318 3105   1.401   7.328   8.729  0.3922  0.0325 -0.2654
   23SAPC  H18X 3106   1.344   7.320   8.823 -0.4471 -0.3531 -0.7933
   23SAPC  H18Y 3107   1.355   7.408   8.667 -0.6196 -1.7115 -1.8799
   23SAPC  H18Z 3108   1.504   7.361   8.754  0.3250  0.0936 -0.0717
   24SAPC     N 3109   3.296   6.541  11.188 -0.3292 -0.0984 -0.5920
   24SAPC   C12 3110   3.392   6.428  11.232 -0.1112  0.2785  0.2199
   24SAPC  H12A 3111   3.349   6.346  11.287  0.4642 -1.5139 -1.8294
   24SAPC  H12B 3112   3.452   6.474  11.310 -0.6825  0.0287  0.8140
   24SAPC   C13 3113   3.365   6.631  11.092 -0.0301  0.0860 -0.0096
   24SAPC  H13A 3114   3.450   6.686  11.130 -0.1405  0.3854 -0.1951
   24SAPC  H13B 3115   3.406   6.574  11.010 -0.7275  1.3628 -1.2798
   24SAPC  H13C 3116   3.292   6.694  11.045 -1.4252 -1.4636 -0.0255
   24SAPC   C14 3117   3.182   6.476  11.114  0.2762 -0.2909 -0.2359
   24SAPC  H14A 3118   3.215   6.409  11.035  3.5027 -0.4119  1.0635
   24SAPC  H14B 3119   3.125   6.434  11.194 -0.5210  3.8046  1.5980
   24SAPC  H14C 3120   3.112   6.548  11.073  0.3107  1.7750  2.9563
   24SAPC   C15 3121   3.241   6.618  11.306 -0.6609 -0.5405  0.9393
   24SAPC  H15A 3122   3.314   6.685  11.349 -2.8868  2.5387  0.2297
   24SAPC  H15B 3123   3.164   6.687  11.276  0.5690  1.2625  1.7448
   24SAPC  H15C 3124   3.208   6.555  11.388  1.4683  1.5282  3.5671
   24SAPC   C11 3125   3.478   6.352  11.122 -0.3134  0.3112 -0.4414
   24SAPC  H11A 3126   3.411   6.281  11.068  0.9791 -1.1821 -0.1821
   24SAPC  H11B 3127   3.553   6.300  11.185  0.7064  0.9782 -1.0732
   24SAPC     P 3128   3.690   6.505  11.062  0.1037  0.0655 -0.4404
   24SAPC   O13 3129   3.663   6.645  11.089  0.2850 -0.0993 -0.0926
   24SAPC   O14 3130   3.764   6.431  11.165  0.5629  0.5195  0.1331
   24SAPC   O12 3131   3.550   6.435  11.031  0.3416 -0.0981  0.0929
   24SAPC   O11 3132   3.770   6.505  10.928 -0.1001 -0.2351  0.0483
   24SAPC    C1 3133   3.792   6.375  10.869 -0.3329 -0.3904 -0.4660
   24SAPC    HA 3134   3.744   6.289  10.920  1.2364 -0.1291  1.5475
   24SAPC    HB 3135   3.757   6.378  10.763  1.3377  0.2396 -1.0234
   24SAPC    C2 3136   3.938   6.340  10.864  0.4717  0.4426  0.3644
   24SAPC    HS 3137   3.964   6.332  10.972 -0.7693  0.1775  0.6548
   24SAPC   O21 3138   4.011   6.455  10.810 -0.2959 -0.5561 -0.2298
   24SAPC   C21 3139   4.140   6.459  10.833  0.4679 -0.1163  0.4094
   24SAPC   O22 3140   4.204   6.392  10.911  0.4186 -0.1077  0.0416
   24SAPC   C22 3141   4.215   6.568  10.744 -0.3289  0.3698 -0.4596
   24SAPC   H2R 3142   4.140   6.641  10.706  0.2199  1.9451  1.3350
   24SAPC   H2S 3143   4.273   6.629  10.816 -1.6435  2.1585 -0.8365
   24SAPC    C3 3144   3.972   6.208  10.794  0.1082  0.0655 -0.5226
   24SAPC    HX 3145   3.922   6.126  10.850  0.1118  0.9134  0.7589
   24SAPC    HY 3146   4.079   6.177  10.801 -0.0705 -1.1692 -2.5206
   24SAPC   O31 3147   3.929   6.206  10.663  0.3891 -0.1294  0.1991
   24SAPC   C31 3148   3.933   6.092  10.600  0.3634  0.8796 -0.3421
   24SAPC   O32 3149   3.951   5.986  10.660 -0.6494  0.4634 -0.2528
   24SAPC   C32 3150   3.897   6.097  10.452 -0.0402  0.1513 -0.5674
   24SAPC   H2X 3151   3.901   6.204  10.423  0.2101  0.5823  0.9940
   24SAPC   H2Y 3152   3.791   6.066  10.450 -0.9006  2.8261 -0.2624
   24SAPC   C23 3153   4.313   6.504  10.642 -0.4687 -0.2954 -0.3032
   24SAPC   H3R 3154   4.388   6.448  10.701 -1.3298 -1.5092 -0.3223
   24SAPC   H3S 3155   4.362   6.580  10.578  2.2093 -0.8645  0.9470
   24SAPC   C24 3156   4.250   6.412  10.536  0.1762 -0.5180  0.7888
   24SAPC   H4R 3157   4.179   6.337  10.578 -0.5876 -1.3942 -1.8638
   24SAPC   H4S 3158   4.338   6.355  10.500  1.4943  1.2187  1.1217
   24SAPC   C25 3159   4.167   6.465  10.419  0.0574 -0.2967 -0.7349
   24SAPC   H5R 3160   4.061   6.487  10.436  0.3917  2.4907 -1.8294
   24SAPC   C26 3161   4.213   6.478  10.292 -0.2101 -0.0537  0.3145
   24SAPC   H6R 3162   4.140   6.513  10.217 -0.1885 -1.3097 -0.3289
   24SAPC   C27 3163   4.358   6.449  10.240  0.7539 -0.7668  0.7145
   24SAPC   H7R 3164   4.430   6.501  10.306  1.7068  0.4250 -1.1755
   24SAPC   H7S 3165   4.365   6.512  10.148  0.4874 -1.3343  0.3000
   24SAPC   C28 3166   4.397   6.309  10.209  0.4385 -0.0324  0.3350
   24SAPC   H8R 3167   4.438   6.258  10.297  2.8015  3.5030  1.4658
   24SAPC   C29 3168   4.389   6.249  10.080  0.0258 -0.7920 -0.7805
   24SAPC   H9R 3169   4.413   6.142  10.072 -1.1315 -1.1082 -0.2794
   24SAPC  C210 3170   4.357   6.326   9.959  0.5545 -0.1543 -0.2583
   24SAPC  H10R 3171   4.415   6.277   9.878 -1.0488  0.1964 -1.6729
   24SAPC  H10S 3172   4.386   6.433   9.951  2.4568 -0.6740 -0.7885
   24SAPC  C211 3173   4.211   6.310   9.931  0.0600 -0.3200 -0.8955
   24SAPC  H11R 3174   4.161   6.221   9.973  0.4901 -1.2622 -2.3300
   24SAPC  C212 3175   4.131   6.404   9.884  0.3474 -0.6330  0.2136
   24SAPC  H12R 3176   4.025   6.376   9.881 -0.4512  1.8553  2.3411
   24SAPC  C213 3177   4.170   6.546   9.847  0.0472  0.0777  0.0065
   24SAPC  H13R 3178   4.267   6.533   9.794 -0.4669 -0.8934 -0.7240
   24SAPC  H13S 3179   4.185   6.606   9.940  0.3104 -0.0212  0.0275
   24SAPC  C214 3180   4.074   6.613   9.748  0.1858 -0.1115 -0.3113
   24SAPC  H14R 3181   4.057   6.564   9.651 -0.0618  0.0413 -0.3465
   24SAPC  C215 3182   4.005   6.725   9.765  0.9055  0.2198 -0.4938
   24SAPC  H15R 3183   3.929   6.747   9.688 -0.7514 -0.9506  0.7449
   24SAPC  C216 3184   3.981   6.816   9.879  0.1428 -0.3088 -0.0781
   24SAPC  H16R 3185   3.985   6.921   9.844 -1.1747  0.3788  1.6653
   24SAPC  H16S 3186   4.065   6.803   9.950  0.9702  1.0652 -0.7762
   24SAPC  C217 3187   3.845   6.786   9.943  0.6594  0.9558  0.9146
   24SAPC  H17R 3188   3.831   6.681   9.977 -0.3080  0.4601 -0.8654
   24SAPC  H17S 3189   3.770   6.795   9.862  1.5217  0.0470 -0.0089
   24SAPC  C218 3190   3.790   6.876  10.055 -0.0355 -0.4234  0.0567
   24SAPC  H18R 3191   3.696   6.825  10.086 -1.3425 -0.1033 -2.9861
   24SAPC  H18S 3192   3.767   6.975  10.011 -3.5613 -1.1825 -0.1114
   24SAPC  C219 3193   3.901   6.899  10.159 -0.7114  0.0720  0.4185
   24SAPC  H19R 3194   3.900   6.987  10.228  2.1779 -1.1030  2.1425
   24SAPC  H19S 3195   3.997   6.916  10.106 -1.2437 -0.2187 -0.6445
   24SAPC  C220 3196   3.933   6.770  10.240 -0.1178  0.9937  0.0262
   24SAPC  H20R 3197   3.847   6.733  10.300 -1.3158  0.7197 -1.7781
   24SAPC  H20S 3198   4.027   6.787  10.297 -0.2603  2.0641 -0.0380
   24SAPC  H20T 3199   3.954   6.689  10.167 -0.1671  1.0309 -0.0293
   24SAPC   C33 3200   3.974   5.995  10.357 -0.0156  0.5569 -0.2604
   24SAPC   H3X 3201   3.930   5.893  10.359 -1.3116  1.0926 -0.3707
   24SAPC   H3Y 3202   4.073   5.978  10.403 -0.0995  1.6901  0.3834
   24SAPC   C34 3203   3.974   6.034  10.207 -0.8414  0.8029 -0.1723
   24SAPC   H4X 3204   3.997   6.142  10.205  1.1711  0.4467  0.9484
   24SAPC   H4Y 3205   3.876   6.011  10.160 -0.8004 -1.9971  0.9116
   24SAPC   C35 3206   4.085   5.961  10.134 -0.1754 -0.2384  0.7548
   24SAPC   H5X 3207   4.088   5.862  10.186  1.1246 -0.9977 -0.6952
   24SAPC   H5Y 3208   4.179   6.015  10.158 -1.4660  2.3181  0.3642
   24SAPC   C36 3209   4.076   5.932   9.987  0.3164  0.5548 -0.1573
   24SAPC   H6X 3210   4.016   6.019   9.952  1.4541  0.4248 -2.6406
   24SAPC   H6Y 3211   4.008   5.849   9.960  0.4765  1.6735 -4.8441
   24SAPC   C37 3212   4.203   5.925   9.909 -0.7282 -0.1426 -0.6227
   24SAPC   H7X 3213   4.258   5.836   9.946  0.4949  1.4895  1.7353
   24SAPC   H7Y 3214   4.279   6.004   9.928  0.4077 -0.6984 -2.5132
   24SAPC   C38 3215   4.177   5.928   9.765  0.5394  0.1721 -0.4749
   24SAPC   H8X 3216   4.144   6.033   9.748 -0.0137  0.2369  0.8693
   24SAPC   H8Y 3217   4.096   5.861   9.730  1.4625 -0.9331 -0.5527
   24SAPC   C39 3218   4.308   5.907   9.686 -0.1225 -0.0139  0.6905
   24SAPC   H9X 3219   4.345   5.805   9.710 -1.5592 -0.1850  2.3244
   24SAPC   H9Y 3220   4.388   5.977   9.717 -0.6949  1.5959 -1.2126
   24SAPC  C310 3221   4.288   5.925   9.537  0.1142  0.0858 -0.3978
   24SAPC  H10X 3222   4.332   6.022   9.505  1.3329 -0.5996 -0.8870
   24SAPC  H10Y 3223   4.182   5.927   9.505  0.0505 -0.7474 -0.2752
   24SAPC  C311 3224   4.370   5.822   9.461 -0.2896  0.4684 -0.0038
   24SAPC  H11X 3225   4.327   5.721   9.480 -2.4557  0.7520 -2.7072
   24SAPC  H11Y 3226   4.470   5.822   9.510  0.0126  1.9296 -0.5816
   24SAPC  C312 3227   4.366   5.839   9.303 -0.1773  0.2507  0.0888
   24SAPC  H12X 3228   4.260   5.819   9.277 -0.7205 -0.3493  2.4962
   24SAPC  H12Y 3229   4.422   5.752   9.261 -0.3100  0.8126 -1.3053
   24SAPC  C313 3230   4.428   5.974   9.252 -0.4467  0.1703  0.0082
   24SAPC  H13X 3231   4.533   5.976   9.287 -0.8142  0.2226  1.1307
   24SAPC  H13Y 3232   4.376   6.061   9.298  0.3113  0.3231  0.5851
   24SAPC  C314 3233   4.422   5.964   9.100  0.1574  0.6862  0.7739
   24SAPC  H14X 3234   4.462   5.865   9.070  3.3456  2.0260  0.2484
   24SAPC  H14Y 3235   4.500   6.032   9.061  0.8294 -0.6123 -0.2517
   24SAPC  C315 3236   4.276   5.995   9.044 -0.3795 -0.0771  0.1086
   24SAPC  H15X 3237   4.238   6.090   9.088  1.8691  1.5527 -1.2104
   24SAPC  H15Y 3238   4.214   5.907   9.070  0.2110  0.1956  2.6555
   24SAPC  C316 3239   4.280   6.003   8.893  0.5392 -0.4208 -0.7009
   24SAPC  H16X 3240   4.336   5.915   8.855  0.6634 -0.5370 -0.2563
   24SAPC  H16Y 3241   4.334   6.093   8.857  3.0379 -0.1077  3.2068
   24SAPC  C317 3242   4.135   5.984   8.834 -0.2793 -0.0552  0.6080
   24SAPC  H17X 3243   4.066   6.063   8.870 -1.1465 -0.7434  0.4698
   24SAPC  H17Y 3244   4.104   5.885   8.873 -2.9396  0.3682 -0.2457
   24SAPC  C318 3245   4.141   5.985   8.678  0.1047 -0.1535 -0.3351
   24SAPC  H18X 3246   4.041   5.962   8.634 -1.0347 -0.2538  2.1606
   24SAPC  H18Y 3247   4.215   5.907   8.650  0.7380 -0.0746  1.0819
   24SAPC  H18Z 3248   4.183   6.085   8.656 -0.2253 -0.1551 -1.0330
   25SAPC     N 3249   5.828   2.924   5.807  0.1576  0.9009  0.2630
   25SAPC   C12 3250   5.771   2.978   5.934 -0.1814 -0.2152 -0.7539
   25SAPC  H12A 3251   5.690   2.917   5.971  0.4465 -0.7024 -0.1624
   25SAPC  H12B 3252   5.719   3.071   5.913 -0.6241 -0.6918 -1.8731
   25SAPC   C13 3253   5.920   3.023   5.736  0.2105  0.1613 -0.1363
   25SAPC  H13A 3254   5.879   3.123   5.728 -0.8623 -0.0595  1.8574
   25SAPC  H13B 3255   6.018   3.026   5.783 -0.6990 -0.2865  1.8969
   25SAPC  H13C 3256   5.933   2.982   5.637 -0.5220 -0.1236 -0.1192
   25SAPC   C14 3257   5.914   2.795   5.818 -0.0985 -0.0363 -0.6309
   25SAPC  H14A 3258   6.000   2.809   5.881  0.8535 -0.8937 -1.7232
   25SAPC  H14B 3259   5.858   2.712   5.860 -0.4133 -0.2471 -1.4480
   25SAPC  H14C 3260   5.961   2.763   5.727 -0.0430  0.0861 -0.6451
   25SAPC   C15 3261   5.711   2.891   5.721  0.4778  0.3804  0.5165
   25SAPC  H15A 3262   5.731   2.852   5.622 -1.6180  0.5484 -0.0152
   25SAPC  H15B 3263   5.639   2.831   5.774 -0.6194  1.7282  0.6255
   25SAPC  H15C 3264   5.656   2.982   5.704  1.6166  0.8216 -0.9610
   25SAPC   C11 3265   5.867   2.992   6.056  0.5463 -0.0907  0.4410
   25SAPC  H11A 3266   5.902   2.891   6.086  0.9422 -0.4766 -1.2451
   25SAPC  H11B 3267   5.805   3.020   6.145  1.6325 -0.1508  1.2363
   25SAPC     P 3268   5.976   3.239   6.041  0.4568  0.2297 -0.0254
   25SAPC   O13 3269   6.055   3.294   5.929 -0.0969  0.2055  0.3058
   25SAPC   O14 3270   5.830   3.277   6.041 -0.0130  0.0243  0.1408
   25SAPC   O12 3271   5.986   3.083   6.038  0.2359  0.2457  0.4418
   25SAPC   O11 3272   6.043   3.292   6.170 -0.6282  0.2226  0.6553
   25SAPC    C1 3273   6.093   3.205   6.272  0.4302 -0.6377  0.4134
   25SAPC    HA 3274   6.126   3.102   6.246  4.1743  0.4361  0.4584
   25SAPC    HB 3275   6.185   3.257   6.307  0.9034 -0.0467 -1.6288
   25SAPC    C2 3276   5.994   3.190   6.393  0.2813 -0.7775  0.4200
   25SAPC    HS 3277   5.897   3.154   6.354 -1.2553  2.6402  0.7299
   25SAPC   O21 3278   5.979   3.327   6.448  0.4687  0.2705 -0.3784
   25SAPC   C21 3279   5.859   3.354   6.506  0.1045  0.1799 -0.0581
   25SAPC   O22 3280   5.766   3.276   6.501  0.2810  0.4615 -0.3424
   25SAPC   C22 3281   5.867   3.491   6.573 -0.0328  0.3950  0.6496
   25SAPC   H2R 3282   5.940   3.551   6.515  0.4875 -0.9204 -0.1115
   25SAPC   H2S 3283   5.766   3.536   6.567  0.1958  0.9988  1.2764
   25SAPC    C3 3284   6.042   3.098   6.507 -0.6635  0.7776 -0.5971
   25SAPC    HX 3285   6.151   3.109   6.527 -0.6366 -1.9558  1.2326
   25SAPC    HY 3286   6.027   2.993   6.472  2.1366 -0.8884  2.5787
   25SAPC   O31 3287   5.977   3.124   6.631 -0.2907 -0.2222  0.1480
   25SAPC   C31 3288   5.960   3.029   6.711 -0.5443 -0.2296  0.1187
   25SAPC   O32 3289   5.989   2.912   6.686 -0.3407  0.1701 -0.5043
   25SAPC   C32 3290   5.885   3.094   6.830 -0.7378 -0.3683  0.0176
   25SAPC   H2X 3291   5.791   3.129   6.781  1.8904  3.5314 -2.8503
   25SAPC   H2Y 3292   5.944   3.184   6.857  0.0602 -1.3526  1.7100
   25SAPC   C23 3293   5.915   3.486   6.715 -0.3402 -0.2004  0.5722
   25SAPC   H3R 3294   5.885   3.390   6.762  1.9816  0.2882  3.3443
   25SAPC   H3S 3295   5.886   3.576   6.774 -0.2849  0.1801  0.0301
   25SAPC   C24 3296   6.069   3.484   6.736  0.6268  0.0843 -0.3402
   25SAPC   H4R 3297   6.104   3.399   6.674 -1.3289 -0.8776 -0.1953
   25SAPC   H4S 3298   6.085   3.455   6.842  1.6714  0.6322 -0.3385
   25SAPC   C25 3299   6.134   3.610   6.696  0.3401 -0.0772 -0.2225
   25SAPC   H5R 3300   6.119   3.650   6.594  4.6609  1.7760 -0.3558
   25SAPC   C26 3301   6.213   3.690   6.768  0.1036 -0.0463  0.0874
   25SAPC   H6R 3302   6.252   3.783   6.724  1.1154  0.4080  1.8258
   25SAPC   C27 3303   6.253   3.681   6.919  0.0661  0.3057 -0.6950
   25SAPC   H7R 3304   6.165   3.658   6.982 -0.0726  3.8169  0.6179
   25SAPC   H7S 3305   6.281   3.782   6.955  0.8074  0.5690 -1.9524
   25SAPC   C28 3306   6.377   3.605   6.953  0.5303  0.3402  0.6177
   25SAPC   H8R 3307   6.443   3.589   6.867 -1.1094  1.0233 -0.8187
   25SAPC   C29 3308   6.407   3.555   7.076 -0.4781  1.1106 -0.8134
   25SAPC   H9R 3309   6.489   3.482   7.088 -2.2834 -1.0056 -0.7285
   25SAPC  C210 3310   6.316   3.568   7.195  0.3015  0.0866  0.5212
   25SAPC  H10R 3311   6.244   3.484   7.192  0.3635 -0.0419  1.9353
   25SAPC  H10S 3312   6.252   3.659   7.196 -0.8114 -0.6869  0.5527
   25SAPC  C211 3313   6.399   3.569   7.317  0.3091  0.0991  0.3294
   25SAPC  H11R 3314   6.495   3.623   7.315 -0.8024  2.1312 -0.6990
   25SAPC  C212 3315   6.350   3.522   7.435  0.0578 -0.3677 -0.5026
   25SAPC  H12R 3316   6.422   3.488   7.511  1.8162 -0.5588 -2.1673
   25SAPC  C213 3317   6.214   3.466   7.460 -0.3330 -0.1644 -0.0214
   25SAPC  H13R 3318   6.235   3.362   7.428  0.6271  0.1303 -0.3940
   25SAPC  H13S 3319   6.140   3.504   7.386 -0.4046 -3.3435 -1.7342
   25SAPC  C214 3320   6.165   3.467   7.600 -0.0067 -0.0104  0.0167
   25SAPC  H14R 3321   6.197   3.560   7.650 -1.2628  1.2532 -1.3981
   25SAPC  C215 3322   6.110   3.362   7.668 -0.6131 -0.9019  0.5029
   25SAPC  H15R 3323   6.082   3.373   7.774  0.0139  0.4647  0.5536
   25SAPC  C216 3324   6.077   3.227   7.607 -0.4106 -0.0401  0.1256
   25SAPC  H16R 3325   6.099   3.231   7.498 -1.4574  0.4573 -0.0714
   25SAPC  H16S 3326   5.968   3.210   7.610 -0.2424 -1.9574 -1.7749
   25SAPC  C217 3327   6.158   3.116   7.673 -1.1757  0.5306  0.1965
   25SAPC  H17R 3328   6.266   3.123   7.646 -1.1626  3.3094  0.6950
   25SAPC  H17S 3329   6.117   3.020   7.634 -1.6632  1.2304 -1.0567
   25SAPC  C218 3330   6.153   3.110   7.830 -0.5277  0.2059 -0.0206
   25SAPC  H18R 3331   6.209   3.190   7.882 -1.7968 -0.6054  2.7983
   25SAPC  H18S 3332   6.206   3.019   7.866 -0.7657  0.7355  1.8057
   25SAPC  C219 3333   6.011   3.109   7.884 -0.0164 -0.2200 -0.4465
   25SAPC  H19R 3334   5.969   3.211   7.870  0.6125  0.2052  0.6155
   25SAPC  H19S 3335   6.014   3.090   7.994 -2.1481 -2.4211 -0.6750
   25SAPC  C220 3336   5.931   3.004   7.810  0.8013  0.0575 -0.3494
   25SAPC  H20R 3337   5.989   2.910   7.806 -1.9983 -1.9518  2.1588
   25SAPC  H20S 3338   5.913   3.038   7.705  0.3977  2.8211  0.5387
   25SAPC  H20T 3339   5.834   2.979   7.858  1.5538 -1.6626  0.3457
   25SAPC   C33 3340   5.858   2.994   6.942 -0.2958 -0.3143 -0.2465
   25SAPC   H3X 3341   5.946   2.957   6.998 -1.2683  0.4802  1.9190
   25SAPC   H3Y 3342   5.801   2.907   6.902  1.1889 -1.4572  0.0195
   25SAPC   C34 3343   5.762   3.058   7.049 -0.2500 -0.6613  0.6835
   25SAPC   H4X 3344   5.751   2.977   7.124 -1.6274 -1.2430 -0.1056
   25SAPC   H4Y 3345   5.664   3.081   7.002 -0.0579 -1.1120  0.0550
   25SAPC   C35 3346   5.813   3.185   7.119 -0.5672  0.0547  0.1568
   25SAPC   H5X 3347   5.813   3.269   7.046  0.5605 -0.1619 -0.1108
   25SAPC   H5Y 3348   5.922   3.173   7.137 -0.5552  1.4065  1.0999
   25SAPC   C36 3349   5.736   3.218   7.252 -0.2579  0.0004  0.8417
   25SAPC   H6X 3350   5.730   3.122   7.308 -1.0521  0.7277  2.0516
   25SAPC   H6Y 3351   5.636   3.247   7.213  0.7646  0.9984 -1.1922
   25SAPC   C37 3352   5.811   3.320   7.328  0.2427 -0.3565  0.7122
   25SAPC   H7X 3353   5.821   3.410   7.263  2.0768  0.8081  2.5114
   25SAPC   H7Y 3354   5.916   3.286   7.343  0.7998  0.3488 -1.2430
   25SAPC   C38 3355   5.731   3.367   7.451  0.0384  0.8498  0.3101
   25SAPC   H8X 3356   5.732   3.288   7.530  0.2664  1.8833  1.3634
   25SAPC   H8Y 3357   5.624   3.367   7.422 -0.3775  1.2030  1.7607
   25SAPC   C39 3358   5.782   3.494   7.517 -0.4206  0.2794  0.0929
   25SAPC   H9X 3359   5.765   3.578   7.447  1.5337  0.3499 -0.3407
   25SAPC   H9Y 3360   5.893   3.494   7.523 -0.3964  2.4615  0.3851
   25SAPC  C310 3361   5.720   3.524   7.651  0.0397 -0.4688 -0.4102
   25SAPC  H10X 3362   5.613   3.494   7.656 -0.1924  0.3219 -0.3974
   25SAPC  H10Y 3363   5.714   3.635   7.662 -1.2290 -0.5534 -0.0922
   25SAPC  C311 3364   5.785   3.454   7.767 -0.5774 -0.2110  0.0854
   25SAPC  H11X 3365   5.891   3.484   7.777 -0.6422 -0.0935  0.4600
   25SAPC  H11Y 3366   5.778   3.344   7.755 -0.4432 -0.1012 -1.1685
   25SAPC  C312 3367   5.735   3.484   7.908  0.1232  0.0056 -0.2734
   25SAPC  H12X 3368   5.628   3.454   7.919  0.3725 -0.5357  0.8279
   25SAPC  H12Y 3369   5.739   3.595   7.909  0.1277  0.0093 -0.6567
   25SAPC  C313 3370   5.804   3.424   8.031  0.3973 -0.6357  0.4262
   25SAPC  H13X 3371   5.811   3.316   8.007 -1.6160 -0.1242 -3.0531
   25SAPC  H13Y 3372   5.732   3.431   8.115  0.1966  1.8532  0.1243
   25SAPC  C314 3373   5.935   3.493   8.078  0.5567  0.0315  0.2139
   25SAPC  H14X 3374   5.912   3.572   8.152  1.0624  1.1356 -0.7690
   25SAPC  H14Y 3375   5.989   3.524   7.986 -0.2534 -2.9909 -1.4119
   25SAPC  C315 3376   6.021   3.392   8.152  0.4206 -0.0666 -0.2114
   25SAPC  H15X 3377   6.120   3.440   8.143  0.8023 -0.6314  0.8696
   25SAPC  H15Y 3378   6.022   3.289   8.109 -0.0139  0.4979 -1.6409
   25SAPC  C316 3379   5.983   3.370   8.302 -0.3168 -0.0450  0.0465
   25SAPC  H16X 3380   5.876   3.339   8.307 -0.7428  1.4332  0.5363
   25SAPC  H16Y 3381   5.981   3.466   8.357 -1.4597 -0.5679  0.9693
   25SAPC  C317 3382   6.078   3.267   8.377 -0.2537 -0.0891 -0.4045
   25SAPC  H17X 3383   6.020   3.241   8.469  2.2234 -0.9287  1.0021
   25SAPC  H17Y 3384   6.173   3.319   8.403 -0.1481 -0.8820  0.8375
   25SAPC  C318 3385   6.114   3.149   8.282 -0.3544  0.1781 -0.4889
   25SAPC  H18X 3386   6.020   3.111   8.237 -0.0720  0.6305 -1.4832
   25SAPC  H18Y 3387   6.163   3.060   8.327 -3.0768 -0.5020  1.4036
   25SAPC  H18Z 3388   6.180   3.186   8.202  1.3494 -0.5327  0.5399
   26SAPC     N 3389   6.702   5.747   6.031  0.3171 -0.0003  0.1435
   26SAPC   C12 3390   6.774   5.871   6.070 -0.2964  0.1566 -0.0641
   26SAPC  H12A 3391   6.708   5.956   6.074 -1.9023 -0.8283 -2.8004
   26SAPC  H12B 3392   6.858   5.892   6.006  1.2656  0.2885  1.9215
   26SAPC   C13 3393   6.620   5.761   5.904 -0.8540 -0.0397  0.0181
   26SAPC  H13A 3394   6.693   5.772   5.824 -1.2173 -0.5838 -0.3974
   26SAPC  H13B 3395   6.563   5.673   5.879  0.1896 -0.0630 -2.6309
   26SAPC  H13C 3396   6.556   5.847   5.899  1.0787  1.4116 -3.2458
   26SAPC   C14 3397   6.796   5.628   6.022  0.6337 -0.6243 -0.1910
   26SAPC  H14A 3398   6.740   5.536   6.015 -0.1676 -0.0482 -1.6105
   26SAPC  H14B 3399   6.861   5.641   5.937 -0.3874 -0.8979 -1.0342
   26SAPC  H14C 3400   6.857   5.617   6.111  0.8151  2.3611  0.1339
   26SAPC   C15 3401   6.593   5.740   6.130 -0.3130  0.6362  0.3876
   26SAPC  H15A 3402   6.530   5.826   6.118 -0.8600  0.0953 -0.7198
   26SAPC  H15B 3403   6.526   5.655   6.122  2.1738 -1.4367 -0.0685
   26SAPC  H15C 3404   6.635   5.744   6.230  0.9260 -0.8094 -0.0358
   26SAPC   C11 3405   6.852   5.867   6.203 -0.1612 -0.5766 -0.0291
   26SAPC  H11A 3406   6.796   5.829   6.292  0.6633 -1.1747  0.2433
   26SAPC  H11B 3407   6.885   5.969   6.232  3.1760 -1.0811 -1.6566
   26SAPC     P 3408   7.102   5.832   6.131  0.0118 -0.3829  0.0985
   26SAPC   O13 3409   7.187   5.724   6.073 -0.1113 -0.0858  0.2517
   26SAPC   O14 3410   7.081   5.946   6.037 -0.4534  0.2384  0.9991
   26SAPC   O12 3411   6.968   5.782   6.192  0.1257  0.2308  0.4106
   26SAPC   O11 3412   7.180   5.893   6.251  0.4226 -0.3961 -0.4894
   26SAPC    C1 3413   7.221   5.814   6.364  0.3210  0.4695  0.4768
   26SAPC    HA 3414   7.193   5.708   6.346 -0.4636  1.1338 -2.9777
   26SAPC    HB 3415   7.329   5.818   6.389 -0.3206  0.2312  3.6147
   26SAPC    C2 3416   7.148   5.860   6.492  0.5143  0.0262  0.3941
   26SAPC    HS 3417   7.039   5.864   6.469  0.4453 -0.1577  0.6754
   26SAPC   O21 3418   7.204   5.984   6.533 -0.0852  0.2070 -0.4715
   26SAPC   C21 3419   7.126   6.087   6.549 -0.5728 -0.9200 -0.2627
   26SAPC   O22 3420   7.004   6.098   6.527 -0.7222  0.2555 -0.6700
   26SAPC   C22 3421   7.221   6.203   6.586 -0.7067  0.3162 -0.3540
   26SAPC   H2R 3422   7.317   6.167   6.628 -1.2178 -0.7487 -0.0700
   26SAPC   H2S 3423   7.244   6.256   6.491  3.5531 -1.5174 -0.5683
   26SAPC    C3 3424   7.164   5.755   6.602  0.3329 -0.2136  0.4890
   26SAPC    HX 3425   7.274   5.737   6.598  0.1148 -1.4836 -1.1180
   26SAPC    HY 3426   7.118   5.655   6.583 -0.5680  0.5385 -1.5754
   26SAPC   O31 3427   7.132   5.801   6.735  0.1780 -0.0041  0.0737
   26SAPC   C31 3428   7.009   5.771   6.763 -1.0964  0.7677 -0.0781
   26SAPC   O32 3429   6.935   5.700   6.698  0.1210  0.6759 -0.5714
   26SAPC   C32 3430   6.970   5.834   6.893 -0.7732  0.1381  0.2946
   26SAPC   H2X 3431   6.996   5.942   6.891  1.5483 -0.3899 -1.0004
   26SAPC   H2Y 3432   7.027   5.788   6.976  0.2446 -0.2993 -0.6339
   26SAPC   C23 3433   7.154   6.313   6.673  0.0881  1.1371 -0.1191
   26SAPC   H3R 3434   7.050   6.330   6.640  0.1792  2.9960  0.4054
   26SAPC   H3S 3435   7.207   6.411   6.662  3.0676 -0.4420 -1.0394
   26SAPC   C24 3436   7.136   6.291   6.823 -0.3965  0.2555  0.2651
   26SAPC   H4R 3437   7.075   6.200   6.839  1.4079 -0.8748  1.1397
   26SAPC   H4S 3438   7.078   6.379   6.858 -2.4658  0.3462 -3.0504
   26SAPC   C25 3439   7.265   6.288   6.899  0.2457 -0.1070 -0.0376
   26SAPC   H5R 3440   7.312   6.387   6.901 -3.3088  1.8190 -1.7767
   26SAPC   C26 3441   7.327   6.180   6.950 -0.4104  0.3116 -0.1442
   26SAPC   H6R 3442   7.417   6.185   7.014 -1.0482  0.9008  0.7277
   26SAPC   C27 3443   7.271   6.035   6.945  0.7276 -0.8116 -0.4082
   26SAPC   H7R 3444   7.286   5.989   6.845 -0.0688  2.3642 -2.1404
   26SAPC   H7S 3445   7.167   6.049   6.980  1.0531  1.0341 -0.0826
   26SAPC   C28 3446   7.323   5.941   7.050  0.3956  0.3504  0.5414
   26SAPC   H8R 3447   7.387   5.860   7.014 -0.7194  0.4802 -1.9813
   26SAPC   C29 3448   7.298   5.946   7.184 -0.4674 -0.5793  0.4752
   26SAPC   H9R 3449   7.358   5.879   7.248 -0.9187 -0.2729  1.2365
   26SAPC  C210 3450   7.213   6.053   7.248 -0.5537 -0.0220 -0.1707
   26SAPC  H10R 3451   7.170   6.126   7.176 -1.3640 -1.0413 -0.7459
   26SAPC  H10S 3452   7.283   6.106   7.316  0.6629 -1.6024 -0.1181
   26SAPC  C211 3453   7.099   5.979   7.316 -0.1402  0.8909  0.7173
   26SAPC  H11R 3454   7.057   5.896   7.257  2.6739 -0.1744  0.0049
   26SAPC  C212 3455   7.034   6.013   7.427  0.2647  0.3475  0.1555
   26SAPC  H12R 3456   6.953   5.951   7.468  1.5030  0.3498  2.8543
   26SAPC  C213 3457   7.069   6.133   7.511 -0.1097  0.2747  0.7538
   26SAPC  H13R 3458   7.178   6.153   7.500  0.1085  0.4212  2.7467
   26SAPC  H13S 3459   7.078   6.091   7.613  0.4575  0.8230  0.9392
   26SAPC  C214 3460   6.991   6.261   7.482 -0.5697 -0.0242  0.0325
   26SAPC  H14R 3461   6.962   6.279   7.377 -0.1037 -1.3267 -0.3371
   26SAPC  C215 3462   6.945   6.346   7.575 -0.5566  0.2100  0.1713
   26SAPC  H15R 3463   6.887   6.437   7.553 -1.6930  0.0642  2.2243
   26SAPC  C216 3464   6.972   6.318   7.718 -0.9443 -0.0653 -0.8202
   26SAPC  H16R 3465   7.074   6.281   7.738 -0.3268  2.2431  0.6710
   26SAPC  H16S 3466   6.899   6.242   7.753 -1.8160 -0.0807 -2.5345
   26SAPC  C217 3467   6.972   6.442   7.812 -0.4604  0.0323  0.2307
   26SAPC  H17R 3468   6.879   6.500   7.797  0.7589  2.2876  0.8969
   26SAPC  H17S 3469   7.056   6.507   7.779  0.2117 -1.1985 -0.5774
   26SAPC  C218 3470   6.997   6.415   7.965  0.0158 -0.5230 -0.3179
   26SAPC  H18R 3471   7.092   6.361   7.983  0.3228  0.0784 -0.0922
   26SAPC  H18S 3472   6.915   6.355   8.010 -0.5910  1.8764  2.0327
   26SAPC  C219 3473   6.998   6.547   8.045  0.2423 -0.0754 -0.3906
   26SAPC  H19R 3474   6.899   6.597   8.042 -0.1982 -0.9998 -2.6685
   26SAPC  H19S 3475   7.082   6.609   8.005 -1.0801  1.3015 -1.1390
   26SAPC  C220 3476   7.026   6.525   8.194  0.6043  0.1449 -0.1198
   26SAPC  H20R 3477   6.934   6.475   8.230  1.4602 -0.3612  1.5015
   26SAPC  H20S 3478   7.042   6.611   8.263  0.1072  0.8452 -0.8610
   26SAPC  H20T 3479   7.105   6.446   8.201  1.5134  0.9121 -1.3805
   26SAPC   C33 3480   6.817   5.849   6.923  0.3164 -0.4554 -0.0792
   26SAPC   H3X 3481   6.783   5.745   6.943  2.3097 -1.2456 -0.5145
   26SAPC   H3Y 3482   6.765   5.890   6.834 -0.7912  0.2814  0.8724
   26SAPC   C34 3483   6.784   5.943   7.045  0.2780  0.3396 -0.0067
   26SAPC   H4X 3484   6.862   5.925   7.123  0.2533  2.3889  0.5498
   26SAPC   H4Y 3485   6.686   5.918   7.092 -0.0978  1.2479 -0.2919
   26SAPC   C35 3486   6.783   6.095   7.009  0.2888  0.2059 -1.0646
   26SAPC   H5X 3487   6.708   6.111   6.929 -0.6609  3.1433  0.2791
   26SAPC   H5Y 3488   6.886   6.119   6.976  0.1250  1.2718 -0.8293
   26SAPC   C36 3489   6.749   6.176   7.147 -0.2011  0.0525  0.2296
   26SAPC   H6X 3490   6.779   6.283   7.153  0.2704 -0.1372  1.7343
   26SAPC   H6Y 3491   6.810   6.126   7.226 -2.0273 -2.9662 -0.1251
   26SAPC   C37 3492   6.599   6.156   7.187  0.0031  0.6373 -0.1521
   26SAPC   H7X 3493   6.565   6.052   7.172  1.6649  0.4309 -3.3213
   26SAPC   H7Y 3494   6.538   6.225   7.124 -1.9049 -0.0975  0.8132
   26SAPC   C38 3495   6.573   6.188   7.336 -0.3016 -0.9131 -0.0415
   26SAPC   H8X 3496   6.465   6.209   7.351 -0.1884 -0.7218  0.5269
   26SAPC   H8Y 3497   6.630   6.282   7.350  0.0244 -1.2376  0.8166
   26SAPC   C39 3498   6.612   6.070   7.426 -0.2191 -0.9639  0.2109
   26SAPC   H9X 3499   6.723   6.068   7.413 -0.2086  1.4622 -0.5180
   26SAPC   H9Y 3500   6.579   5.969   7.392  0.9202 -1.1003 -0.5534
   26SAPC  C310 3501   6.589   6.089   7.575 -0.5271  0.4627 -0.1859
   26SAPC  H10X 3502   6.486   6.056   7.599 -0.3856 -3.3833 -3.7597
   26SAPC  H10Y 3503   6.598   6.200   7.583  1.0811  0.2356  2.4134
   26SAPC  C311 3504   6.698   6.025   7.669  1.0021  0.1752 -0.1033
   26SAPC  H11X 3505   6.795   6.072   7.641  0.5272  1.2489  0.0466
   26SAPC  H11Y 3506   6.700   5.915   7.653 -0.6231  0.2493 -0.9992
   26SAPC  C312 3507   6.665   6.072   7.818  0.7075 -0.2400 -0.2007
   26SAPC  H12X 3508   6.556   6.089   7.831  0.5410 -1.2117 -0.2327
   26SAPC  H12Y 3509   6.717   6.167   7.841  0.9741 -0.6181  0.8088
   26SAPC  C313 3510   6.726   5.970   7.922  0.0402  0.2214 -0.1677
   26SAPC  H13X 3511   6.821   5.924   7.888 -1.0111  0.0156 -3.1348
   26SAPC  H13Y 3512   6.662   5.879   7.922  2.7037 -1.7779  0.8039
   26SAPC  C314 3513   6.754   6.040   8.059 -0.3720  0.0326 -0.5859
   26SAPC  H14X 3514   6.665   6.096   8.095 -1.1588 -1.4264 -0.1494
   26SAPC  H14Y 3515   6.846   6.101   8.054  0.1455 -0.7523 -0.7587
   26SAPC  C315 3516   6.792   5.928   8.158  0.1784  0.2352  0.4606
   26SAPC  H15X 3517   6.875   5.881   8.101  0.5713  3.3880 -1.8367
   26SAPC  H15Y 3518   6.714   5.851   8.179 -1.7626  2.0166  0.1125
   26SAPC  C316 3519   6.842   5.979   8.292  0.6781 -0.6356 -0.1331
   26SAPC  H16X 3520   6.766   6.044   8.340  1.2647  0.5866 -0.8012
   26SAPC  H16Y 3521   6.934   6.042   8.282  1.9405 -2.3863 -0.0550
   26SAPC  C317 3522   6.862   5.861   8.387  0.2482  0.0496  0.0619
   26SAPC  H17X 3523   6.759   5.824   8.408 -0.0012  0.4074 -0.5176
   26SAPC  H17Y 3524   6.905   5.890   8.486  0.5247 -1.2354  0.3308
   26SAPC  C318 3525   6.942   5.739   8.334  0.3354 -0.1580  0.1900
   26SAPC  H18X 3526   6.898   5.690   8.244  0.9660  0.9078 -0.7192
   26SAPC  H18Y 3527   6.949   5.665   8.416 -3.1861  0.0661  0.8661
   26SAPC  H18Z 3528   7.043   5.766   8.298  0.0593  0.5774 -0.0576
   27SAPC     N 3529   5.214   6.618   6.328  0.2282  0.2957  0.1868
   27SAPC   C12 3530   5.130   6.514   6.397 -0.3346 -0.2129  0.5053
   27SAPC  H12A 3531   5.128   6.434   6.325  1.9736  0.1180  0.0112
   27SAPC  H12B 3532   5.025   6.538   6.387 -0.3699 -1.1710 -2.2710
   27SAPC   C13 3533   5.135   6.674   6.214 -0.1003  0.5707  0.0523
   27SAPC  H13A 3534   5.031   6.695   6.235 -0.4238 -0.9778  0.1363
   27SAPC  H13B 3535   5.182   6.755   6.161  2.2457 -1.0870 -0.5501
   27SAPC  H13C 3536   5.136   6.595   6.140 -0.2151 -0.2149  0.8723
   27SAPC   C14 3537   5.239   6.734   6.416 -0.1968 -0.0146  0.1249
   27SAPC  H14A 3538   5.292   6.804   6.353  1.4433 -1.3333 -0.0539
   27SAPC  H14B 3539   5.149   6.779   6.454 -1.3418 -0.0533 -2.3783
   27SAPC  H14C 3540   5.302   6.707   6.499 -0.1635  0.5418  0.2851
   27SAPC   C15 3541   5.345   6.554   6.280 -0.3870 -0.0778  0.5082
   27SAPC  H15A 3542   5.414   6.522   6.356 -0.9279  0.9133  1.4487
   27SAPC  H15B 3543   5.320   6.467   6.221 -1.8794  0.9643 -0.4935
   27SAPC  H15C 3544   5.396   6.610   6.203  0.4903 -1.4862  0.0155
   27SAPC   C11 3545   5.178   6.469   6.540 -0.2711  0.7833 -0.4549
   27SAPC  H11A 3546   5.279   6.423   6.541 -1.4924 -2.1414 -1.3805
   27SAPC  H11B 3547   5.111   6.388   6.575 -0.5737  0.5242 -1.5888
   27SAPC     P 3548   5.032   6.619   6.702  0.3423  0.0587 -0.2218
   27SAPC   O13 3549   4.977   6.726   6.624  0.0807 -0.2987 -0.4452
   27SAPC   O14 3550   4.955   6.489   6.713 -0.2490 -0.3949  0.5671
   27SAPC   O12 3551   5.177   6.580   6.635  0.3839 -0.2574 -0.4146
   27SAPC   O11 3552   5.080   6.674   6.845  0.2874 -0.7215  0.3657
   27SAPC    C1 3553   5.219   6.651   6.878 -0.3804  0.0621 -0.3912
   27SAPC    HA 3554   5.246   6.547   6.851 -2.3856 -0.2825 -1.2502
   27SAPC    HB 3555   5.289   6.723   6.829  0.4607  1.2091  2.3032
   27SAPC    C2 3556   5.256   6.655   7.029 -0.6563 -0.5451  0.1166
   27SAPC    HS 3557   5.367   6.646   7.038 -0.6617 -2.5097 -1.2603
   27SAPC   O21 3558   5.185   6.549   7.101  0.1761 -0.4258 -0.4584
   27SAPC   C21 3559   5.242   6.431   7.079 -0.4299  0.3466 -0.2973
   27SAPC   O22 3560   5.353   6.413   7.034  0.6347  0.4106 -0.4686
   27SAPC   C22 3561   5.147   6.324   7.134  0.3507  0.3416 -0.5601
   27SAPC   H2R 3562   5.071   6.384   7.187 -0.5450 -0.5753 -0.7657
   27SAPC   H2S 3563   5.106   6.262   7.051  0.5812  0.4875 -0.7853
   27SAPC    C3 3564   5.220   6.797   7.084  0.1851  0.0621 -0.1928
   27SAPC    HX 3565   5.116   6.810   7.047  0.5281  1.5689 -0.6733
   27SAPC    HY 3566   5.275   6.875   7.028  0.5899 -0.4223 -0.4735
   27SAPC   O31 3567   5.245   6.818   7.230 -0.0074 -0.0097 -0.7142
   27SAPC   C31 3568   5.145   6.772   7.312  0.3621  0.1565  0.3259
   27SAPC   O32 3569   5.038   6.732   7.268  0.4020 -0.5931  0.4976
   27SAPC   C32 3570   5.188   6.793   7.454 -0.1670 -0.1475  0.0414
   27SAPC   H2X 3571   5.272   6.865   7.449 -0.0032 -0.3555 -0.2534
   27SAPC   H2Y 3572   5.230   6.695   7.488 -0.7007 -0.4267 -0.0921
   27SAPC   C23 3573   5.217   6.223   7.235 -0.3477 -0.1989 -0.1411
   27SAPC   H3R 3574   5.310   6.190   7.185  0.1512 -0.5632  0.9893
   27SAPC   H3S 3575   5.155   6.131   7.248  1.1761 -1.4044 -1.0325
   27SAPC   C24 3576   5.261   6.271   7.374  0.5579 -0.2204 -0.8279
   27SAPC   H4R 3577   5.330   6.357   7.366  1.2654 -0.7691 -0.7280
   27SAPC   H4S 3578   5.312   6.180   7.414 -0.3122 -0.3554  0.0042
   27SAPC   C25 3579   5.146   6.303   7.465  0.9129  0.1370  0.5228
   27SAPC   H5R 3580   5.069   6.360   7.411 -0.2144 -2.3462 -0.5894
   27SAPC   C26 3581   5.135   6.284   7.593 -0.0160  0.1520 -0.5046
   27SAPC   H6R 3582   5.033   6.286   7.634 -0.4382  0.4962 -1.5431
   27SAPC   C27 3583   5.246   6.235   7.681 -0.7034 -0.8876 -0.0337
   27SAPC   H7R 3584   5.340   6.216   7.625 -0.9728 -0.5355 -0.6184
   27SAPC   H7S 3585   5.204   6.145   7.732  0.0978 -0.6566  1.0509
   27SAPC   C28 3586   5.276   6.329   7.806  0.5156 -0.2158  0.2373
   27SAPC   H8R 3587   5.261   6.436   7.784 -0.0534  0.1327  2.1220
   27SAPC   C29 3588   5.296   6.288   7.933  0.4269  0.4157  0.7017
   27SAPC   H9R 3589   5.313   6.370   8.005 -0.0922  0.7860  0.4174
   27SAPC  C210 3590   5.302   6.155   7.998  0.1915  0.0193 -0.2854
   27SAPC  H10R 3591   5.397   6.127   8.049  0.2016  0.0060 -0.3115
   27SAPC  H10S 3592   5.291   6.070   7.928 -1.4666  1.7819 -2.3196
   27SAPC  C211 3593   5.182   6.146   8.096 -0.3137  0.6092  0.5049
   27SAPC  H11R 3594   5.086   6.188   8.061 -0.0253  1.6545  0.9541
   27SAPC  C212 3595   5.190   6.077   8.214 -0.2114  0.3687  0.3196
   27SAPC  H12R 3596   5.105   6.072   8.283 -1.7942  0.7556 -1.5323
   27SAPC  C213 3597   5.313   6.009   8.267 -0.2209  0.0769  0.1211
   27SAPC  H13R 3598   5.388   6.075   8.316 -0.3239  0.0815  0.2727
   27SAPC  H13S 3599   5.370   5.966   8.182  1.5339  0.1783  1.1911
   27SAPC  C214 3600   5.282   5.903   8.367  0.3338 -1.0239  0.7221
   27SAPC  H14R 3601   5.242   5.815   8.315 -0.3209  1.1140 -2.6487
   27SAPC  C215 3602   5.283   5.920   8.502  0.3453  0.7320  0.3136
   27SAPC  H15R 3603   5.226   5.849   8.563 -0.2768  1.6183  0.7891
   27SAPC  C216 3604   5.339   6.038   8.571 -0.2702 -0.0617 -0.2642
   27SAPC  H16R 3605   5.372   6.116   8.500 -2.0898  0.1416 -0.9490
   27SAPC  H16S 3606   5.427   6.012   8.634 -1.6802 -0.0842  1.8187
   27SAPC  C217 3607   5.242   6.111   8.664 -0.1586  0.3951 -0.4249
   27SAPC  H17R 3608   5.298   6.195   8.711  0.3599 -0.7060  1.0214
   27SAPC  H17S 3609   5.204   6.034   8.735  0.0622  0.5794 -0.1035
   27SAPC  C218 3610   5.126   6.187   8.604 -0.1146  0.3592  0.4193
   27SAPC  H18R 3611   5.055   6.124   8.545 -0.6254 -1.4678  2.8472
   27SAPC  H18S 3612   5.172   6.264   8.538  3.3475 -1.3990  0.5426
   27SAPC  C219 3613   5.041   6.267   8.704 -0.2192 -0.1066  0.0225
   27SAPC  H19R 3614   4.976   6.339   8.651  0.8776  0.9692  0.0889
   27SAPC  H19S 3615   5.105   6.328   8.772 -0.2939 -0.7233  0.6515
   27SAPC  C220 3616   4.934   6.176   8.773  0.7070  0.2464 -0.2820
   27SAPC  H20R 3617   4.871   6.141   8.688  0.3882 -0.0748  0.0864
   27SAPC  H20S 3618   4.870   6.241   8.836 -1.5458 -0.6461 -1.5186
   27SAPC  H20T 3619   4.976   6.090   8.829  0.8343 -1.0266 -2.2385
   27SAPC   C33 3620   5.073   6.836   7.541  0.0437  0.7791  0.9825
   27SAPC   H3X 3621   4.978   6.783   7.518  2.1246 -3.6621  1.4865
   27SAPC   H3Y 3622   5.049   6.944   7.546 -2.3969  0.4382 -1.3325
   27SAPC   C34 3623   5.089   6.784   7.687  0.1126  0.5662  0.5360
   27SAPC   H4X 3624   5.087   6.673   7.688 -1.2990  0.5713  0.0462
   27SAPC   H4Y 3625   4.998   6.819   7.740  0.5665  3.3787 -0.3721
   27SAPC   C35 3626   5.212   6.829   7.762  0.5157  0.0173 -0.1563
   27SAPC   H5X 3627   5.213   6.940   7.754  3.0639 -0.0420 -1.6682
   27SAPC   H5Y 3628   5.304   6.805   7.705  0.3725  1.2402 -0.9590
   27SAPC   C36 3629   5.228   6.789   7.909 -0.0857 -0.5727  0.1005
   27SAPC   H6X 3630   5.235   6.678   7.904  0.3536 -0.5961  1.0901
   27SAPC   H6Y 3631   5.139   6.824   7.965  1.5715  0.7033  2.0744
   27SAPC   C37 3632   5.351   6.839   7.987  0.2648 -0.1231 -0.4220
   27SAPC   H7X 3633   5.332   6.946   8.009 -3.9050 -0.9418  0.7499
   27SAPC   H7Y 3634   5.433   6.830   7.912 -0.9720 -0.0448 -1.8385
   27SAPC   C38 3635   5.386   6.762   8.121  0.2584 -0.9089 -0.5110
   27SAPC   H8X 3636   5.321   6.794   8.206  2.7596  1.1237  0.7879
   27SAPC   H8Y 3637   5.491   6.788   8.145 -0.2749 -0.0794  1.0776
   27SAPC   C39 3638   5.386   6.606   8.118 -1.1214  0.0926  0.3791
   27SAPC   H9X 3639   5.439   6.575   8.025  1.0720  1.9544  0.9227
   27SAPC   H9Y 3640   5.279   6.577   8.109 -1.1868 -0.5156  2.6072
   27SAPC  C310 3641   5.456   6.552   8.241 -0.2196  0.5758 -0.4406
   27SAPC  H10X 3642   5.407   6.588   8.334  0.7456 -0.9393  0.6919
   27SAPC  H10Y 3643   5.562   6.584   8.234  0.5811 -2.0937 -1.5616
   27SAPC  C311 3644   5.456   6.397   8.250 -0.1621 -0.0824  0.1036
   27SAPC  H11X 3645   5.501   6.373   8.151  1.6590  1.8514  0.3925
   27SAPC  H11Y 3646   5.358   6.349   8.268  0.2353 -0.7799  0.4287
   27SAPC  C312 3647   5.562   6.342   8.340  0.1597 -0.1510 -0.2363
   27SAPC  H12X 3648   5.662   6.376   8.303 -0.5316  1.6279 -0.5860
   27SAPC  H12Y 3649   5.571   6.232   8.331 -1.3779 -0.4960  1.8509
   27SAPC  C313 3650   5.539   6.369   8.490  0.7530 -0.5681  0.2615
   27SAPC  H13X 3651   5.458   6.297   8.514 -1.5980  1.1523 -1.9160
   27SAPC  H13Y 3652   5.511   6.474   8.510  0.1146 -0.2610 -1.9929
   27SAPC  C314 3653   5.656   6.340   8.586 -0.1856 -0.1785  0.2125
   27SAPC  H14X 3654   5.737   6.412   8.557 -0.3483  0.6491  1.7276
   27SAPC  H14Y 3655   5.696   6.239   8.564 -1.3753 -0.9159  1.3326
   27SAPC  C315 3656   5.622   6.354   8.736  0.8945  0.1939 -1.0189
   27SAPC  H15X 3657   5.708   6.314   8.793  0.3190  0.7642  0.2986
   27SAPC  H15Y 3658   5.527   6.304   8.767  0.7842  0.4734 -0.9117
   27SAPC  C316 3659   5.612   6.502   8.771  0.7832 -0.0253  0.2305
   27SAPC  H16X 3660   5.517   6.551   8.740  0.0822 -0.6366  1.3581
   27SAPC  H16Y 3661   5.688   6.550   8.705  0.6548 -1.5632 -1.1080
   27SAPC  C317 3662   5.633   6.538   8.918 -0.2440  0.2306  0.6095
   27SAPC  H17X 3663   5.735   6.501   8.943  0.5378  1.3678 -0.7841
   27SAPC  H17Y 3664   5.560   6.486   8.984  0.1167  0.2641  1.0437
   27SAPC  C318 3665   5.644   6.690   8.958  0.4037 -0.4127  0.0634
   27SAPC  H18X 3666   5.701   6.707   9.052  0.0762 -0.0953  0.2046
   27SAPC  H18Y 3667   5.546   6.740   8.975  0.2444 -0.4755 -0.6293
   27SAPC  H18Z 3668   5.700   6.750   8.883 -1.0537  0.1628 -0.5929
   28SAPC     N 3669   3.354   2.539   6.028  0.6501 -0.1908  0.6640
   28SAPC   C12 3670   3.396   2.606   6.158 -0.6836 -0.0836 -0.3109
   28SAPC  H12A 3671   3.307   2.657   6.190 -1.3551  0.7323 -3.2550
   28SAPC  H12B 3672   3.468   2.683   6.135  0.1648 -0.9346 -0.5997
   28SAPC   C13 3673   3.476   2.550   5.941  0.7607 -0.2072  0.4071
   28SAPC  H13A 3674   3.489   2.653   5.909  2.5385 -0.9145 -1.3392
   28SAPC  H13B 3675   3.560   2.499   5.983  1.7621 -2.8896 -4.1703
   28SAPC  H13C 3676   3.461   2.497   5.848 -0.0707 -2.9146  1.9732
   28SAPC   C14 3677   3.326   2.392   6.055  0.1746  0.1357  0.1182
   28SAPC  H14A 3678   3.413   2.335   6.084 -1.3913 -1.8501  1.1897
   28SAPC  H14B 3679   3.263   2.374   6.141  0.0691  0.9873  0.2297
   28SAPC  H14C 3680   3.281   2.341   5.971  0.2481  0.5078 -0.1503
   28SAPC   C15 3681   3.238   2.611   5.961 -0.2305 -1.0925  0.2349
   28SAPC  H15A 3682   3.268   2.709   5.926  1.0612 -1.0659  1.3525
   28SAPC  H15B 3683   3.192   2.557   5.879  0.7031  1.1477 -1.8809
   28SAPC  H15C 3684   3.154   2.619   6.029 -1.9145  0.1018 -1.8249
   28SAPC   C11 3685   3.443   2.513   6.277  0.2211  0.2661 -0.2076
   28SAPC  H11A 3686   3.501   2.563   6.357  0.0105 -0.9791  0.7449
   28SAPC  H11B 3687   3.529   2.451   6.243 -0.6483 -0.8587 -0.4059
   28SAPC     P 3688   3.242   2.499   6.428 -0.2245 -0.1257  0.0713
   28SAPC   O13 3689   3.197   2.621   6.370  0.4247  0.1565  0.3131
   28SAPC   O14 3690   3.132   2.404   6.464 -0.5909  0.2728  0.1218
   28SAPC   O12 3691   3.351   2.428   6.339  0.0771  0.7538 -0.3846
   28SAPC   O11 3692   3.331   2.538   6.553 -0.7399 -0.1729 -0.5707
   28SAPC    C1 3693   3.392   2.452   6.644 -0.1243 -0.4956 -0.4259
   28SAPC    HA 3694   3.364   2.348   6.616  1.3223 -1.8724  2.7365
   28SAPC    HB 3695   3.502   2.467   6.637 -0.3224  0.2067 -3.4363
   28SAPC    C2 3696   3.347   2.465   6.791  0.4117  0.4022 -0.6132
   28SAPC    HS 3697   3.399   2.385   6.848 -0.7467  1.0527  1.4624
   28SAPC   O21 3698   3.207   2.460   6.804 -0.0235  0.0429 -0.2008
   28SAPC   C21 3699   3.153   2.347   6.825  0.3790 -0.8902  0.1854
   28SAPC   O22 3700   3.216   2.239   6.817  0.3472  0.6566  0.3616
   28SAPC   C22 3701   2.999   2.361   6.867 -0.8187 -0.2867 -0.7450
   28SAPC   H2R 3702   2.942   2.378   6.773 -2.3900 -0.7826  0.0765
   28SAPC   H2S 3703   2.972   2.260   6.906 -0.1918 -0.0240  0.3976
   28SAPC    C3 3704   3.406   2.600   6.852  0.4869 -0.2968  0.0790
   28SAPC    HX 3705   3.355   2.686   6.804 -1.1190 -1.8521 -1.1066
   28SAPC    HY 3706   3.514   2.603   6.823  0.6315  0.5281  0.6850
   28SAPC   O31 3707   3.373   2.608   6.989 -0.2048 -0.0043 -0.3917
   28SAPC   C31 3708   3.471   2.583   7.070  0.4950  0.1244 -0.0440
   28SAPC   O32 3709   3.581   2.555   7.046 -0.1366  0.9857 -0.2036
   28SAPC   C32 3710   3.410   2.578   7.210 -0.0063  0.0765 -0.1173
   28SAPC   H2X 3711   3.351   2.485   7.220 -0.0869 -0.1540 -2.3198
   28SAPC   H2Y 3712   3.343   2.667   7.216 -1.9530 -1.3633  0.4013
   28SAPC   C23 3713   2.977   2.475   6.970 -0.3249  0.6870 -0.2757
   28SAPC   H3R 3714   2.871   2.476   7.003 -1.0443 -3.9135 -1.7082
   28SAPC   H3S 3715   3.003   2.569   6.917  1.8652  0.8583  0.9719
   28SAPC   C24 3716   3.067   2.466   7.098 -0.1160  0.1427 -0.2470
   28SAPC   H4R 3717   3.172   2.446   7.070  0.3627  1.4533  0.5550
   28SAPC   H4S 3718   3.063   2.565   7.149 -1.4441 -0.5385  1.0553
   28SAPC   C25 3719   3.015   2.352   7.179  0.0244 -0.2562 -0.4847
   28SAPC   H5R 3720   2.959   2.278   7.120 -1.3209 -0.8508  1.4260
   28SAPC   C26 3721   3.012   2.346   7.308 -0.8462 -0.3900  0.1871
   28SAPC   H6R 3722   2.979   2.257   7.364  1.7048 -0.7539  1.2665
   28SAPC   C27 3723   3.076   2.447   7.397 -0.2328 -0.3386  0.6450
   28SAPC   H7R 3724   3.166   2.491   7.348  0.8700 -0.2013  2.6801
   28SAPC   H7S 3725   3.130   2.394   7.478  1.7475 -2.7602 -2.0279
   28SAPC   C28 3726   2.983   2.557   7.446  0.2552 -0.2317  0.0112
   28SAPC   H8R 3727   2.896   2.579   7.383 -0.3821 -0.1784  0.8973
   28SAPC   C29 3728   2.994   2.625   7.564 -0.5198 -0.1003  0.6468
   28SAPC   H9R 3729   2.918   2.701   7.586  0.2760  1.0483 -0.4404
   28SAPC  C210 3730   3.104   2.612   7.671  0.0016 -0.4653  0.2688
   28SAPC  H10R 3731   3.125   2.704   7.728  0.0593 -1.7243  2.3661
   28SAPC  H10S 3732   3.193   2.595   7.606  0.0354  3.9595 -1.2007
   28SAPC  C211 3733   3.087   2.493   7.763  0.4702  0.7485  0.8253
   28SAPC  H11R 3734   3.039   2.402   7.724  0.6389  0.3262  1.5909
   28SAPC  C212 3735   3.108   2.490   7.896  0.4676  0.0225  0.1305
   28SAPC  H12R 3736   3.081   2.394   7.944  0.8183 -0.7320 -1.1363
   28SAPC  C213 3737   3.154   2.602   7.983  0.3524 -1.1068 -0.4528
   28SAPC  H13R 3738   3.090   2.691   7.963  0.8380 -0.1443  1.8608
   28SAPC  H13S 3739   3.256   2.636   7.956 -0.3995 -0.2424 -2.4250
   28SAPC  C214 3740   3.156   2.557   8.130 -0.2077 -0.0403  0.2706
   28SAPC  H14R 3741   3.103   2.463   8.153  1.2204 -0.9595 -0.1260
   28SAPC  C215 3742   3.214   2.623   8.234 -0.5589 -0.1896  0.7424
   28SAPC  H15R 3743   3.217   2.580   8.335  0.3873  0.6126  1.0698
   28SAPC  C216 3744   3.295   2.748   8.221 -0.8065  0.1723 -0.6986
   28SAPC  H16R 3745   3.267   2.819   8.140 -0.1477  2.1852  0.7598
   28SAPC  H16S 3746   3.400   2.725   8.193 -0.1136  1.8396  0.3434
   28SAPC  C217 3747   3.299   2.822   8.356  0.6721 -0.6810 -0.4744
   28SAPC  H17R 3748   3.374   2.902   8.338  1.6303 -1.5143 -0.2867
   28SAPC  H17S 3749   3.355   2.761   8.430 -1.3082 -0.8086  0.9883
   28SAPC  C218 3750   3.164   2.876   8.399  0.1725 -0.1371  0.4159
   28SAPC  H18R 3751   3.097   2.801   8.446  1.4134 -0.5013  1.6631
   28SAPC  H18S 3752   3.120   2.905   8.301  0.4163  1.3390  0.7287
   28SAPC  C219 3753   3.180   2.998   8.502 -0.1814  0.9604 -0.1624
   28SAPC  H19R 3754   3.230   3.081   8.449  0.2856  0.0220 -1.2420
   28SAPC  H19S 3755   3.241   2.963   8.588 -1.8155  0.3007  0.7716
   28SAPC  C220 3756   3.040   3.038   8.560 -0.4729  0.5098  0.3128
   28SAPC  H20R 3757   3.051   3.137   8.608  0.5345 -0.6007  2.5502
   28SAPC  H20S 3758   3.004   2.968   8.639 -1.3534  1.7723  1.0640
   28SAPC  H20T 3759   2.967   3.035   8.477 -2.6270  1.5767  2.0511
   28SAPC   C33 3760   3.525   2.596   7.313  0.4641 -0.0100  0.2437
   28SAPC   H3X 3761   3.589   2.681   7.284 -1.7442  1.1048 -1.6268
   28SAPC   H3Y 3762   3.583   2.501   7.320 -1.6451 -1.2660  2.8132
   28SAPC   C34 3763   3.463   2.631   7.449  0.1899  0.8891  0.8872
   28SAPC   H4X 3764   3.398   2.543   7.468  0.6813  0.1072 -0.7910
   28SAPC   H4Y 3765   3.397   2.720   7.443 -1.2230 -0.1835 -2.4070
   28SAPC   C35 3766   3.567   2.655   7.558 -0.2716 -0.5990 -0.5622
   28SAPC   H5X 3767   3.634   2.741   7.540  2.2202 -1.8785  1.8050
   28SAPC   H5Y 3768   3.647   2.578   7.551 -1.6512 -2.0607 -0.8693
   28SAPC   C36 3769   3.509   2.654   7.700  0.2466 -0.1221 -0.0340
   28SAPC   H6X 3770   3.481   2.548   7.718 -1.5316  0.5035  1.2324
   28SAPC   H6Y 3771   3.418   2.715   7.723  0.7927 -0.2239  2.6929
   28SAPC   C37 3772   3.622   2.675   7.805  0.2935  0.5868  0.0503
   28SAPC   H7X 3773   3.666   2.776   7.793  2.8225 -0.1864  1.9890
   28SAPC   H7Y 3774   3.702   2.605   7.774 -2.8290 -3.5989  0.5688
   28SAPC   C38 3775   3.583   2.648   7.953  0.2099  0.2892  0.3288
   28SAPC   H8X 3776   3.540   2.548   7.975  2.1475 -0.2473  1.9677
   28SAPC   H8Y 3777   3.495   2.711   7.980  0.5418  0.8532  0.1098
   28SAPC   C39 3778   3.696   2.669   8.050  0.1675  0.7300 -0.2290
   28SAPC   H9X 3779   3.660   2.679   8.155  1.8065  0.7639  0.3610
   28SAPC   H9Y 3780   3.746   2.767   8.033 -2.4231  2.2415  0.2836
   28SAPC  C310 3781   3.802   2.553   8.044  0.2532  0.3497 -0.7054
   28SAPC  H10X 3782   3.904   2.589   8.069 -0.1013  1.3502 -0.6523
   28SAPC  H10Y 3783   3.803   2.520   7.938 -3.9521  0.8564 -1.0814
   28SAPC  C311 3784   3.746   2.423   8.118 -0.0900 -1.2776  0.2580
   28SAPC  H11X 3785   3.666   2.381   8.053 -1.0511  1.6030 -0.5772
   28SAPC  H11Y 3786   3.707   2.456   8.216 -1.6206  2.8188 -1.5327
   28SAPC  C312 3787   3.850   2.311   8.144  0.3895 -0.0390  0.6336
   28SAPC  H12X 3788   3.925   2.346   8.217 -0.4624 -0.0811  1.5485
   28SAPC  H12Y 3789   3.908   2.287   8.052 -2.2527  0.7903 -1.3849
   28SAPC  C313 3790   3.793   2.188   8.199  0.0729  0.1378 -0.4243
   28SAPC  H13X 3791   3.771   2.119   8.114 -1.1344  0.2476 -0.2243
   28SAPC  H13Y 3792   3.698   2.222   8.246  1.5535 -0.1567  3.0970
   28SAPC  C314 3793   3.877   2.119   8.306 -0.1456  0.9325 -0.9889
   28SAPC  H14X 3794   3.977   2.119   8.258 -0.5379  0.7153 -1.8113
   28SAPC  H14Y 3795   3.850   2.012   8.319  2.5528  0.3260  0.2531
   28SAPC  C315 3796   3.879   2.186   8.445  0.1908  0.5253  0.0838
   28SAPC  H15X 3797   3.771   2.196   8.467 -0.5402  0.7321 -3.1214
   28SAPC  H15Y 3798   3.910   2.293   8.443  0.5177  0.4848  1.4280
   28SAPC  C316 3799   3.972   2.112   8.544 -0.7507 -0.1419 -0.2690
   28SAPC  H16X 3800   3.937   2.015   8.585  0.9787  0.2737  2.5215
   28SAPC  H16Y 3801   3.967   2.182   8.631 -1.1561  1.7623 -1.7457
   28SAPC  C317 3802   4.119   2.089   8.500 -0.2032 -0.4350  1.0539
   28SAPC  H17X 3803   4.116   2.022   8.411  3.1063  0.7983 -0.1619
   28SAPC  H17Y 3804   4.182   2.036   8.574  2.2027 -2.4114 -2.1087
   28SAPC  C318 3805   4.192   2.218   8.454  0.3513  0.0654  0.7456
   28SAPC  H18X 3806   4.124   2.267   8.381 -2.0868 -2.2103  1.3336
   28SAPC  H18Y 3807   4.293   2.209   8.408  0.1033  0.0060  0.1988
   28SAPC  H18Z 3808   4.206   2.285   8.541  2.2634  0.9973 -0.2217
   29SAPC     N 3809   0.310   1.436   5.830 -0.3593 -0.5783  0.4228
   29SAPC   C12 3810   0.250   1.337   5.928 -0.4201 -0.4515  0.3078
   29SAPC  H12A 3811   0.252   1.232   5.904 -2.0588 -0.7094  1.1843
   29SAPC  H12B 3812   0.143   1.351   5.932 -0.4621 -0.9031  0.8118
   29SAPC   C13 3813   0.292   1.395   5.688  0.4020  0.1940  0.1243
   29SAPC  H13A 3814   0.320   1.293   5.666 -2.5796 -1.2122  2.2483
   29SAPC  H13B 3815   0.190   1.410   5.657  0.3943  0.9401  0.4886
   29SAPC  H13C 3816   0.353   1.449   5.617  1.8754  0.2701  1.3835
   29SAPC   C14 3817   0.270   1.576   5.846  0.0889 -0.2213 -0.5536
   29SAPC  H14A 3818   0.291   1.606   5.948  0.0168 -2.4116  0.1622
   29SAPC  H14B 3819   0.327   1.637   5.778  0.4271  0.1632  0.0632
   29SAPC  H14C 3820   0.165   1.601   5.831  0.0184  0.7631  1.1703
   29SAPC   C15 3821   0.460   1.433   5.848 -0.0216  0.1458 -0.0926
   29SAPC  H15A 3822   0.493   1.503   5.772  0.4438 -1.9175 -1.8981
   29SAPC  H15B 3823   0.499   1.469   5.942  0.8835  0.2210 -0.4803
   29SAPC  H15C 3824   0.503   1.334   5.840 -0.9165 -0.4669  1.9783
   29SAPC   C11 3825   0.285   1.350   6.082 -0.4321  0.6077  0.7431
   29SAPC  H11A 3826   0.393   1.374   6.100 -0.3672 -0.2523  1.5620
   29SAPC  H11B 3827   0.276   1.251   6.132 -1.8762  1.3180  1.9629
   29SAPC     P 3828   0.052   1.408   6.157 -0.1770 -0.0555  0.1042
   29SAPC   O13 3829  -0.019   1.425   6.032 -0.3709  0.2652 -0.1302
   29SAPC   O14 3830   0.034   1.283   6.222 -0.2756 -0.1978  0.3931
   29SAPC   O12 3831   0.211   1.448   6.154  0.3433  0.2485 -0.4946
   29SAPC   O11 3832  -0.000   1.530   6.250 -0.3448  0.1021  0.2902
   29SAPC    C1 3833   0.073   1.608   6.347  0.2872  0.2927  0.1360
   29SAPC    HA 3834   0.173   1.641   6.310 -0.4898  0.9514 -1.4713
   29SAPC    HB 3835   0.012   1.699   6.364 -1.6521 -1.2384  1.8687
   29SAPC    C2 3836   0.085   1.533   6.481 -0.3476 -0.1552  0.3017
   29SAPC    HS 3837   0.118   1.610   6.554  3.2661 -0.8571 -0.4379
   29SAPC   O21 3838   0.190   1.431   6.490  0.4044  0.0165  0.3725
   29SAPC   C21 3839   0.315   1.465   6.477 -0.2868  0.0778  0.4473
   29SAPC   O22 3840   0.354   1.584   6.467  0.4313  0.3304  0.7522
   29SAPC   C22 3841   0.401   1.338   6.481  0.7443  0.0097 -0.8624
   29SAPC   H2R 3842   0.356   1.244   6.444 -1.3559  1.0273 -1.0782
   29SAPC   H2S 3843   0.482   1.359   6.408  1.5657  1.2605  0.3477
   29SAPC    C3 3844  -0.048   1.478   6.538 -0.4414  0.2495  0.3954
   29SAPC    HX 3845  -0.069   1.384   6.483  0.5194  0.3024 -0.0636
   29SAPC    HY 3846  -0.130   1.549   6.514  0.4532  1.4018  0.6422
   29SAPC   O31 3847  -0.033   1.464   6.681  1.2308  0.3134  0.3612
   29SAPC   C31 3848  -0.023   1.342   6.729  0.2747  0.1995  0.2429
   29SAPC   O32 3849  -0.026   1.237   6.664  0.1723 -0.5112 -0.5151
   29SAPC   C32 3850  -0.001   1.349   6.883 -0.5209 -0.2953 -0.1286
   29SAPC   H2X 3851  -0.091   1.393   6.931 -1.9963 -2.8021 -0.3776
   29SAPC   H2Y 3852   0.094   1.405   6.898 -0.2532 -0.7147 -0.2425
   29SAPC   C23 3853   0.455   1.310   6.627  0.0301  0.3551  0.1430
   29SAPC   H3R 3854   0.524   1.387   6.669 -0.0349  0.6472 -0.2786
   29SAPC   H3S 3855   0.519   1.220   6.615  0.8400  1.1887 -2.5575
   29SAPC   C24 3856   0.343   1.285   6.731  0.2424  0.6121  0.0697
   29SAPC   H4R 3857   0.284   1.197   6.696  1.4975 -0.6880  1.1239
   29SAPC   H4S 3858   0.269   1.367   6.743 -0.7795 -0.4309  1.2824
   29SAPC   C25 3859   0.415   1.244   6.863  0.6237 -0.1449  0.8146
   29SAPC   H5R 3860   0.461   1.145   6.854  1.1830  0.2041 -0.3280
   29SAPC   C26 3861   0.430   1.310   6.977  0.1792  0.1183  0.1333
   29SAPC   H6R 3862   0.469   1.258   7.066 -0.0621  1.2534  0.9410
   29SAPC   C27 3863   0.373   1.444   7.007  0.2681 -0.4212  0.3806
   29SAPC   H7R 3864   0.319   1.429   7.103  0.2989 -0.7172  0.3511
   29SAPC   H7S 3865   0.292   1.484   6.942  0.3366  0.7779  1.0035
   29SAPC   C28 3866   0.464   1.559   7.016 -0.1506 -0.3825 -0.3572
   29SAPC   H8R 3867   0.515   1.581   6.921 -1.6655 -1.6200 -1.5055
   29SAPC   C29 3868   0.488   1.632   7.130 -0.7636  0.5981 -0.0116
   29SAPC   H9R 3869   0.557   1.718   7.123 -1.5895  1.3944  1.2282
   29SAPC  C210 3870   0.424   1.622   7.267 -0.1043 -0.4761  0.7910
   29SAPC  H10R 3871   0.332   1.560   7.265 -0.9422  0.6240  2.5847
   29SAPC  H10S 3872   0.384   1.724   7.288 -1.1987 -0.3535 -1.6512
   29SAPC  C211 3873   0.514   1.580   7.374 -0.4767 -0.0687 -0.9413
   29SAPC  H11R 3874   0.623   1.570   7.361  0.0838 -0.0917  2.5998
   29SAPC  C212 3875   0.476   1.558   7.498  0.3915 -0.7417 -0.1458
   29SAPC  H12R 3876   0.547   1.541   7.580 -1.6914 -0.0055  1.9097
   29SAPC  C213 3877   0.333   1.567   7.535  0.0493 -0.1311 -0.6981
   29SAPC  H13R 3878   0.311   1.468   7.581 -2.3963  1.4370  1.8498
   29SAPC  H13S 3879   0.260   1.580   7.453  0.5643 -1.1355 -1.3312
   29SAPC  C214 3880   0.301   1.671   7.639  0.8747 -0.3318 -0.1006
   29SAPC  H14R 3881   0.260   1.762   7.595 -1.2313 -0.8212  0.7441
   29SAPC  C215 3882   0.329   1.667   7.774 -0.6289 -0.3843  0.5091
   29SAPC  H15R 3883   0.294   1.744   7.844 -0.0903 -0.1159  0.4858
   29SAPC  C216 3884   0.386   1.542   7.840  0.6022 -0.0739 -0.0644
   29SAPC  H16R 3885   0.462   1.573   7.914  0.3896  0.4151 -0.0472
   29SAPC  H16S 3886   0.438   1.473   7.770  0.5169 -1.0302  0.7774
   29SAPC  C217 3887   0.274   1.463   7.914  0.0735  0.3366 -0.1185
   29SAPC  H17R 3888   0.196   1.420   7.848  0.3784 -0.5712  0.0915
   29SAPC  H17S 3889   0.220   1.535   7.980 -0.0082  0.5745 -0.4449
   29SAPC  C218 3890   0.334   1.346   7.992 -0.1908 -0.7604  0.1162
   29SAPC  H18R 3891   0.421   1.394   8.042 -0.7320  0.1798  0.1620
   29SAPC  H18S 3892   0.387   1.286   7.914  1.8455  1.0051  0.0666
   29SAPC  C219 3893   0.257   1.265   8.093  0.2545  0.5223 -0.2362
   29SAPC  H19R 3894   0.294   1.160   8.096 -0.9944  0.0264 -1.0717
   29SAPC  H19S 3895   0.149   1.250   8.069 -0.2265  1.0945  1.4544
   29SAPC  C220 3896   0.279   1.332   8.229 -0.8900 -0.4688  0.0157
   29SAPC  H20R 3897   0.388   1.351   8.238 -0.4585 -1.9703 -1.6223
   29SAPC  H20S 3898   0.237   1.281   8.319  1.1043 -0.3742  1.0601
   29SAPC  H20T 3899   0.251   1.439   8.218 -0.9262 -0.6119 -1.4278
   29SAPC   C33 3900   0.019   1.205   6.937  0.5575 -0.8774 -0.1617
   29SAPC   H3X 3901   0.123   1.170   6.920  0.7267 -0.7697  0.6079
   29SAPC   H3Y 3902  -0.045   1.129   6.886  1.8263  0.6603 -4.4199
   29SAPC   C34 3903  -0.002   1.189   7.090  0.3143 -0.0603 -0.4489
   29SAPC   H4X 3904  -0.020   1.083   7.118 -2.0801  0.0654 -1.2941
   29SAPC   H4Y 3905  -0.085   1.255   7.124  0.4660 -0.5326  0.9154
   29SAPC   C35 3906   0.127   1.236   7.175  0.4226 -0.0988 -0.8289
   29SAPC   H5X 3907   0.128   1.347   7.174  1.8322 -0.0599  1.0678
   29SAPC   H5Y 3908   0.213   1.196   7.118  1.2114 -2.4736  1.7982
   29SAPC   C36 3909   0.137   1.164   7.319 -0.6481 -0.2439 -0.6879
   29SAPC   H6X 3910   0.137   1.053   7.308 -1.2056 -0.1776 -1.4269
   29SAPC   H6Y 3911   0.053   1.203   7.379 -2.0722  1.1529 -3.4271
   29SAPC   C37 3912   0.265   1.217   7.385  0.8261 -0.3946 -0.2798
   29SAPC   H7X 3913   0.259   1.328   7.377  0.2372 -0.5720 -3.1314
   29SAPC   H7Y 3914   0.358   1.193   7.329  0.8438  1.3126 -1.0288
   29SAPC   C38 3915   0.283   1.191   7.537 -0.1626  0.1981  0.4695
   29SAPC   H8X 3916   0.208   1.252   7.591 -2.7851 -2.4729  0.1209
   29SAPC   H8Y 3917   0.385   1.220   7.569  0.9409 -2.2291 -0.6112
   29SAPC   C39 3918   0.256   1.049   7.587  0.1629  0.3916  0.0861
   29SAPC   H9X 3919   0.323   0.982   7.529  0.7298  2.1067 -1.3192
   29SAPC   H9Y 3920   0.148   1.029   7.568 -0.5030  2.7184  1.1584
   29SAPC  C310 3921   0.285   1.034   7.737  0.1885  0.0472 -0.2973
   29SAPC  H10X 3922   0.214   1.100   7.791  1.2665  1.4341 -0.5107
   29SAPC  H10Y 3923   0.391   1.062   7.751 -0.0015 -0.0662  1.6993
   29SAPC  C311 3924   0.258   0.892   7.791 -0.3158 -0.1383  0.4012
   29SAPC  H11X 3925   0.321   0.821   7.733  0.0734 -0.6093  1.3717
   29SAPC  H11Y 3926   0.154   0.859   7.770  0.4817 -1.8314 -1.0547
   29SAPC  C312 3927   0.283   0.885   7.944  0.4015 -0.3652 -0.5814
   29SAPC  H12X 3928   0.228   0.964   8.000 -0.4080 -0.7794 -0.7715
   29SAPC  H12Y 3929   0.389   0.917   7.943 -0.3533  2.4059 -0.8147
   29SAPC  C313 3930   0.260   0.742   8.002  0.0292 -0.2318  0.2193
   29SAPC  H13X 3931   0.315   0.663   7.947 -0.9444 -2.4004  2.1645
   29SAPC  H13Y 3932   0.152   0.726   7.981 -0.5311  0.7088  2.1372
   29SAPC  C314 3933   0.302   0.728   8.154  0.0440 -0.3053  0.6023
   29SAPC  H14X 3934   0.327   0.624   8.187  1.7776 -0.0419  0.1882
   29SAPC  H14Y 3935   0.210   0.752   8.212 -1.7267 -1.0505 -1.7619
   29SAPC  C315 3936   0.424   0.807   8.191 -0.3294 -0.3210  0.0225
   29SAPC  H15X 3937   0.421   0.914   8.160 -0.9814  0.1850  1.7620
   29SAPC  H15Y 3938   0.508   0.759   8.136  1.7298  1.0421  1.8452
   29SAPC  C316 3939   0.465   0.806   8.337  1.0111 -0.1446  0.1241
   29SAPC  H16X 3940   0.444   0.707   8.383 -0.9933  0.2332  0.1122
   29SAPC  H16Y 3941   0.402   0.872   8.401  1.6999  0.2457  0.4065
   29SAPC  C317 3942   0.609   0.865   8.356 -0.1316 -0.7898 -0.3814
   29SAPC  H17X 3943   0.614   0.968   8.314 -0.2227 -0.1902  1.0267
   29SAPC  H17Y 3944   0.686   0.802   8.306 -0.0715 -0.7953 -0.2798
   29SAPC  C318 3945   0.650   0.877   8.500 -0.2578 -0.1898  0.1343
   29SAPC  H18X 3946   0.577   0.926   8.568 -0.3152  3.9437 -2.5363
   29SAPC  H18Y 3947   0.749   0.926   8.506  0.7206 -1.8806 -1.3494
   29SAPC  H18Z 3948   0.676   0.777   8.541  3.6024  0.2891 -0.7847
   30SAPC     N 3949   0.660   0.772   5.832 -0.1724  0.1585  0.0644
   30SAPC   C12 3950   0.640   0.698   5.964  0.0616 -0.3868 -0.0107
   30SAPC  H12A 3951   0.730   0.641   5.983  0.1130 -1.4180 -2.8758
   30SAPC  H12B 3952   0.563   0.627   5.941 -0.7538  0.4155  0.1943
   30SAPC   C13 3953   0.532   0.843   5.790  0.4494  0.3688  0.0517
   30SAPC  H13A 3954   0.539   0.903   5.700  0.6179  0.4739  0.1341
   30SAPC  H13B 3955   0.444   0.781   5.789  1.0663 -0.6931  2.8295
   30SAPC  H13C 3956   0.500   0.909   5.869 -0.3669 -0.8083  0.7240
   30SAPC   C14 3957   0.766   0.871   5.856 -0.2676  0.1047  0.7194
   30SAPC  H14A 3958   0.725   0.936   5.932 -0.7021 -2.0087  2.4091
   30SAPC  H14B 3959   0.862   0.831   5.886 -0.9174 -0.9689  1.4491
   30SAPC  H14C 3960   0.773   0.924   5.762 -1.1485 -1.7405 -0.4358
   30SAPC   C15 3961   0.694   0.676   5.729 -0.3071  0.0743 -0.0380
   30SAPC  H15A 3962   0.618   0.602   5.707  0.4820 -1.1516  1.2056
   30SAPC  H15B 3963   0.720   0.719   5.633 -1.4722  0.3191 -0.2518
   30SAPC  H15C 3964   0.780   0.617   5.761 -0.7916 -0.8492 -0.3860
   30SAPC   C11 3965   0.606   0.776   6.093  0.6625  0.2994  0.4238
   30SAPC  H11A 3966   0.697   0.838   6.109  0.3763  0.3855  1.9524
   30SAPC  H11B 3967   0.611   0.708   6.181 -0.0714  0.2861  0.4643
   30SAPC     P 3968   0.342   0.780   6.121 -0.1636  0.1358 -0.3287
   30SAPC   O13 3969   0.228   0.874   6.110 -0.1904  0.2869  0.1812
   30SAPC   O14 3970   0.331   0.653   6.053 -0.5067  0.3012  0.2067
   30SAPC   O12 3971   0.483   0.852   6.086 -0.0297 -1.0027 -0.6611
   30SAPC   O11 3972   0.367   0.752   6.268  0.0931  0.2471  0.4599
   30SAPC    C1 3973   0.372   0.853   6.373 -0.0962  0.2205  0.4296
   30SAPC    HA 3974   0.400   0.957   6.344 -1.3434  0.7947  1.2210
   30SAPC    HB 3975   0.268   0.867   6.408 -1.2591 -1.1663 -2.2004
   30SAPC    C2 3976   0.470   0.808   6.484 -0.1559 -0.0926  0.8618
   30SAPC    HS 3977   0.470   0.698   6.495 -1.9728 -0.3079 -0.7062
   30SAPC   O21 3978   0.425   0.870   6.603  0.1350  0.0845  0.9566
   30SAPC   C21 3979   0.327   0.810   6.671 -0.4199 -0.2315 -0.1657
   30SAPC   O22 3980   0.270   0.708   6.640  0.9521  0.2746  0.5667
   30SAPC   C22 3981   0.333   0.879   6.810  0.7805  0.1575 -0.2490
   30SAPC   H2R 3982   0.420   0.825   6.854  1.6094  0.8634 -1.0018
   30SAPC   H2S 3983   0.349   0.986   6.787 -0.8307  0.5156  0.2199
   30SAPC    C3 3984   0.611   0.867   6.461 -0.1320  0.2150 -0.5162
   30SAPC    HX 3985   0.602   0.977   6.476  0.8003  0.1947  0.3190
   30SAPC    HY 3986   0.638   0.849   6.354 -0.6590  1.5025 -0.8872
   30SAPC   O31 3987   0.694   0.803   6.562 -0.7076 -0.2355 -0.0511
   30SAPC   C31 3988   0.808   0.863   6.572  0.5242  0.0199 -0.8650
   30SAPC   O32 3989   0.840   0.962   6.511  0.5525 -0.0586 -0.2577
   30SAPC   C32 3990   0.891   0.799   6.682  0.0897  0.3540 -0.4763
   30SAPC   H2X 3991   0.884   0.688   6.686  2.1146  0.1642 -0.8642
   30SAPC   H2Y 3992   0.857   0.842   6.779  0.4245  1.2129 -0.7335
   30SAPC   C23 3993   0.206   0.855   6.897  0.7494  1.0019  0.0605
   30SAPC   H3R 3994   0.176   0.752   6.868  2.6335  0.5477 -0.3933
   30SAPC   H3S 3995   0.114   0.912   6.870 -0.6545 -0.7056  0.9770
   30SAPC   C24 3996   0.215   0.860   7.049 -0.0924  0.5909  0.0447
   30SAPC   H4R 3997   0.223   0.964   7.086  2.4652  0.8785 -1.1090
   30SAPC   H4S 3998   0.307   0.808   7.084  0.8736  0.2339 -2.7728
   30SAPC   C25 3999   0.091   0.797   7.121  0.1527  0.5902  0.3860
   30SAPC   H5R 4000   0.005   0.788   7.053 -0.2423 -1.4486  1.0817
   30SAPC   C26 4001   0.087   0.748   7.251 -0.0037  0.0158 -0.7075
   30SAPC   H6R 4002  -0.007   0.696   7.275 -0.7006 -0.3099 -3.7379
   30SAPC   C27 4003   0.193   0.734   7.363 -0.6680  0.3642  0.3628
   30SAPC   H7R 4004   0.240   0.829   7.397  1.3412 -1.5291  3.3547
   30SAPC   H7S 4005   0.283   0.676   7.335 -0.6363  0.4504  0.2831
   30SAPC   C28 4006   0.133   0.679   7.492 -0.4555  0.5775  0.4129
   30SAPC   H8R 4007   0.040   0.725   7.526 -1.8076 -1.7433  0.0857
   30SAPC   C29 4008   0.169   0.572   7.567  0.8518 -0.0243 -0.3240
   30SAPC   H9R 4009   0.110   0.545   7.656  0.8499  0.5645 -0.1483
   30SAPC  C210 4010   0.291   0.483   7.554 -0.3192 -0.1578 -0.3406
   30SAPC  H10R 4011   0.304   0.445   7.450 -0.9388 -1.5265  0.0757
   30SAPC  H10S 4012   0.270   0.391   7.611  0.8861 -0.0921  0.2321
   30SAPC  C211 4013   0.411   0.545   7.623  0.7082 -0.1262 -0.4195
   30SAPC  H11R 4014   0.464   0.623   7.565  0.7959  0.2275  0.1362
   30SAPC  C212 4015   0.465   0.524   7.748 -1.1290  0.3912 -0.1616
   30SAPC  H12R 4016   0.533   0.602   7.785  0.3260 -0.0350 -1.7808
   30SAPC  C213 4017   0.435   0.422   7.859  0.2998  0.0526 -0.4295
   30SAPC  H13R 4018   0.448   0.477   7.954 -0.2312 -0.0521 -0.2917
   30SAPC  H13S 4019   0.517   0.347   7.863 -0.9869 -1.5780 -2.1802
   30SAPC  C214 4020   0.293   0.370   7.868  1.0772 -0.6997 -0.3566
   30SAPC  H14R 4021   0.213   0.446   7.856  2.1645  0.9958  2.1970
   30SAPC  C215 4022   0.250   0.250   7.901  0.2986 -0.2138 -0.7769
   30SAPC  H15R 4023   0.142   0.235   7.914 -0.0031  1.7645 -0.6126
   30SAPC  C216 4024   0.337   0.132   7.928 -0.0159  0.5299  0.2897
   30SAPC  H16R 4025   0.443   0.158   7.906 -0.2396  0.5558 -0.7935
   30SAPC  H16S 4026   0.308   0.058   7.851 -3.6917  2.3407 -0.2778
   30SAPC  C217 4027   0.337   0.079   8.066  0.1365  0.0486 -0.2160
   30SAPC  H17R 4028   0.381  -0.022   8.075 -0.4068 -0.1166  0.6939
   30SAPC  H17S 4029   0.230   0.058   8.086 -0.4173  0.7520 -2.1890
   30SAPC  C218 4030   0.407   0.163   8.174  0.0184 -0.1365 -0.4993
   30SAPC  H18R 4031   0.357   0.261   8.187 -1.8821 -0.9812 -1.1252
   30SAPC  H18S 4032   0.512   0.181   8.141 -0.5326 -1.5753 -3.3084
   30SAPC  C219 4033   0.410   0.094   8.315  0.2190 -0.5079  0.4978
   30SAPC  H19R 4034   0.472   0.003   8.303  0.7492 -0.2349  1.1104
   30SAPC  H19S 4035   0.309   0.068   8.354  0.0305 -1.6549 -0.6841
   30SAPC  C220 4036   0.473   0.186   8.429 -0.8784 -0.3869  0.1568
   30SAPC  H20R 4037   0.403   0.265   8.464 -0.0816  1.3862 -1.9849
   30SAPC  H20S 4038   0.565   0.244   8.407  0.4205 -1.5853  2.1922
   30SAPC  H20T 4039   0.505   0.126   8.516  0.5904  2.4302  1.7122
   30SAPC   C33 4040   1.043   0.840   6.671 -0.3204 -0.0540 -0.4386
   30SAPC   H3X 4041   1.046   0.949   6.692 -1.4458 -0.0045 -0.4559
   30SAPC   H3Y 4042   1.072   0.828   6.565 -2.4525  1.1784 -1.2292
   30SAPC   C34 4043   1.134   0.774   6.779  0.5467 -0.2436  0.0176
   30SAPC   H4X 4044   1.239   0.791   6.748  1.0059 -2.3859  0.1907
   30SAPC   H4Y 4045   1.126   0.663   6.772  0.9917 -0.3781  1.3200
   30SAPC   C35 4046   1.104   0.824   6.923 -0.0337  0.0800  0.1170
   30SAPC   H5X 4047   1.018   0.774   6.972 -0.6487 -1.2408 -2.1758
   30SAPC   H5Y 4048   1.083   0.933   6.924  1.3119  0.3809 -0.8381
   30SAPC   C36 4049   1.220   0.788   7.008 -0.2304  0.5289  0.2216
   30SAPC   H6X 4050   1.320   0.818   6.972 -0.4946  1.4307  0.2039
   30SAPC   H6Y 4051   1.228   0.678   6.995 -1.3167  0.5970 -1.2972
   30SAPC   C37 4052   1.185   0.807   7.160 -0.0495  0.6223  0.2423
   30SAPC   H7X 4053   1.205   0.709   7.210 -2.2069 -0.6768 -1.2804
   30SAPC   H7Y 4054   1.079   0.824   7.187 -0.1736  2.0664 -1.0377
   30SAPC   C38 4055   1.265   0.921   7.219  0.8466  0.2287  0.3961
   30SAPC   H8X 4056   1.231   1.007   7.158 -1.5081 -0.4014  0.7228
   30SAPC   H8Y 4057   1.376   0.922   7.213  1.1543 -1.6323  3.4051
   30SAPC   C39 4058   1.233   0.947   7.358  0.2156 -0.0366 -0.5884
   30SAPC   H9X 4059   1.124   0.960   7.379  0.1035 -0.5824 -0.8327
   30SAPC   H9Y 4060   1.266   1.048   7.390 -2.3622  0.7867 -0.2702
   30SAPC  C310 4061   1.281   0.837   7.455 -0.3067 -0.6538  0.1661
   30SAPC  H10X 4062   1.390   0.820   7.440  0.2493 -0.9678  3.6311
   30SAPC  H10Y 4063   1.234   0.740   7.429  1.1158 -1.1325 -0.7364
   30SAPC  C311 4064   1.248   0.865   7.606 -0.9055  0.0358 -0.2262
   30SAPC  H11X 4065   1.140   0.879   7.624 -0.7318  0.8416  0.2101
   30SAPC  H11Y 4066   1.302   0.958   7.632  1.7471 -1.1561 -1.0761
   30SAPC  C312 4067   1.304   0.756   7.705 -0.2127  0.5874 -1.3417
   30SAPC  H12X 4068   1.408   0.747   7.666 -0.4867  0.4772 -2.0549
   30SAPC  H12Y 4069   1.256   0.657   7.696 -0.6175  0.5664  0.6147
   30SAPC  C313 4070   1.300   0.797   7.860  0.5434 -0.1313  0.3462
   30SAPC  H13X 4071   1.191   0.800   7.880  0.5898  0.4369  0.5252
   30SAPC  H13Y 4072   1.351   0.893   7.883 -1.1251  0.8608  0.0299
   30SAPC  C314 4073   1.337   0.680   7.962 -0.5654 -0.5522  0.5676
   30SAPC  H14X 4074   1.444   0.650   7.966 -0.0396  1.2785  1.3222
   30SAPC  H14Y 4075   1.283   0.589   7.927 -3.0585  1.0317  0.0222
   30SAPC  C315 4076   1.320   0.734   8.100  0.9619 -0.3694 -0.7690
   30SAPC  H15X 4077   1.405   0.806   8.110 -0.1560  0.7678  1.2475
   30SAPC  H15Y 4078   1.347   0.655   8.174  0.3423 -0.8874 -1.0943
   30SAPC  C316 4079   1.186   0.796   8.132 -0.3157 -0.3740  0.4642
   30SAPC  H16X 4080   1.110   0.732   8.081 -1.3032  0.2164  1.1477
   30SAPC  H16Y 4081   1.182   0.899   8.092  0.4678  0.2256  1.8449
   30SAPC  C317 4082   1.157   0.795   8.286  0.4721  0.0230 -0.9794
   30SAPC  H17X 4083   1.251   0.836   8.328  0.7016  0.9361 -2.3260
   30SAPC  H17Y 4084   1.153   0.688   8.316  2.5897  0.5386  1.4754
   30SAPC  C318 4085   1.031   0.872   8.333 -0.2700 -0.3135  0.4209
   30SAPC  H18X 4086   1.051   0.981   8.323 -1.7718 -0.0299  0.3504
   30SAPC  H18Y 4087   1.009   0.841   8.437 -2.4761 -1.8382 -0.4377
   30SAPC  H18Z 4088   0.941   0.854   8.271  1.9078  0.8468 -3.4201
   31SAPC     N 4089   1.744   1.202   6.230  0.5716  0.1765  0.3796
   31SAPC   C12 4090   1.597   1.188   6.262  0.0046  0.1914 -1.0597
   31SAPC  H12A 4091   1.598   1.185   6.370 -1.4274  1.1452 -0.9882
   31SAPC  H12B 4092   1.559   1.097   6.218  3.7512 -2.2072  0.1607
   31SAPC   C13 4093   1.814   1.315   6.295 -0.3806  0.0411  1.2859
   31SAPC  H13A 4094   1.799   1.318   6.402  1.2309 -0.4621  1.5573
   31SAPC  H13B 4095   1.916   1.316   6.259 -0.4241 -1.5509  1.0218
   31SAPC  H13C 4096   1.767   1.405   6.258 -1.7022 -0.8636  0.6685
   31SAPC   C14 4097   1.811   1.077   6.270 -0.2869  0.8398  0.2103
   31SAPC  H14A 4098   1.754   0.996   6.227  0.1647 -0.1953  1.5031
   31SAPC  H14B 4099   1.917   1.077   6.251 -0.4445 -2.3515 -1.2429
   31SAPC  H14C 4100   1.820   1.074   6.378  2.5636  0.4338  0.0230
   31SAPC   C15 4101   1.770   1.220   6.084 -0.1149 -0.0492 -0.4065
   31SAPC  H15A 4102   1.755   1.129   6.029  2.7354 -0.4431 -0.7093
   31SAPC  H15B 4103   1.709   1.301   6.046  0.3362 -0.2015 -1.4733
   31SAPC  H15C 4104   1.873   1.250   6.076 -0.6726  2.6210  1.2156
   31SAPC   C11 4105   1.515   1.310   6.225 -0.4685  0.6911  1.0220
   31SAPC  H11A 4106   1.529   1.331   6.117 -1.9208  0.8462  0.8353
   31SAPC  H11B 4107   1.541   1.399   6.285  2.5587  1.5515 -1.3325
   31SAPC     P 4108   1.257   1.371   6.203  0.6066 -0.3505  0.3805
   31SAPC   O13 4109   1.275   1.415   6.060 -0.1008  0.3219 -0.5027
   31SAPC   O14 4110   1.126   1.317   6.241 -1.1182  0.0898  0.2341
   31SAPC   O12 4111   1.374   1.268   6.241 -0.4113 -0.1019 -0.1800
   31SAPC   O11 4112   1.298   1.500   6.289 -0.1695  0.4752  0.8432
   31SAPC    C1 4113   1.256   1.517   6.421  0.2878 -0.4632  0.2600
   31SAPC    HA 4114   1.243   1.624   6.447  0.6454 -0.1364 -0.8674
   31SAPC    HB 4115   1.160   1.468   6.447  0.2893 -0.0801  1.0292
   31SAPC    C2 4116   1.354   1.450   6.520 -0.1098 -0.0334 -0.1996
   31SAPC    HS 4117   1.456   1.465   6.478  0.2006  0.0609  0.5727
   31SAPC   O21 4118   1.318   1.311   6.539  0.0959 -0.1828 -0.3309
   31SAPC   C21 4119   1.423   1.237   6.575 -0.1696 -0.0108  0.5967
   31SAPC   O22 4120   1.541   1.267   6.571  0.3461 -0.1789 -0.0452
   31SAPC   C22 4121   1.378   1.101   6.627  0.6184  0.2439  0.1401
   31SAPC   H2R 4122   1.268   1.089   6.639  0.8160 -0.8182  0.9475
   31SAPC   H2S 4123   1.394   1.025   6.547 -1.6813  0.3054 -0.4457
   31SAPC    C3 4124   1.354   1.525   6.657  0.2789 -0.6014  0.5516
   31SAPC    HX 4125   1.256   1.502   6.703  0.2978 -1.4135  0.1984
   31SAPC    HY 4126   1.357   1.635   6.636 -0.8177 -0.4656  1.0662
   31SAPC   O31 4127   1.458   1.480   6.740  0.1501 -0.3929 -0.6040
   31SAPC   C31 4128   1.572   1.550   6.742 -0.2664 -0.6723  0.5569
   31SAPC   O32 4129   1.599   1.642   6.667  0.4104 -0.3540  0.1068
   31SAPC   C32 4130   1.656   1.485   6.860  0.9253  0.0146 -0.2991
   31SAPC   H2X 4131   1.688   1.385   6.823  1.7366 -0.4630  1.6041
   31SAPC   H2Y 4132   1.599   1.487   6.955  1.0191  0.1639 -0.2447
   31SAPC   C23 4133   1.463   1.046   6.741  0.1700 -0.0628 -0.0676
   31SAPC   H3R 4134   1.572   1.051   6.718  0.6603  0.4300  2.1316
   31SAPC   H3S 4135   1.438   0.938   6.738 -2.6888  0.5317 -1.7116
   31SAPC   C24 4136   1.436   1.089   6.884  0.4809 -0.3054  0.5335
   31SAPC   H4R 4137   1.350   1.034   6.927 -0.5222  0.5872 -0.2791
   31SAPC   H4S 4138   1.412   1.197   6.892 -1.1692 -0.6121  0.0679
   31SAPC   C25 4139   1.554   1.049   6.967  0.4311 -0.7011 -0.0913
   31SAPC   H5R 4140   1.618   0.968   6.929  0.4158 -1.3265  1.1523
   31SAPC   C26 4141   1.583   1.101   7.091 -0.6356 -0.1698 -0.1245
   31SAPC   H6R 4142   1.670   1.056   7.142 -0.2867 -0.5830 -1.0507
   31SAPC   C27 4143   1.518   1.213   7.159  0.9470 -0.3274 -0.5000
   31SAPC   H7R 4144   1.442   1.168   7.227  3.4607 -1.3494  1.8306
   31SAPC   H7S 4145   1.453   1.268   7.088  1.0377  0.7682  0.2377
   31SAPC   C28 4146   1.596   1.315   7.230 -0.0435 -0.6257  0.6028
   31SAPC   H8R 4147   1.658   1.375   7.162 -1.0634  0.6833  0.7937
   31SAPC   C29 4148   1.585   1.351   7.357  0.3061 -1.0175 -0.3294
   31SAPC   H9R 4149   1.661   1.420   7.396  1.1390 -1.8966 -0.3647
   31SAPC  C210 4150   1.491   1.297   7.460 -0.1388  0.0268  0.4677
   31SAPC  H10R 4151   1.534   1.270   7.559  1.4350  0.1987 -0.1497
   31SAPC  H10S 4152   1.473   1.191   7.432  1.5792 -0.8310  2.3385
   31SAPC  C211 4153   1.355   1.370   7.462 -0.2092  0.0155  0.3295
   31SAPC  H11R 4154   1.311   1.393   7.364 -2.0178 -0.4516  0.9903
   31SAPC  C212 4155   1.274   1.394   7.566  0.0458  0.9770  0.0826
   31SAPC  H12R 4156   1.174   1.439   7.553 -0.2329 -0.3342 -2.9549
   31SAPC  C213 4157   1.297   1.351   7.707  0.2926 -0.1978  0.3079
   31SAPC  H13R 4158   1.278   1.440   7.770  2.1208  0.4419  0.0305
   31SAPC  H13S 4159   1.401   1.324   7.738 -0.6587 -0.7269  3.3942
   31SAPC  C214 4160   1.220   1.221   7.750 -0.1124 -0.3474  0.4720
   31SAPC  H14R 4161   1.160   1.180   7.668  2.5491  0.3221 -1.9361
   31SAPC  C215 4162   1.241   1.156   7.865  0.2350 -0.3675  0.8785
   31SAPC  H15R 4163   1.166   1.077   7.882  2.1561 -2.5774 -0.2689
   31SAPC  C216 4164   1.335   1.204   7.975  0.1793 -0.2524  0.8392
   31SAPC  H16R 4165   1.396   1.289   7.937 -1.8723  1.6964  1.7230
   31SAPC  H16S 4166   1.397   1.114   7.997 -0.1607 -1.3657 -2.1440
   31SAPC  C217 4167   1.258   1.256   8.101 -0.8239 -0.1163  0.9994
   31SAPC  H17R 4168   1.187   1.173   8.124 -1.8928 -0.1712 -2.0794
   31SAPC  H17S 4169   1.200   1.350   8.089  0.7156  0.9552  1.6801
   31SAPC  C218 4170   1.350   1.264   8.222 -0.2961  0.2063 -0.0720
   31SAPC  H18R 4171   1.406   1.360   8.211  0.5636 -0.4328 -1.5729
   31SAPC  H18S 4172   1.436   1.195   8.207  0.7424  1.4303  0.0749
   31SAPC  C219 4173   1.279   1.240   8.354 -0.6658 -0.3950  0.3413
   31SAPC  H19R 4174   1.214   1.149   8.357 -0.9092 -0.2833 -0.9241
   31SAPC  H19S 4175   1.217   1.325   8.389 -0.3054  0.2293 -0.5161
   31SAPC  C220 4176   1.386   1.213   8.456 -0.3554  0.5030  0.3058
   31SAPC  H20R 4177   1.445   1.120   8.440 -1.1365 -0.0130  0.3969
   31SAPC  H20S 4178   1.343   1.203   8.558  0.3367 -0.8645  0.4887
   31SAPC  H20T 4179   1.461   1.295   8.458 -0.7143  0.8421  0.0254
   31SAPC   C33 4180   1.787   1.573   6.866  0.0834 -0.7595 -0.1142
   31SAPC   H3X 4181   1.765   1.680   6.887  0.6902 -0.5661 -0.4359
   31SAPC   H3Y 4182   1.838   1.562   6.768 -2.6043  0.2441 -1.7402
   31SAPC   C34 4183   1.884   1.512   6.973 -0.4738  0.5501 -0.5482
   31SAPC   H4X 4184   1.992   1.521   6.949  0.1332 -0.3862  1.5884
   31SAPC   H4Y 4185   1.865   1.403   6.977  0.7278  0.2425 -2.2097
   31SAPC   C35 4186   1.872   1.587   7.105 -0.2923 -0.0071  0.2586
   31SAPC   H5X 4187   1.763   1.593   7.128  0.2434  0.7967  2.9940
   31SAPC   H5Y 4188   1.915   1.689   7.093 -1.2872  0.2214 -1.7272
   31SAPC   C36 4189   1.933   1.506   7.220 -0.2422  0.7444  0.4039
   31SAPC   H6X 4190   2.043   1.500   7.209 -0.2575  0.4838  0.3834
   31SAPC   H6Y 4191   1.907   1.398   7.214  0.8216  0.5606 -2.4647
   31SAPC   C37 4192   1.901   1.561   7.358  0.4030 -0.0985  0.0382
   31SAPC   H7X 4193   1.791   1.577   7.361 -0.1406 -3.0344 -0.9978
   31SAPC   H7Y 4194   1.954   1.657   7.370  1.9397 -0.7366 -1.2541
   31SAPC   C38 4195   1.945   1.455   7.462  0.3802  0.3757  0.0262
   31SAPC   H8X 4196   2.056   1.449   7.465  0.3404 -3.1369  3.6039
   31SAPC   H8Y 4197   1.916   1.352   7.433 -0.2361  1.2825 -2.8464
   31SAPC   C39 4198   1.892   1.491   7.597  0.4006 -0.1009 -0.5476
   31SAPC   H9X 4199   1.783   1.515   7.593  0.5660  0.9547  0.4573
   31SAPC   H9Y 4200   1.946   1.580   7.637  1.0920 -0.7489 -0.0165
   31SAPC  C310 4201   1.901   1.366   7.694  0.2859  0.1611  0.5975
   31SAPC  H10X 4202   2.005   1.330   7.710  0.8362  0.7656 -1.3347
   31SAPC  H10Y 4203   1.870   1.280   7.631  2.0297  0.6479 -1.0162
   31SAPC  C311 4204   1.827   1.373   7.820  0.4381  0.0880 -0.7422
   31SAPC  H11X 4205   1.728   1.423   7.829 -0.0809 -0.5019 -2.7575
   31SAPC  H11Y 4206   1.894   1.441   7.878  2.9817 -1.5539 -1.5883
   31SAPC  C312 4207   1.830   1.249   7.907 -0.1864 -0.0108 -0.3466
   31SAPC  H12X 4208   1.939   1.232   7.912  0.0150  0.8533 -1.3716
   31SAPC  H12Y 4209   1.775   1.160   7.869 -0.3768 -0.8687  1.8305
   31SAPC  C313 4210   1.781   1.274   8.049  0.0860 -0.1497  0.0601
   31SAPC  H13X 4211   1.676   1.311   8.052  0.6067  1.3518  0.7775
   31SAPC  H13Y 4212   1.823   1.367   8.091 -1.6516  1.0125 -0.6643
   31SAPC  C314 4213   1.797   1.159   8.154  0.6204  0.0248 -0.3608
   31SAPC  H14X 4214   1.764   1.206   8.249 -2.0593  0.3738 -1.3725
   31SAPC  H14Y 4215   1.906   1.144   8.164  0.7464  1.9773  1.8191
   31SAPC  C315 4216   1.718   1.032   8.149  0.3961 -0.6291  0.2944
   31SAPC  H15X 4217   1.762   0.969   8.069  1.4494  0.5862 -0.1177
   31SAPC  H15Y 4218   1.611   1.055   8.136  0.9170  0.8856 -1.7603
   31SAPC  C316 4219   1.733   0.961   8.283  0.1789 -0.3486 -0.9670
   31SAPC  H16X 4220   1.696   1.033   8.359  0.2644 -0.1648 -1.0991
   31SAPC  H16Y 4221   1.839   0.938   8.306 -0.0450 -2.5031 -1.8312
   31SAPC  C317 4222   1.642   0.829   8.292 -0.0676 -0.0887 -0.5954
   31SAPC  H17X 4223   1.666   0.748   8.219 -1.3228 -0.3226 -0.7632
   31SAPC  H17Y 4224   1.537   0.859   8.274 -0.0679  1.5012  1.6747
   31SAPC  C318 4225   1.647   0.768   8.426  0.6030  0.6046  0.0630
   31SAPC  H18X 4226   1.752   0.742   8.452  0.8770  1.2716 -0.3465
   31SAPC  H18Y 4227   1.591   0.672   8.426  0.8951  0.2974  3.2394
   31SAPC  H18Z 4228   1.604   0.838   8.501  1.6181  1.8055 -0.4279
   32SAPC     N 4229   2.444   1.705   5.944 -0.6605 -0.1078  0.2187
   32SAPC   C12 4230   2.415   1.853   5.986 -0.5903 -0.7717 -0.4031
   32SAPC  H12A 4231   2.338   1.887   5.919  0.5569  0.2114 -1.2694
   32SAPC  H12B 4232   2.509   1.907   5.982 -0.3278 -1.0552  1.1901
   32SAPC   C13 4233   2.515   1.703   5.813 -0.3330  0.4363  0.2694
   32SAPC  H13A 4234   2.598   1.771   5.819 -1.8266  2.3099  0.9872
   32SAPC  H13B 4235   2.569   1.611   5.800  0.9958  1.0878  1.0598
   32SAPC  H13C 4236   2.447   1.722   5.731 -1.3493 -1.7969  0.5025
   32SAPC   C14 4237   2.539   1.645   6.042 -0.2790  0.5446 -0.3794
   32SAPC  H14A 4238   2.640   1.680   6.029 -0.0824  0.1988  0.1614
   32SAPC  H14B 4239   2.506   1.665   6.143 -0.3930  1.8826 -0.6672
   32SAPC  H14C 4240   2.542   1.537   6.036  1.1544  0.5601 -0.1425
   32SAPC   C15 4241   2.321   1.623   5.921  0.2814  0.6461 -0.5902
   32SAPC  H15A 4242   2.338   1.517   5.909  0.4963  0.5561  0.4592
   32SAPC  H15B 4243   2.261   1.629   6.010 -0.0296 -0.9832 -0.6666
   32SAPC  H15C 4244   2.258   1.669   5.846 -0.8042  0.6612  0.3146
   32SAPC   C11 4245   2.355   1.871   6.122  0.3430  0.0947 -0.8588
   32SAPC  H11A 4246   2.358   1.978   6.153  0.1775 -0.4729  1.3107
   32SAPC  H11B 4247   2.408   1.821   6.206  0.2956  4.8307  2.3345
   32SAPC     P 4248   2.085   1.887   6.099 -0.2030  0.5474 -0.3144
   32SAPC   O13 4249   2.117   1.990   6.004 -0.1956 -0.4065  0.2368
   32SAPC   O14 4250   1.983   1.787   6.065 -0.4512  0.3854  0.3956
   32SAPC   O12 4251   2.223   1.811   6.122 -0.1374 -0.2837  0.3714
   32SAPC   O11 4252   2.045   1.960   6.231 -0.3250  0.0512  0.3530
   32SAPC    C1 4253   2.098   1.923   6.361  0.0030  0.9841  0.2777
   32SAPC    HA 4254   2.010   1.891   6.421  0.6945 -0.8775  0.3747
   32SAPC    HB 4255   2.175   1.843   6.363 -0.6117  0.3430 -0.6797
   32SAPC    C2 4256   2.149   2.047   6.437 -0.1608  0.0815  0.9097
   32SAPC    HS 4257   2.254   2.070   6.408 -0.3933 -0.8084 -0.8185
   32SAPC   O21 4258   2.132   2.026   6.575  0.7601  0.4170 -0.0642
   32SAPC   C21 4259   2.223   1.943   6.635  0.6506 -0.4265 -0.1114
   32SAPC   O22 4260   2.316   1.891   6.580 -0.3780 -0.0306  0.2720
   32SAPC   C22 4261   2.180   1.923   6.780  0.2908  0.5336  0.0080
   32SAPC   H2R 4262   2.256   1.964   6.850 -0.4119  0.3557  0.8839
   32SAPC   H2S 4263   2.086   1.981   6.789  0.2421  0.6122 -0.9333
   32SAPC    C3 4264   2.070   2.174   6.397 -0.4408 -0.2482 -0.1320
   32SAPC    HX 4265   1.963   2.162   6.424 -1.0696  1.5054 -1.6020
   32SAPC    HY 4266   2.073   2.174   6.286 -0.5096 -1.2060 -0.1469
   32SAPC   O31 4267   2.131   2.296   6.447 -0.0752 -1.0475  0.1236
   32SAPC   C31 4268   2.056   2.400   6.458  0.0402 -0.6314  0.5466
   32SAPC   O32 4269   1.945   2.414   6.407  0.2597  0.2619  0.0332
   32SAPC   C32 4270   2.131   2.505   6.542  0.7761 -0.2411 -0.3267
   32SAPC   H2X 4271   2.093   2.604   6.508 -2.4830 -1.0211  0.6750
   32SAPC   H2Y 4272   2.241   2.494   6.531  1.0574  1.9776 -0.2792
   32SAPC   C23 4273   2.141   1.776   6.813  0.2639  0.0402  0.2234
   32SAPC   H3R 4274   2.077   1.749   6.727  1.8919  2.2574 -1.8095
   32SAPC   H3S 4275   2.073   1.768   6.901 -0.9513 -3.2070 -0.8689
   32SAPC   C24 4276   2.260   1.673   6.808 -0.4048  0.1924 -0.5510
   32SAPC   H4R 4277   2.262   1.634   6.704  0.7933 -0.1529 -0.4127
   32SAPC   H4S 4278   2.228   1.586   6.869 -2.2934  1.5963  0.5651
   32SAPC   C25 4279   2.398   1.723   6.848 -0.9482 -0.2543 -1.0970
   32SAPC   H5R 4280   2.439   1.801   6.783 -1.0827 -1.0008 -2.0947
   32SAPC   C26 4281   2.462   1.704   6.968  0.2476 -0.0761 -0.2129
   32SAPC   H6R 4282   2.567   1.733   6.978 -0.4508  2.1351  1.3051
   32SAPC   C27 4283   2.401   1.621   7.076  0.1415 -0.0447  0.7340
   32SAPC   H7R 4284   2.375   1.525   7.027  1.0289  1.1248 -2.2357
   32SAPC   H7S 4285   2.299   1.653   7.108 -1.0690 -2.0916 -0.8538
   32SAPC   C28 4286   2.490   1.597   7.197  0.4868 -0.5347  0.3648
   32SAPC   H8R 4287   2.584   1.655   7.194  0.8582 -1.0826 -3.8688
   32SAPC   C29 4288   2.454   1.522   7.302  0.4461  0.2254 -0.8684
   32SAPC   H9R 4289   2.525   1.520   7.386  1.1741 -2.3201 -1.4384
   32SAPC  C210 4290   2.319   1.456   7.325  0.2384 -0.9907 -0.4254
   32SAPC  H10R 4291   2.242   1.517   7.272  1.1549  1.0594  0.4920
   32SAPC  H10S 4292   2.304   1.468   7.434  1.4908  2.7547 -0.5240
   32SAPC  C211 4293   2.295   1.313   7.285  0.4850 -0.9194  0.0262
   32SAPC  H11R 4294   2.319   1.283   7.182  2.0981 -1.5187  0.5540
   32SAPC  C212 4295   2.247   1.217   7.355 -0.4170  0.6509 -0.3311
   32SAPC  H12R 4296   2.248   1.118   7.309  1.1160  1.1760 -1.5434
   32SAPC  C213 4297   2.217   1.232   7.501 -0.3794 -0.1070 -0.1550
   32SAPC  H13R 4298   2.108   1.253   7.501 -0.1395  2.0891 -4.0451
   32SAPC  H13S 4299   2.266   1.315   7.556  1.2633 -1.0280 -0.1817
   32SAPC  C214 4300   2.224   1.105   7.583 -0.1546  0.1498  0.2856
   32SAPC  H14R 4301   2.238   1.013   7.526 -0.2869 -0.8481  1.7961
   32SAPC  C215 4302   2.248   1.103   7.716  0.3660  0.3286 -0.4585
   32SAPC  H15R 4303   2.255   1.001   7.758  1.9208  0.5011 -0.2173
   32SAPC  C216 4304   2.258   1.221   7.800  0.8034 -0.3626  0.0372
   32SAPC  H16R 4305   2.159   1.252   7.837 -0.2629  0.3759 -3.1243
   32SAPC  H16S 4306   2.287   1.310   7.740 -0.0728 -0.7520 -1.0012
   32SAPC  C217 4307   2.365   1.205   7.909 -0.1521 -0.0217 -0.0837
   32SAPC  H17R 4308   2.418   1.303   7.904 -1.4364  0.6809 -0.3548
   32SAPC  H17S 4309   2.432   1.120   7.884  2.3448  1.1510  2.1299
   32SAPC  C218 4310   2.318   1.195   8.052  0.5344 -0.2228 -0.2465
   32SAPC  H18R 4311   2.270   1.293   8.070 -2.0469 -1.3064 -0.7590
   32SAPC  H18S 4312   2.399   1.169   8.123  1.0000  0.6051 -0.4724
   32SAPC  C219 4313   2.200   1.090   8.082 -0.1477  0.9656 -0.7493
   32SAPC  H19R 4314   2.231   0.989   8.048 -0.4417 -0.9056  3.9233
   32SAPC  H19S 4315   2.103   1.112   8.031 -0.4309  1.9611  0.1720
   32SAPC  C220 4316   2.184   1.075   8.236  0.6056  0.4695 -0.7094
   32SAPC  H20R 4317   2.263   1.013   8.283 -1.1651 -2.0550 -0.8719
   32SAPC  H20S 4318   2.092   1.015   8.253  0.0638  1.4308 -0.1028
   32SAPC  H20T 4319   2.164   1.177   8.277  0.2813  0.5656 -1.1085
   32SAPC   C33 4320   2.103   2.494   6.700 -0.5924 -0.1759  0.3382
   32SAPC   H3X 4321   1.992   2.490   6.713 -0.6233  0.8059  0.4919
   32SAPC   H3Y 4322   2.144   2.591   6.737 -0.9949 -0.3212  1.1957
   32SAPC   C34 4323   2.179   2.377   6.756 -0.3613 -0.2625 -1.2455
   32SAPC   H4X 4324   2.289   2.392   6.753 -0.1316 -1.2805  0.4721
   32SAPC   H4Y 4325   2.158   2.277   6.712  0.5880 -2.2674  2.4359
   32SAPC   C35 4326   2.148   2.370   6.905 -0.6326 -0.9577  0.9182
   32SAPC   H5X 4327   2.038   2.357   6.902 -0.9084  1.1150 -1.3466
   32SAPC   H5Y 4328   2.166   2.471   6.948  0.4801 -1.1043  0.8188
   32SAPC   C36 4329   2.228   2.257   6.972 -0.2290 -0.2202 -1.2946
   32SAPC   H6X 4330   2.333   2.259   6.934 -0.1619 -1.4302 -1.1930
   32SAPC   H6Y 4331   2.187   2.161   6.934 -1.1968 -1.0189  1.5631
   32SAPC   C37 4332   2.207   2.262   7.125 -0.5630  0.2418  0.2509
   32SAPC   H7X 4333   2.103   2.292   7.150 -0.6603  2.0418 -1.9249
   32SAPC   H7Y 4334   2.279   2.330   7.173  0.2994  0.3754 -1.1718
   32SAPC   C38 4335   2.210   2.124   7.194  0.0983  0.1981 -0.6273
   32SAPC   H8X 4336   2.295   2.065   7.152  1.5320  1.1330  0.8284
   32SAPC   H8Y 4337   2.117   2.066   7.176  0.4926 -0.7202  0.2213
   32SAPC   C39 4338   2.223   2.117   7.349  0.7536 -0.6548 -0.3152
   32SAPC   H9X 4339   2.135   2.164   7.398  2.5603  1.5479  0.9935
   32SAPC   H9Y 4340   2.314   2.173   7.379  0.8819 -1.5295  0.9625
   32SAPC  C310 4341   2.240   1.969   7.403  0.5563 -0.0765  1.1732
   32SAPC  H10X 4342   2.333   1.927   7.357  0.3635  1.4031 -0.6537
   32SAPC  H10Y 4343   2.162   1.908   7.352  1.5214  1.7357 -2.7812
   32SAPC  C311 4344   2.217   1.974   7.560 -0.3081 -0.9547  0.3198
   32SAPC  H11X 4345   2.127   2.038   7.577  1.5338  2.2469 -1.1012
   32SAPC  H11Y 4346   2.301   2.034   7.602  1.2936 -3.3280  0.7142
   32SAPC  C312 4347   2.210   1.835   7.625  0.1444  0.4960  0.2728
   32SAPC  H12X 4348   2.290   1.773   7.579 -3.2263 -3.1435 -1.2787
   32SAPC  H12Y 4349   2.106   1.799   7.606 -0.1364  0.7701  1.2552
   32SAPC  C313 4350   2.226   1.855   7.780 -0.5183 -0.0059 -0.7109
   32SAPC  H13X 4351   2.157   1.931   7.823 -0.4087 -0.1066 -0.3541
   32SAPC  H13Y 4352   2.332   1.876   7.809 -0.0853 -1.1423 -1.4152
   32SAPC  C314 4353   2.172   1.731   7.857 -0.0013  0.1331  0.9598
   32SAPC  H14X 4354   2.259   1.661   7.852  1.0200  1.4324 -0.5896
   32SAPC  H14Y 4355   2.081   1.690   7.809 -0.9640 -0.4726  3.1825
   32SAPC  C315 4356   2.131   1.770   7.998  0.0144  0.3768 -0.7860
   32SAPC  H15X 4357   2.051   1.846   7.988  1.1151  1.5486 -0.8634
   32SAPC  H15Y 4358   2.213   1.830   8.042 -0.6739 -0.1388  1.3247
   32SAPC  C316 4359   2.099   1.649   8.082 -0.1187  0.4752  0.0793
   32SAPC  H16X 4360   2.184   1.579   8.067 -1.5722 -0.8316 -2.8508
   32SAPC  H16Y 4361   2.006   1.599   8.047  2.1475 -2.8321 -1.8183
   32SAPC  C317 4362   2.066   1.691   8.222  0.6930 -0.2875 -0.2434
   32SAPC  H17X 4363   2.123   1.775   8.266  0.6121 -1.3169  1.9696
   32SAPC  H17Y 4364   2.094   1.601   8.282 -0.6015  0.6470  1.8526
   32SAPC  C318 4365   1.919   1.710   8.242  0.6534 -0.2396 -0.1538
   32SAPC  H18X 4366   1.861   1.615   8.247  3.0840 -1.8896 -1.3761
   32SAPC  H18Y 4367   1.877   1.775   8.161 -1.8814 -0.6590  0.7406
   32SAPC  H18Z 4368   1.890   1.759   8.337  2.1312  0.8755 -0.2444
   33POPC     N 4369   6.017   2.511  10.952  0.7560 -0.2777  1.0220
   33POPC   C12 4370   5.964   2.398  10.862 -0.4623 -0.6245 -0.0178
   33POPC  H12A 4371   6.027   2.314  10.887  1.1217  0.3920 -0.3797
   33POPC  H12B 4372   5.973   2.424  10.757 -1.2191  0.2891  0.1316
   33POPC   C13 4373   6.163   2.551  10.920  0.0389 -0.0784 -0.1633
   33POPC  H13A 4374   6.168   2.575  10.815  0.8192  1.6333  0.2409
   33POPC  H13B 4375   6.197   2.637  10.975 -1.7589 -0.1362  1.1309
   33POPC  H13C 4376   6.227   2.465  10.933 -1.3490 -0.7859  3.0392
   33POPC   C14 4377   5.949   2.641  10.933  0.3888 -0.5550  0.1864
   33POPC  H14A 4378   5.843   2.635  10.954 -0.2741  0.6201 -2.4466
   33POPC  H14B 4379   5.994   2.715  10.998 -0.0474  0.5300 -0.7115
   33POPC  H14C 4380   5.949   2.672  10.830  1.5939 -1.2337 -0.0366
   33POPC   C15 4381   5.996   2.483  11.100 -0.3841 -0.1839 -0.3620
   33POPC  H15A 4382   6.064   2.548  11.153  0.0906 -0.6011 -0.4524
   33POPC  H15B 4383   6.025   2.380  11.114  2.6896  0.3799 -1.6374
   33POPC  H15C 4384   5.897   2.501  11.137  0.4512 -0.5444  2.2767
   33POPC   C11 4385   5.813   2.362  10.878 -0.2838 -0.0815 -0.2925
   33POPC  H11A 4386   5.793   2.320  10.979 -0.5837  0.6877 -0.0228
   33POPC  H11B 4387   5.786   2.277  10.812 -0.3384  0.7702 -1.4067
   33POPC     P 4388   5.704   2.527  10.701 -0.0955  0.1804 -0.2154
   33POPC   O13 4389   5.644   2.656  10.702  0.2721 -0.1557  0.8105
   33POPC   O14 4390   5.639   2.421  10.618 -1.2006  0.3071  0.0491
   33POPC   O12 4391   5.725   2.472  10.853  0.0456  0.0048 -0.7295
   33POPC   O11 4392   5.854   2.547  10.653  0.1013 -0.0708  0.0706
   33POPC    C1 4393   5.898   2.655  10.575  0.2526  0.2242  0.1870
   33POPC    HA 4394   5.815   2.723  10.546 -0.5447  0.4737  2.8093
   33POPC    HB 4395   5.974   2.710  10.635  1.7400 -3.0123  1.5013
   33POPC    C2 4396   5.971   2.606  10.447 -0.0926  0.4105  0.2668
   33POPC    HS 4397   5.997   2.684  10.372 -2.3605  1.5550  0.5810
   33POPC   O21 4398   5.895   2.503  10.383 -0.5345  0.0908 -0.0829
   33POPC   C21 4399   5.800   2.549  10.301  0.5494  0.4495 -0.6930
   33POPC   O22 4400   5.772   2.667  10.278  0.4609  1.0025 -0.4722
   33POPC   C22 4401   5.739   2.430  10.227 -0.5535  0.3821  0.4879
   33POPC   H2R 4402   5.689   2.359  10.296 -1.3165  0.4863  0.0600
   33POPC   H2S 4403   5.828   2.385  10.180  0.9165  1.8142  1.7758
   33POPC    C3 4404   6.109   2.542  10.472 -0.3046  0.3496  0.4058
   33POPC    HX 4405   6.088   2.452  10.533 -1.0274  0.9481  1.0678
   33POPC    HY 4406   6.169   2.615  10.530  4.2425 -1.3297 -1.6607
   33POPC   O31 4407   6.172   2.513  10.348 -0.3119  0.2691 -0.1391
   33POPC   C31 4408   6.285   2.447  10.374  0.0966  0.0392  0.2322
   33POPC   O32 4409   6.340   2.431  10.482  0.2837 -0.0524  0.5086
   33POPC   C32 4410   6.343   2.397  10.241 -0.1124  0.2505 -0.0255
   33POPC   H2X 4411   6.350   2.482  10.169  0.8947  0.2504  0.0544
   33POPC   H2Y 4412   6.263   2.329  10.207  0.9941 -1.4762  0.6865
   33POPC   C23 4413   5.647   2.476  10.107 -0.2910  0.0337  0.3552
   33POPC   H3R 4414   5.668   2.581  10.078  0.3477  0.0603  0.9092
   33POPC   H3S 4415   5.546   2.478  10.155 -0.4248  0.5665  0.0672
   33POPC   C24 4416   5.643   2.379   9.985  0.5538  0.1771 -0.5309
   33POPC   H4R 4417   5.581   2.291  10.009 -0.9818  0.8093 -1.9154
   33POPC   H4S 4418   5.750   2.354   9.969  0.8924  1.0329  0.2867
   33POPC   C25 4419   5.579   2.452   9.862 -0.5061 -0.2316  0.3341
   33POPC   H5R 4420   5.642   2.539   9.836 -2.9453  1.6704  0.4969
   33POPC   H5S 4421   5.483   2.491   9.900  0.3385 -1.0977  3.7691
   33POPC   C26 4422   5.549   2.368   9.744  0.2974  0.5088 -0.8053
   33POPC   H6R 4423   5.469   2.410   9.681 -0.5318  0.5691  0.2575
   33POPC   H6S 4424   5.501   2.278   9.787 -2.6780  2.2580 -0.2242
   33POPC   C27 4425   5.667   2.330   9.654  0.2455  0.1975 -0.3656
   33POPC   H7R 4426   5.649   2.245   9.585 -2.5478 -0.5200  1.1139
   33POPC   H7S 4427   5.756   2.307   9.717 -0.4945  0.6558  0.8791
   33POPC   C28 4428   5.723   2.437   9.560  0.1904 -0.3158 -0.0092
   33POPC   H8R 4429   5.818   2.402   9.514  0.9588  2.0362 -0.3651
   33POPC   H8S 4430   5.752   2.522   9.625  2.4390  0.3838 -1.8135
   33POPC   C29 4431   5.620   2.485   9.462  0.0179  0.1600  0.6420
   33POPC   H91 4432   5.538   2.534   9.517  1.0048  1.4054  1.0558
   33POPC  C210 4433   5.632   2.489   9.326  0.0672  0.3693  0.1913
   33POPC  H101 4434   5.545   2.521   9.266 -1.5107  0.2653  2.3015
   33POPC  C211 4435   5.748   2.446   9.246 -0.1791  0.1618  0.0972
   33POPC  H11R 4436   5.717   2.368   9.174  0.9521  1.3286 -1.7352
   33POPC  H11S 4437   5.830   2.413   9.313 -0.0356  1.7070  0.7225
   33POPC  C212 4438   5.809   2.561   9.163 -0.6848 -0.8853 -0.1756
   33POPC  H12R 4439   5.887   2.591   9.237 -0.7254 -0.3088 -0.3592
   33POPC  H12S 4440   5.749   2.651   9.137  0.4929  0.0168  0.0694
   33POPC  C213 4441   5.891   2.501   9.047 -0.3257  0.5799 -0.0929
   33POPC  H13R 4442   5.919   2.399   9.079 -1.4820 -0.1490 -1.2909
   33POPC  H13S 4443   5.988   2.549   9.022 -0.5654  0.6243 -0.9856
   33POPC  C214 4444   5.805   2.500   8.917 -0.0496  0.2627  0.0326
   33POPC  H14R 4445   5.763   2.600   8.895 -0.1069  1.0542  3.3329
   33POPC  H14S 4446   5.715   2.437   8.935 -0.1238  0.1684 -0.6482
   33POPC  C215 4447   5.869   2.430   8.794 -0.8012  0.4742 -0.7037
   33POPC  H15R 4448   5.915   2.336   8.830  2.1191  2.0474 -0.0143
   33POPC  H15S 4449   5.944   2.504   8.759  0.2095 -0.1524  0.0642
   33POPC  C216 4450   5.761   2.407   8.688  0.1208  0.3861 -0.6680
   33POPC  H16R 4451   5.709   2.503   8.670  0.7722  1.0219  0.7021
   33POPC  H16S 4452   5.686   2.331   8.722  0.2765 -0.2479 -1.6823
   33POPC  C217 4453   5.829   2.363   8.560 -0.2514  0.1196  0.0886
   33POPC  H17R 4454   5.908   2.288   8.581  0.6621  0.4783 -1.9104
   33POPC  H17S 4455   5.887   2.447   8.516  0.3508 -0.3287  0.0228
   33POPC  C218 4456   5.734   2.319   8.446 -0.2638  0.8353 -0.0213
   33POPC  H18R 4457   5.745   2.388   8.360  0.8569  2.3787  1.2856
   33POPC  H18S 4458   5.628   2.318   8.477  0.2427 -0.6159  1.9510
   33POPC  H18T 4459   5.770   2.219   8.413  0.7148  1.6262 -1.4777
   33POPC   C33 4460   6.478   2.310  10.259 -0.3447  0.0862  0.4915
   33POPC   H3X 4461   6.446   2.256  10.351 -2.8845  1.2534  0.3853
   33POPC   H3Y 4462   6.562   2.381  10.265 -1.1982  1.3132 -1.1776
   33POPC   C34 4463   6.502   2.210  10.147 -0.3297  0.5187  0.7704
   33POPC   H4X 4464   6.403   2.174  10.114 -0.3436 -0.5569  1.9315
   33POPC   H4Y 4465   6.564   2.129  10.191  0.9620  1.5770  1.0074
   33POPC   C35 4466   6.572   2.261  10.022 -0.6198  0.1648 -0.8652
   33POPC   H5X 4467   6.569   2.171   9.957  0.0716 -0.2747 -0.2981
   33POPC   H5Y 4468   6.677   2.288  10.044 -0.2743 -0.8026 -1.2786
   33POPC   C36 4469   6.500   2.362   9.940  0.0106 -0.2247 -0.0829
   33POPC   H6X 4470   6.496   2.463   9.985  1.1716 -1.1356  2.2056
   33POPC   H6Y 4471   6.393   2.331   9.931  0.4168 -1.5868 -0.4780
   33POPC   C37 4472   6.543   2.365   9.791  0.5850  0.0678 -0.8354
   33POPC   H7X 4473   6.451   2.398   9.740 -0.9556 -1.2531  0.9388
   33POPC   H7Y 4474   6.572   2.268   9.745  0.8861 -0.2414 -0.0173
   33POPC   C38 4475   6.648   2.473   9.771 -0.0914 -0.6507  0.1391
   33POPC   H8X 4476   6.727   2.482   9.849 -0.7830  1.8806  0.6254
   33POPC   H8Y 4477   6.593   2.568   9.784 -2.1520 -1.5735 -1.2834
   33POPC   C39 4478   6.716   2.477   9.632  0.1273 -0.4783 -0.3656
   33POPC   H9X 4479   6.756   2.580   9.623  1.4185 -0.7492  1.5524
   33POPC   H9Y 4480   6.642   2.474   9.549  0.2101  0.0462 -0.4632
   33POPC  C310 4481   6.826   2.372   9.609 -0.1256 -0.5756 -0.4488
   33POPC  H10X 4482   6.783   2.274   9.639  1.2386 -1.9131 -2.6303
   33POPC  H10Y 4483   6.912   2.398   9.675 -0.6214 -0.8416  0.3116
   33POPC  C311 4484   6.869   2.356   9.466  0.1498  0.4979  0.2666
   33POPC  H11X 4485   6.958   2.289   9.475  0.9312  1.5099  0.1860
   33POPC  H11Y 4486   6.894   2.454   9.422  1.2198  0.0063 -0.2432
   33POPC  C312 4487   6.766   2.287   9.370  0.7103  0.1889 -0.0382
   33POPC  H12X 4488   6.673   2.347   9.368  0.2966 -0.4243  0.3231
   33POPC  H12Y 4489   6.730   2.197   9.424 -0.1684  0.1819 -0.6234
   33POPC  C313 4490   6.827   2.275   9.229  0.1727 -0.2932  0.0901
   33POPC  H13X 4491   6.893   2.185   9.234 -0.6151 -0.8392  0.9296
   33POPC  H13Y 4492   6.892   2.360   9.200  0.3458  0.7888  3.1933
   33POPC  C314 4493   6.714   2.259   9.123  0.0345  0.2285  0.1921
   33POPC  H14X 4494   6.641   2.343   9.133  1.4482  1.6647 -1.0381
   33POPC  H14Y 4495   6.660   2.165   9.144  0.7197 -0.1382  0.3393
   33POPC  C315 4496   6.767   2.267   8.982  0.0931 -0.1845  0.2361
   33POPC  H15X 4497   6.853   2.197   8.978  1.8012  1.8372 -0.1675
   33POPC  H15Y 4498   6.812   2.366   8.960  1.5544 -0.0827  3.2101
   33POPC  C316 4499   6.667   2.240   8.870 -1.0578  0.2032  0.6145
   33POPC  H16X 4500   6.701   2.270   8.769  2.3218 -1.7619  1.0116
   33POPC  H16Y 4501   6.570   2.290   8.893 -1.4143 -0.9151  1.6703
   33POPC  H16Z 4502   6.647   2.131   8.862 -0.8519  0.3016 -2.3273
   34POPC     N 4503   4.853   1.909  10.657 -0.0304 -0.5248  0.6163
   34POPC   C12 4504   4.706   1.912  10.626  0.8611  0.4995  0.3631
   34POPC  H12A 4505   4.688   2.004  10.572 -2.1534  0.9589  1.9782
   34POPC  H12B 4506   4.647   1.919  10.716  3.4295  1.1829  2.0947
   34POPC   C13 4507   4.890   1.810  10.763  0.3250  0.1253 -0.4403
   34POPC  H13A 4508   4.840   1.827  10.856 -1.6964  0.6002 -1.5640
   34POPC  H13B 4509   4.847   1.713  10.741 -2.5532  1.5089 -1.4305
   34POPC  H13C 4510   4.997   1.797  10.772 -0.0380 -1.9779  1.8251
   34POPC   C14 4511   4.931   1.893  10.529 -0.1358 -0.4127 -0.2231
   34POPC  H14A 4512   5.036   1.917  10.540  0.0806 -1.6968  0.7007
   34POPC  H14B 4513   4.918   1.790  10.500  2.5760 -0.5782 -1.1140
   34POPC  H14C 4514   4.883   1.951  10.452 -1.0794 -1.6222 -0.5786
   34POPC   C15 4515   4.888   2.050  10.713  0.5316 -0.3025 -0.5769
   34POPC  H15A 4516   4.820   2.083  10.791  1.6256  2.4032 -0.6556
   34POPC  H15B 4517   4.888   2.120  10.631 -1.3093 -0.3935 -0.6882
   34POPC  H15C 4518   4.980   2.049  10.771 -1.2125  0.5369  2.4584
   34POPC   C11 4519   4.647   1.803  10.537  0.7027 -0.3710 -0.4747
   34POPC  H11A 4520   4.706   1.803  10.443  2.1363 -1.5800  0.3914
   34POPC  H11B 4521   4.542   1.822  10.505  0.6661  0.1150 -0.0784
   34POPC     P 4522   4.558   1.636  10.714  0.0144  0.0782  0.5421
   34POPC   O13 4523   4.547   1.739  10.813 -0.1863 -0.0218  0.2595
   34POPC   O14 4524   4.584   1.497  10.757  0.4447  0.7840 -0.1421
   34POPC   O12 4525   4.657   1.674  10.596 -0.3009  0.3975 -0.4175
   34POPC   O11 4526   4.416   1.628  10.640  0.0571  0.2752 -0.4891
   34POPC    C1 4527   4.382   1.512  10.555  0.6516  0.2730  0.1944
   34POPC    HA 4528   4.275   1.482  10.557  0.6475  0.1648 -0.9392
   34POPC    HB 4529   4.432   1.420  10.592  1.7952  1.6138  2.2038
   34POPC    C2 4530   4.429   1.522  10.412  0.1232  0.7949  0.3961
   34POPC    HS 4531   4.539   1.531  10.408  0.3627  0.0804  3.2757
   34POPC   O21 4532   4.374   1.644  10.357 -0.5224  0.0058  0.1118
   34POPC   C21 4533   4.440   1.710  10.261  1.2608  0.0961  0.5877
   34POPC   O22 4534   4.545   1.674  10.209 -0.0652 -0.2176  0.0088
   34POPC   C22 4535   4.365   1.843  10.243  0.5644 -0.5790 -0.3430
   34POPC   H2R 4536   4.405   1.923  10.309  1.0271  0.0485 -1.3613
   34POPC   H2S 4537   4.265   1.831  10.290  0.6423 -3.0448 -0.6775
   34POPC    C3 4538   4.379   1.402  10.332  0.2138 -0.2185  0.5960
   34POPC    HX 4539   4.274   1.382  10.363  0.7046 -2.0406  1.2123
   34POPC    HY 4540   4.432   1.312  10.371  0.0727 -0.2690  0.6729
   34POPC   O31 4541   4.382   1.424  10.193 -0.0694 -0.0847  0.5834
   34POPC   C31 4542   4.496   1.406  10.137 -0.2273  0.2438  0.2371
   34POPC   O32 4543   4.603   1.386  10.197  0.2431 -0.0696 -0.3310
   34POPC   C32 4544   4.486   1.404   9.987  0.6189 -0.8770 -0.0644
   34POPC   H2X 4545   4.488   1.512   9.962 -1.2779 -1.3859 -2.8808
   34POPC   H2Y 4546   4.391   1.358   9.952  0.8145  0.0832 -2.0522
   34POPC   C23 4547   4.345   1.886  10.095 -0.0037  0.9617  0.0059
   34POPC   H3R 4548   4.270   1.968  10.095  0.0119  0.9747 -0.2020
   34POPC   H3S 4549   4.296   1.803  10.040 -2.0472  2.8960 -1.2617
   34POPC   C24 4550   4.475   1.943  10.036  0.3234  0.8288 -0.4086
   34POPC   H4R 4551   4.554   1.865  10.040 -1.8409 -1.4082  1.4536
   34POPC   H4S 4552   4.507   2.029  10.100 -1.3437  0.6540  0.7282
   34POPC   C25 4553   4.462   2.006   9.901  0.1837  1.2911 -0.4523
   34POPC   H5R 4554   4.546   2.077   9.885 -0.2265  1.9419  0.2271
   34POPC   H5S 4555   4.370   2.067   9.896 -0.8352 -0.2319 -1.0403
   34POPC   C26 4556   4.448   1.905   9.790  0.0887 -0.2922 -0.1069
   34POPC   H6R 4557   4.351   1.851   9.801 -0.3200  0.4647  0.1073
   34POPC   H6S 4558   4.528   1.830   9.804 -0.4633 -1.0810 -1.0505
   34POPC   C27 4559   4.449   1.960   9.650 -0.3178 -0.5346  0.3509
   34POPC   H7R 4560   4.553   1.993   9.628 -0.4956  1.5008  2.2110
   34POPC   H7S 4561   4.377   2.042   9.628 -0.8517 -2.0038 -4.5383
   34POPC   C28 4562   4.416   1.855   9.543 -0.5349  0.1099  0.1689
   34POPC   H8R 4563   4.307   1.840   9.553 -0.1587 -1.4756  3.2489
   34POPC   H8S 4564   4.463   1.757   9.570  0.1398  0.6494  1.0146
   34POPC   C29 4565   4.439   1.901   9.403 -0.0406 -0.6081 -0.0434
   34POPC   H91 4566   4.369   1.978   9.367  0.3850 -0.9607 -1.7357
   34POPC  C210 4567   4.555   1.873   9.335  0.7577 -0.2958 -0.5418
   34POPC  H101 4568   4.564   1.918   9.235 -2.0821  0.9882 -0.3306
   34POPC  C211 4569   4.680   1.790   9.375  0.0487 -0.0852 -0.0400
   34POPC  H11R 4570   4.680   1.784   9.486  3.6995 -1.9999 -0.0202
   34POPC  H11S 4571   4.762   1.857   9.341  1.3562 -0.0176  2.9300
   34POPC  C212 4572   4.702   1.646   9.310 -0.0404 -0.9015 -0.3556
   34POPC  H12R 4573   4.609   1.596   9.344  0.3019 -0.9188  0.5843
   34POPC  H12S 4574   4.791   1.587   9.340  1.1234  1.6492  1.6676
   34POPC  C213 4575   4.700   1.654   9.159 -0.1395  0.3792 -0.7108
   34POPC  H13R 4576   4.773   1.727   9.119  1.5923 -1.0415 -0.2818
   34POPC  H13S 4577   4.608   1.702   9.117  0.9607  3.5899  0.2563
   34POPC  C214 4578   4.730   1.520   9.092 -0.2704  0.0685  0.2039
   34POPC  H14R 4579   4.658   1.444   9.129  0.3144 -0.5357  0.1358
   34POPC  H14S 4580   4.828   1.479   9.127 -0.8903 -0.7647  1.0246
   34POPC  C215 4581   4.759   1.531   8.938  0.2575 -0.1326 -0.4289
   34POPC  H15R 4582   4.839   1.608   8.937  1.1648 -0.9775  1.2168
   34POPC  H15S 4583   4.673   1.575   8.883  1.9178  1.0580 -2.1815
   34POPC  C216 4584   4.817   1.410   8.875 -0.1521  0.5648 -0.6213
   34POPC  H16R 4585   4.752   1.320   8.878  1.1541 -0.4305 -1.2573
   34POPC  H16S 4586   4.903   1.388   8.941 -0.7608 -2.4299 -0.6707
   34POPC  C217 4587   4.862   1.427   8.732  0.0892 -0.0644 -0.4395
   34POPC  H17R 4588   4.927   1.516   8.724  1.0304 -0.5843  0.8895
   34POPC  H17S 4589   4.769   1.445   8.674 -0.9998 -2.7291  0.3153
   34POPC  C218 4590   4.936   1.298   8.680 -0.0523 -0.5256  0.4704
   34POPC  H18R 4591   5.016   1.272   8.753 -0.0979  1.3627  1.2404
   34POPC  H18S 4592   4.975   1.334   8.582  0.1060 -0.2750  0.6239
   34POPC  H18T 4593   4.868   1.211   8.666 -0.1006 -0.3741 -0.2617
   34POPC   C33 4594   4.606   1.343   9.926 -0.8426  0.5310  0.3383
   34POPC   H3X 4595   4.612   1.232   9.931  3.1446  0.5445 -0.5029
   34POPC   H3Y 4596   4.694   1.381   9.984 -0.3615  1.4493 -0.9471
   34POPC   C34 4597   4.613   1.381   9.773  0.0884 -0.0844 -0.3438
   34POPC   H4X 4598   4.621   1.490   9.751 -0.8677 -0.1684 -1.1737
   34POPC   H4Y 4599   4.516   1.352   9.727 -0.9281  0.9311  1.0518
   34POPC   C35 4600   4.727   1.311   9.702  0.0759 -0.4455  0.4554
   34POPC   H5X 4601   4.717   1.200   9.704  2.6302 -0.7251  1.2092
   34POPC   H5Y 4602   4.827   1.335   9.745  0.8370 -1.7457 -0.4888
   34POPC   C36 4603   4.740   1.368   9.555  0.1064 -0.8380  0.3620
   34POPC   H6X 4604   4.779   1.471   9.570 -1.3450 -0.4357  1.6997
   34POPC   H6Y 4605   4.638   1.368   9.511  0.1610 -3.1920  0.0837
   34POPC   C37 4606   4.823   1.274   9.471 -0.2238  0.4388  0.2004
   34POPC   H7X 4607   4.886   1.208   9.535 -0.7954 -0.0764  0.2486
   34POPC   H7Y 4608   4.901   1.328   9.415  0.4085 -0.9321 -0.2987
   34POPC   C38 4609   4.740   1.195   9.366  0.2824 -0.1436  0.0265
   34POPC   H8X 4610   4.674   1.256   9.300 -0.2564 -0.7449  0.0047
   34POPC   H8Y 4611   4.665   1.137   9.424 -0.1361 -0.1287 -0.4991
   34POPC   C39 4612   4.816   1.095   9.272 -0.2952  0.3205  0.1168
   34POPC   H9X 4613   4.744   1.050   9.200  2.0099 -2.0056 -0.9049
   34POPC   H9Y 4614   4.842   1.012   9.342  1.3597  0.0032 -0.8136
   34POPC  C310 4615   4.946   1.155   9.208  0.7194  0.3441 -0.2930
   34POPC  H10X 4616   5.029   1.157   9.282  0.1738  0.9565  0.3149
   34POPC  H10Y 4617   4.930   1.260   9.179 -0.6978  0.5549  1.0826
   34POPC  C311 4618   4.989   1.070   9.089  0.3808  0.2717  0.4392
   34POPC  H11X 4619   4.937   1.106   8.998 -1.2953 -1.6592  0.5587
   34POPC  H11Y 4620   4.952   0.966   9.105  2.0166 -0.4510 -0.3302
   34POPC  C312 4621   5.132   1.042   9.068  0.1980 -0.2028 -0.3272
   34POPC  H12X 4622   5.165   0.963   9.139  0.0450  0.0889  0.0726
   34POPC  H12Y 4623   5.179   1.140   9.089 -1.0066  0.5295 -0.9670
   34POPC  C313 4624   5.166   0.992   8.925 -0.3517  0.4654 -0.0607
   34POPC  H13X 4625   5.126   1.070   8.857  1.9801  2.7829  1.0475
   34POPC  H13Y 4626   5.107   0.898   8.917 -0.5937  0.6064  0.0526
   34POPC  C314 4627   5.308   0.970   8.878 -0.1234  0.4355 -0.6387
   34POPC  H14X 4628   5.309   0.919   8.780  2.7713  1.2272 -1.0840
   34POPC  H14Y 4629   5.349   0.889   8.942 -2.9896 -0.3830  0.3324
   34POPC  C315 4630   5.410   1.089   8.876  0.6014  0.7486 -1.0574
   34POPC  H15X 4631   5.409   1.149   8.970 -0.8328 -0.6785 -0.1199
   34POPC  H15Y 4632   5.373   1.155   8.794 -1.2121 -2.7039 -3.2717
   34POPC  C316 4633   5.554   1.031   8.850  0.0642  0.3520  0.1275
   34POPC  H16X 4634   5.560   0.985   8.749 -0.6660  0.0198  0.2299
   34POPC  H16Y 4635   5.581   0.955   8.926  0.2593  0.3477  0.0534
   34POPC  H16Z 4636   5.624   1.118   8.851  2.0747 -1.1368 -1.4882
   35POPC     N 4637   6.566   5.222  11.229  0.1083 -0.2073 -0.3426
   35POPC   C12 4638   6.533   5.269  11.088  0.1488 -0.2589 -0.8410
   35POPC  H12A 4639   6.537   5.186  11.019 -0.9144 -0.9197 -0.1415
   35POPC  H12B 4640   6.597   5.350  11.058  1.1818 -0.6158  0.3336
   35POPC   C13 4641   6.451   5.129  11.270  0.5910  0.0872 -0.1627
   35POPC  H13A 4642   6.360   5.188  11.280  0.7593  0.4902 -0.9303
   35POPC  H13B 4643   6.440   5.044  11.204 -1.1209  0.5862 -0.5693
   35POPC  H13C 4644   6.470   5.097  11.371 -2.9878  2.1076  1.3598
   35POPC   C14 4645   6.679   5.128  11.213  0.7760  0.0590  0.4592
   35POPC  H14A 4646   6.772   5.176  11.189  0.8717  0.4784  1.6087
   35POPC  H14B 4647   6.690   5.082  11.311  1.3632 -1.0573 -0.1098
   35POPC  H14C 4648   6.664   5.057  11.133  0.7135 -0.3760  0.8557
   35POPC   C15 4649   6.590   5.331  11.325 -0.2000  0.1958  0.1756
   35POPC  H15A 4650   6.695   5.359  11.321  0.7503 -3.1141 -2.4479
   35POPC  H15B 4651   6.551   5.296  11.420 -1.3440  1.0800  0.0473
   35POPC  H15C 4652   6.531   5.412  11.285 -0.8149 -1.0066 -1.4619
   35POPC   C11 4653   6.389   5.335  11.067  0.6637 -0.5754  0.5161
   35POPC  H11A 4654   6.310   5.263  11.096  0.2142 -1.8658 -3.3089
   35POPC  H11B 4655   6.368   5.343  10.958  1.7079 -1.5661  0.2245
   35POPC     P 4656   6.447   5.587  11.084  0.0031 -0.0090 -0.5514
   35POPC   O13 4657   6.589   5.582  11.112 -0.2817 -0.1425  0.1429
   35POPC   O14 4658   6.381   5.703  11.150 -0.3091 -0.2149 -0.4824
   35POPC   O12 4659   6.379   5.456  11.147 -0.1135 -0.0828  0.6464
   35POPC   O11 4660   6.418   5.585  10.933 -0.0614  0.1828  0.4380
   35POPC    C1 4661   6.291   5.638  10.893  0.2384  0.4238  0.5079
   35POPC    HA 4662   6.297   5.749  10.891 -0.5560  0.5034 -2.2962
   35POPC    HB 4663   6.206   5.602  10.955  0.7741 -0.3420  0.8102
   35POPC    C2 4664   6.260   5.597  10.746 -0.1149 -0.0784  1.0843
   35POPC    HS 4665   6.237   5.489  10.733  2.2856 -0.4564 -0.6261
   35POPC   O21 4666   6.372   5.634  10.668  0.0591 -0.2578 -0.3483
   35POPC   C21 4667   6.401   5.573  10.555 -0.0122 -0.1665 -0.1665
   35POPC   O22 4668   6.336   5.488  10.501 -0.1452  0.7534 -0.0812
   35POPC   C22 4669   6.517   5.642  10.475 -0.2283 -0.1364  0.2495
   35POPC   H2R 4670   6.612   5.653  10.532 -1.1627  0.0828  1.8061
   35POPC   H2S 4671   6.471   5.738  10.445  0.1434  0.9616  2.8933
   35POPC    C3 4672   6.137   5.668  10.689 -0.5605 -0.2333 -0.2259
   35POPC    HX 4673   6.148   5.777  10.705 -2.8975 -0.2508  2.5410
   35POPC    HY 4674   6.052   5.632  10.752  0.3409 -0.8938  0.6569
   35POPC   O31 4675   6.112   5.641  10.554 -0.4292 -0.3650 -0.1332
   35POPC   C31 4676   6.043   5.530  10.527 -0.8374 -0.6032 -0.1452
   35POPC   O32 4677   5.981   5.460  10.607  0.4969 -0.0257  0.1319
   35POPC   C32 4678   6.049   5.499  10.380 -0.2789 -0.6995 -0.0021
   35POPC   H2X 4679   6.114   5.410  10.373  1.1129  0.3308 -0.7732
   35POPC   H2Y 4680   6.083   5.587  10.322 -2.2868  0.5322  0.5808
   35POPC   C23 4681   6.546   5.564  10.347 -0.9901  0.5731 -0.1964
   35POPC   H3R 4682   6.542   5.455  10.367  0.0430  0.4318 -0.6842
   35POPC   H3S 4683   6.648   5.581  10.306 -0.7436 -0.4460 -0.0251
   35POPC   C24 4684   6.444   5.595  10.238  0.8052 -0.4956 -0.7762
   35POPC   H4R 4685   6.426   5.704  10.226 -5.1985 -0.5977  2.9525
   35POPC   H4S 4686   6.343   5.556  10.264  0.2464 -1.0475 -3.4770
   35POPC   C25 4687   6.490   5.528  10.111 -0.3149 -0.0922 -0.3053
   35POPC   H5R 4688   6.501   5.421  10.140  1.4559  0.3044  0.6269
   35POPC   H5S 4689   6.589   5.567  10.079 -0.9265  0.3847 -1.6965
   35POPC   C26 4690   6.383   5.538  10.004 -0.0442  0.4238  0.2630
   35POPC   H6R 4691   6.358   5.646  10.003  1.0467  0.8377  3.7828
   35POPC   H6S 4692   6.294   5.477  10.033  0.0200  0.7443  1.1587
   35POPC   C27 4693   6.440   5.482   9.866  0.4293 -0.4245 -0.5503
   35POPC   H7R 4694   6.481   5.382   9.890  2.1202  0.7571  1.9698
   35POPC   H7S 4695   6.531   5.540   9.839  2.4025 -2.1827  1.8492
   35POPC   C28 4696   6.337   5.479   9.750  0.2787 -0.1010 -0.5606
   35POPC   H8R 4697   6.259   5.410   9.787 -0.1798  1.4665  1.5543
   35POPC   H8S 4698   6.374   5.421   9.663 -0.0871 -1.9447  0.4626
   35POPC   C29 4699   6.280   5.615   9.718 -0.0241  0.4992  0.4721
   35POPC   H91 4700   6.233   5.672   9.800 -1.5306 -0.3219  0.2195
   35POPC  C210 4701   6.275   5.670   9.598 -0.0390 -0.1042  0.5512
   35POPC  H101 4702   6.215   5.763   9.592 -0.7300 -0.4714  1.4291
   35POPC  C211 4703   6.343   5.615   9.473 -0.7772 -0.4712  0.4848
   35POPC  H11R 4704   6.442   5.575   9.506  0.4548 -0.3952 -2.7643
   35POPC  H11S 4705   6.361   5.699   9.403 -0.1070 -0.4330  0.6976
   35POPC  C212 4706   6.280   5.499   9.407  0.1534  0.4939  0.3709
   35POPC  H12R 4707   6.181   5.533   9.370 -0.9023 -1.7552  0.9475
   35POPC  H12S 4708   6.252   5.420   9.480  0.1972 -0.7251 -0.9035
   35POPC  C213 4709   6.366   5.425   9.301  0.2618  0.2979 -0.6213
   35POPC  H13R 4710   6.309   5.338   9.262  0.8859 -1.5030  2.1924
   35POPC  H13S 4711   6.452   5.379   9.354  0.7094  0.2908 -1.3355
   35POPC  C214 4712   6.428   5.520   9.200 -0.2743  0.5145  0.0618
   35POPC  H14R 4713   6.489   5.604   9.240 -0.7281 -0.7003  3.6932
   35POPC  H14S 4714   6.355   5.577   9.139  0.5291  0.4975 -0.9300
   35POPC  C215 4715   6.510   5.432   9.110  0.1670  0.5752 -0.5656
   35POPC  H15R 4716   6.447   5.352   9.065 -1.1303  0.8290  0.7257
   35POPC  H15S 4717   6.593   5.384   9.165  1.2954 -0.1022 -2.7376
   35POPC  C216 4718   6.590   5.505   8.999  1.0697 -0.2176 -0.8039
   35POPC  H16R 4719   6.649   5.434   8.938  2.8641 -0.0823  0.6926
   35POPC  H16S 4720   6.666   5.581   9.028 -0.9654  2.4564 -1.9738
   35POPC  C217 4721   6.501   5.581   8.895 -0.4177 -0.8285  0.1295
   35POPC  H17R 4722   6.575   5.638   8.835 -0.7108 -1.6445 -1.0595
   35POPC  H17S 4723   6.440   5.657   8.949 -0.0292 -1.8438  2.0522
   35POPC  C218 4724   6.400   5.494   8.811 -0.6835 -0.4344 -0.7230
   35POPC  H18R 4725   6.347   5.561   8.740 -0.8818  0.3908  0.1756
   35POPC  H18S 4726   6.325   5.442   8.875 -2.7866  2.3817 -0.7371
   35POPC  H18T 4727   6.465   5.422   8.757  1.9431 -0.2179  1.8888
   35POPC   C33 4728   5.906   5.460  10.332  0.2972 -0.3118  0.7815
   35POPC   H3X 4729   5.855   5.559  10.336  1.2221  0.2890 -1.3344
   35POPC   H3Y 4730   5.849   5.385  10.392  1.3675 -1.2691  0.6197
   35POPC   C34 4731   5.902   5.426  10.182  0.3031 -0.5677 -0.1874
   35POPC   H4X 4732   5.793   5.425  10.159  0.4805  0.3639 -1.1081
   35POPC   H4Y 4733   5.937   5.322  10.162 -0.8090 -1.1919  0.9813
   35POPC   C35 4734   5.983   5.525  10.093 -0.0721 -0.2904 -0.7401
   35POPC   H5X 4735   6.091   5.540  10.116 -0.2477  2.0792 -1.2603
   35POPC   H5Y 4736   5.941   5.628  10.096  0.3167 -0.1237 -0.8593
   35POPC   C36 4737   5.972   5.490   9.942  0.4307  0.1022 -0.3534
   35POPC   H6X 4738   5.987   5.382   9.925  1.3104 -0.2173  2.0295
   35POPC   H6Y 4739   6.049   5.538   9.878  0.7103 -0.5279 -0.4880
   35POPC   C37 4740   5.830   5.517   9.885 -0.0055 -0.5358 -0.0053
   35POPC   H7X 4741   5.795   5.617   9.920  0.3510 -0.6224  0.6146
   35POPC   H7Y 4742   5.768   5.432   9.920 -0.3939  0.2968  1.4348
   35POPC   C38 4743   5.820   5.501   9.736  0.7379 -0.2864  0.3131
   35POPC   H8X 4744   5.875   5.582   9.681 -2.3820  1.5019 -0.3963
   35POPC   H8Y 4745   5.713   5.505   9.706 -0.1383  1.1631  3.2637
   35POPC   C39 4746   5.880   5.364   9.686  0.3442  0.0164  0.6003
   35POPC   H9X 4747   5.851   5.287   9.762 -0.6824 -1.3155 -1.0680
   35POPC   H9Y 4748   5.988   5.387   9.693  0.1998  0.3617  1.9060
   35POPC  C310 4749   5.832   5.328   9.548 -0.4254 -0.2987 -0.5259
   35POPC  H10X 4750   5.722   5.313   9.560 -1.0189  2.1131 -2.0951
   35POPC  H10Y 4751   5.873   5.233   9.510 -0.0638 -0.6433  0.7161
   35POPC  C311 4752   5.867   5.437   9.444  1.0736 -0.6314 -0.0551
   35POPC  H11X 4753   5.968   5.472   9.473  1.0017  0.3791 -0.9902
   35POPC  H11Y 4754   5.801   5.526   9.445 -1.0733 -2.1329  0.4342
   35POPC  C312 4755   5.856   5.377   9.308 -0.2770 -0.0928  0.7168
   35POPC  H12X 4756   5.757   5.327   9.298  0.6700 -1.9342  0.1602
   35POPC  H12Y 4757   5.930   5.297   9.289 -0.6751 -0.2677 -0.1418
   35POPC  C313 4758   5.879   5.498   9.208  0.1237  0.2151  0.4637
   35POPC  H13X 4759   5.981   5.541   9.217 -0.1329  1.9753 -3.3038
   35POPC  H13Y 4760   5.809   5.580   9.237  0.5767  1.0630 -0.7620
   35POPC  C314 4761   5.851   5.471   9.057 -0.0455  0.3570  0.4679
   35POPC  H14X 4762   5.840   5.564   8.998 -0.6285  1.2148  1.8795
   35POPC  H14Y 4763   5.748   5.430   9.054 -0.0284  0.3466 -0.1022
   35POPC  C315 4764   5.951   5.370   8.992  0.2776 -0.2074 -0.6932
   35POPC  H15X 4765   5.934   5.361   8.882 -1.9596 -1.7792 -0.2940
   35POPC  H15Y 4766   5.922   5.266   9.019  0.9187 -0.5779 -1.3741
   35POPC  C316 4767   6.099   5.393   9.026  0.2183  0.3699  0.4172
   35POPC  H16X 4768   6.159   5.326   8.961 -0.0011 -0.7938  1.3811
   35POPC  H16Y 4769   6.117   5.361   9.131  0.9043 -0.5777  0.0243
   35POPC  H16Z 4770   6.130   5.499   9.009 -1.6398  0.8960  0.1093
   36POPC     N 4771   6.814   5.973  11.380 -0.3081 -0.3030 -0.1051
   36POPC   C12 4772   6.716   5.917  11.270 -0.6367 -1.2631  0.5717
   36POPC  H12A 4773   6.684   5.818  11.298 -2.7016 -0.7323  0.2472
   36POPC  H12B 4774   6.771   5.910  11.177 -0.0788 -0.1230  0.7966
   36POPC   C13 4775   6.922   5.875  11.419  0.8296 -0.3388  0.6949
   36POPC  H13A 4776   6.883   5.786  11.468 -0.7854 -0.6422 -1.0547
   36POPC  H13B 4777   6.979   5.852  11.330 -1.4402  0.0192 -0.9354
   36POPC  H13C 4778   6.976   5.932  11.493 -0.9766  0.9915  1.0514
   36POPC   C14 4779   6.879   6.098  11.322  0.5627  0.1282  0.0625
   36POPC  H14A 4780   6.931   6.071  11.231  1.7597  2.5019 -0.0326
   36POPC  H14B 4781   6.801   6.171  11.308 -0.8503 -0.6955  2.7709
   36POPC  H14C 4782   6.946   6.144  11.392 -0.3638  0.3954  0.8039
   36POPC   C15 4783   6.742   6.011  11.508 -0.0886  0.2823  0.2602
   36POPC  H15A 4784   6.801   6.074  11.573  1.2006  2.3111 -2.6483
   36POPC  H15B 4785   6.706   5.918  11.550  2.2107 -0.5242  0.6013
   36POPC  H15C 4786   6.668   6.080  11.471 -2.8068 -1.0693  2.7896
   36POPC   C11 4787   6.582   5.998  11.240  0.1287 -0.5077  0.1728
   36POPC  H11A 4788   6.527   5.981  11.335 -0.4306 -1.9314 -0.3605
   36POPC  H11B 4789   6.521   5.947  11.162 -1.2166 -0.5505  1.2084
   36POPC     P 4790   6.557   6.207  11.085 -0.3005 -0.0263 -0.4000
   36POPC   O13 4791   6.639   6.330  11.063 -0.1287 -0.1129  0.3735
   36POPC   O14 4792   6.413   6.219  11.087 -0.1260  0.4267 -0.0304
   36POPC   O12 4793   6.604   6.138  11.216 -0.0454  0.6041  0.9978
   36POPC   O11 4794   6.598   6.093  10.978  0.0225 -0.1658  0.0435
   36POPC    C1 4795   6.734   6.088  10.937 -0.1604  0.1669  0.1514
   36POPC    HA 4796   6.759   5.986  10.900  0.0783  1.4883 -3.8799
   36POPC    HB 4797   6.799   6.118  11.021  0.1373  0.6359 -0.2381
   36POPC    C2 4798   6.764   6.175  10.813 -0.4900 -0.6448 -0.0569
   36POPC    HS 4799   6.730   6.280  10.829 -1.4633 -1.1580  1.3680
   36POPC   O21 4800   6.696   6.112  10.703  0.5792  0.1317 -0.6176
   36POPC   C21 4801   6.643   6.189  10.613 -0.5559 -0.1973  0.2013
   36POPC   O22 4802   6.650   6.313  10.609 -0.0605  0.8763 -0.3220
   36POPC   C22 4803   6.573   6.100  10.506 -0.3670  0.3359 -0.6182
   36POPC   H2R 4804   6.467   6.133  10.511 -0.6367 -0.6561  1.3589
   36POPC   H2S 4805   6.588   5.994  10.535 -2.1274  0.0954 -0.5004
   36POPC    C3 4806   6.909   6.184  10.769  0.1799 -0.5687  0.0008
   36POPC    HX 4807   6.925   6.081  10.732 -0.9276 -0.2705 -1.3583
   36POPC    HY 4808   6.982   6.205  10.851  1.7345 -0.1897 -1.4238
   36POPC   O31 4809   6.937   6.268  10.657  0.4090  0.2717  0.2212
   36POPC   C31 4810   6.970   6.392  10.690  0.1193  0.0725  0.2380
   36POPC   O32 4811   6.963   6.441  10.798  0.7555 -0.4807 -0.6157
   36POPC   C32 4812   7.005   6.476  10.575 -0.6151  0.0844  0.5625
   36POPC   H2X 4813   7.116   6.475  10.586 -0.4732 -1.7901 -0.7029
   36POPC   H2Y 4814   6.974   6.579  10.605 -0.0146  0.2512  0.6282
   36POPC   C23 4815   6.626   6.140  10.370 -0.0493  0.1249 -0.0681
   36POPC   H3R 4816   6.586   6.065  10.299 -1.2319 -0.1411  0.8417
   36POPC   H3S 4817   6.735   6.123  10.363 -0.2068 -1.7281  1.2749
   36POPC   C24 4818   6.583   6.278  10.323 -0.2734 -0.2492 -0.4227
   36POPC   H4R 4819   6.632   6.365  10.371  2.3614 -0.3184 -2.6883
   36POPC   H4S 4820   6.474   6.279  10.343  0.0526  1.5201  1.5335
   36POPC   C25 4821   6.608   6.292  10.175 -0.2382 -0.2434  0.3001
   36POPC   H5R 4822   6.563   6.209  10.116  2.0340 -3.0744  2.2778
   36POPC   H5S 4823   6.716   6.275  10.160 -0.3554  0.2153 -1.3350
   36POPC   C26 4824   6.569   6.427  10.127 -0.2634 -0.1587 -0.0369
   36POPC   H6R 4825   6.600   6.504  10.200  0.9833  0.0561 -0.7506
   36POPC   H6S 4826   6.459   6.434  10.111 -0.2232  0.1132 -0.2101
   36POPC   C27 4827   6.638   6.479   9.996 -0.1362 -0.7152 -0.1387
   36POPC   H7R 4828   6.747   6.466  10.007 -0.2802 -0.7421  1.4138
   36POPC   H7S 4829   6.620   6.584   9.962 -2.1697 -1.3689 -1.2451
   36POPC   C28 4830   6.593   6.385   9.874 -0.2632 -0.0898  0.0822
   36POPC   H8R 4831   6.490   6.413   9.844 -0.2943 -0.0681  0.2077
   36POPC   H8S 4832   6.592   6.278   9.905  0.9815 -0.5018 -1.2088
   36POPC   C29 4833   6.686   6.398   9.753 -0.2852  0.1283 -0.6411
   36POPC   H91 4834   6.792   6.387   9.778 -0.4756  2.8886  2.0409
   36POPC  C210 4835   6.656   6.419   9.626 -0.0506  0.1607  0.4155
   36POPC  H101 4836   6.743   6.419   9.560  0.4725  0.6458  1.0906
   36POPC  C211 4837   6.517   6.434   9.563  0.5581 -0.7734 -0.8021
   36POPC  H11R 4838   6.471   6.533   9.582  2.5591 -0.0832  0.8059
   36POPC  H11S 4839   6.460   6.348   9.605 -0.5301 -0.3141 -1.3076
   36POPC  C212 4840   6.535   6.416   9.409 -0.7285 -0.6038 -0.4052
   36POPC  H12R 4841   6.441   6.387   9.359 -0.3886 -2.3270 -0.1009
   36POPC  H12S 4842   6.600   6.329   9.388  1.0387  0.3152  0.9098
   36POPC  C213 4843   6.580   6.546   9.337 -0.0187 -0.1960 -0.2994
   36POPC  H13R 4844   6.682   6.568   9.377  0.0486 -0.9144 -0.0606
   36POPC  H13S 4845   6.516   6.635   9.353  2.6051  1.5770  1.1801
   36POPC  C214 4846   6.597   6.538   9.183 -0.4974  0.2911 -0.9585
   36POPC  H14R 4847   6.642   6.441   9.153 -2.3080 -0.7701 -0.4217
   36POPC  H14S 4848   6.647   6.631   9.150  2.9450  0.6474  4.0511
   36POPC  C215 4849   6.472   6.524   9.103  0.3697  0.2676 -0.3572
   36POPC  H15R 4850   6.410   6.616   9.112 -0.1393  0.1854 -2.5638
   36POPC  H15S 4851   6.415   6.432   9.127 -1.2340  0.9862 -1.2477
   36POPC  C216 4852   6.511   6.508   8.956 -0.1046  0.0921  0.3990
   36POPC  H16R 4853   6.558   6.408   8.946 -1.1863 -0.5606  1.5627
   36POPC  H16S 4854   6.600   6.573   8.947 -1.5451  2.6604  2.9014
   36POPC  C217 4855   6.388   6.524   8.879  0.7626  0.2278  0.9093
   36POPC  H17R 4856   6.343   6.625   8.883  1.4700  0.9622 -3.8994
   36POPC  H17S 4857   6.313   6.447   8.909 -0.6969  1.7121  1.1698
   36POPC  C218 4858   6.410   6.507   8.725  0.5245 -0.5713  0.7541
   36POPC  H18R 4859   6.491   6.577   8.695 -0.1614 -0.0100  0.1972
   36POPC  H18S 4860   6.315   6.532   8.673  1.1541  1.4880  0.5130
   36POPC  H18T 4861   6.446   6.404   8.703  0.1042 -0.7809  1.0380
   36POPC   C33 4862   6.965   6.423  10.435  0.7525  0.4023  0.2485
   36POPC   H3X 4863   6.898   6.497  10.387 -0.0441  0.0307  0.7844
   36POPC   H3Y 4864   6.929   6.318  10.429  0.1360  0.6680 -1.0066
   36POPC   C34 4865   7.083   6.422  10.337 -0.7421 -0.0089 -0.0659
   36POPC   H4X 4866   7.162   6.364  10.388 -1.5127 -1.0734 -0.0421
   36POPC   H4Y 4867   7.135   6.518  10.318 -0.6178 -0.0441  0.0933
   36POPC   C35 4868   7.049   6.374  10.194  0.3260 -0.5171  0.7770
   36POPC   H5X 4869   7.117   6.412  10.114 -2.5267  0.1358 -1.5415
   36POPC   H5Y 4870   6.950   6.412  10.158  0.5596 -2.0383 -1.7171
   36POPC   C36 4871   7.053   6.217  10.180  0.2891 -0.0379  0.3187
   36POPC   H6X 4872   7.011   6.172  10.272  0.8083 -2.9475 -0.7747
   36POPC   H6Y 4873   7.158   6.183  10.166 -0.3412 -2.5888  1.3088
   36POPC   C37 4874   6.989   6.167  10.058  0.4244  0.1414  0.5071
   36POPC   H7X 4875   6.879   6.179  10.062  0.3099  0.5584 -2.3350
   36POPC   H7Y 4876   6.995   6.056  10.056 -3.5291 -0.2159  0.8952
   36POPC   C38 4877   7.048   6.210   9.930 -0.2205  0.1077  0.4458
   36POPC   H8X 4878   7.150   6.164   9.926  0.5578  1.8050 -3.5465
   36POPC   H8Y 4879   7.067   6.319   9.926  1.8299 -0.2105  0.4189
   36POPC   C39 4880   6.968   6.158   9.811 -0.7081 -0.2955  0.6361
   36POPC   H9X 4881   6.866   6.201   9.817 -0.6773 -0.0379 -0.4271
   36POPC   H9Y 4882   6.961   6.047   9.804 -0.4038 -0.4440  2.3826
   36POPC  C310 4883   7.022   6.214   9.672 -0.2761  0.1035 -0.1966
   36POPC  H10X 4884   7.126   6.177   9.660  0.1851 -0.5915  4.1785
   36POPC  H10Y 4885   7.042   6.322   9.686  3.6817 -0.6846  1.5789
   36POPC  C311 4886   6.943   6.164   9.552  0.7040  0.2374 -0.3214
   36POPC  H11X 4887   6.835   6.191   9.552  0.8574  0.8580 -0.4777
   36POPC  H11Y 4888   6.964   6.055   9.540 -0.2990 -0.0674  0.4766
   36POPC  C312 4889   6.993   6.231   9.425 -0.0496 -0.3340  0.0361
   36POPC  H12X 4890   7.101   6.220   9.401  0.0225  0.0036  0.1966
   36POPC  H12Y 4891   6.983   6.341   9.441  0.6628 -0.3821  0.9556
   36POPC  C313 4892   6.905   6.198   9.305 -0.5336  0.2381 -0.2842
   36POPC  H13X 4893   6.795   6.198   9.323 -0.7174 -2.3715 -1.0108
   36POPC  H13Y 4894   6.914   6.089   9.283 -0.8798 -0.1342  1.3391
   36POPC  C314 4895   6.917   6.285   9.178 -0.3732 -0.0144 -0.2537
   36POPC  H14X 4896   6.887   6.390   9.201  2.2161  0.9265 -0.7880
   36POPC  H14Y 4897   6.857   6.238   9.097 -1.0397  1.7433 -0.8287
   36POPC  C315 4898   7.057   6.285   9.123  0.3723  0.2633 -0.6273
   36POPC  H15X 4899   7.074   6.178   9.101 -1.4371  0.2470 -2.1682
   36POPC  H15Y 4900   7.133   6.321   9.196 -0.7083  2.9646 -0.7200
   36POPC  C316 4901   7.084   6.369   9.000  0.0359  0.2751  0.4344
   36POPC  H16X 4902   7.191   6.357   8.975  0.5097 -1.4240  2.9437
   36POPC  H16Y 4903   7.061   6.476   9.022  1.1986  0.5440  0.4108
   36POPC  H16Z 4904   7.019   6.336   8.916  1.7558 -0.5542 -0.6230
   37POPC     N 4905   3.352   2.039   6.427 -0.3063 -0.1846  0.4311
   37POPC   C12 4906   3.434   1.940   6.506  0.8220 -0.1427 -0.1652
   37POPC  H12A 4907   3.505   1.884   6.447 -0.0634 -0.7325 -0.6953
   37POPC  H12B 4908   3.363   1.868   6.546  0.9748 -0.6692 -0.8306
   37POPC   C13 4909   3.224   2.089   6.496  0.2683 -0.2433  0.2504
   37POPC  H13A 4910   3.237   2.130   6.595  0.3769  1.6930 -0.5274
   37POPC  H13B 4911   3.191   2.170   6.432  0.5727  1.2035  1.8507
   37POPC  H13C 4912   3.156   2.006   6.497  0.5988 -0.5950 -1.6930
   37POPC   C14 4913   3.434   2.164   6.386  0.9476  0.1644 -0.2102
   37POPC  H14A 4914   3.378   2.239   6.333  1.1769 -0.7659 -1.8286
   37POPC  H14B 4915   3.484   2.213   6.469  1.1759 -2.4140  1.2776
   37POPC  H14C 4916   3.507   2.130   6.314 -0.4960  1.7346 -2.5558
   37POPC   C15 4917   3.297   1.976   6.302 -0.2647 -0.3443 -0.5143
   37POPC  H15A 4918   3.372   1.921   6.245 -0.0399  0.1000 -0.6521
   37POPC  H15B 4919   3.261   2.051   6.233  2.0056  1.9596  0.6411
   37POPC  H15C 4920   3.219   1.906   6.328 -0.0806 -0.2778  0.2259
   37POPC   C11 4921   3.528   2.002   6.614 -0.1312  0.2432 -0.0750
   37POPC  H11A 4922   3.524   1.927   6.696  1.7143  0.3586  0.1496
   37POPC  H11B 4923   3.487   2.095   6.658 -2.2745  0.1081 -1.6017
   37POPC     P 4924   3.762   1.919   6.560 -0.0020 -0.4159 -0.2407
   37POPC   O13 4925   3.874   1.962   6.467  0.2633  0.1609 -0.0770
   37POPC   O14 4926   3.694   1.789   6.528  0.4705  0.2440  0.3706
   37POPC   O12 4927   3.652   2.028   6.566  0.0256 -0.0999 -0.1195
   37POPC   O11 4928   3.818   1.911   6.707  0.9861  0.2363  0.4620
   37POPC    C1 4929   3.903   2.017   6.742 -0.0776  0.5657  0.0659
   37POPC    HA 4930   3.854   2.111   6.711 -0.5622  0.0536 -0.7517
   37POPC    HB 4931   4.009   2.010   6.710 -0.0963  0.7815 -0.0451
   37POPC    C2 4932   3.906   2.046   6.894  0.7040 -0.5816 -0.4052
   37POPC    HS 4933   3.948   1.957   6.948  0.1801 -1.0886 -0.8248
   37POPC   O21 4934   3.770   2.076   6.932 -0.0971 -0.0180 -0.4683
   37POPC   C21 4935   3.698   1.973   6.993  0.4111 -0.9502  0.3414
   37POPC   O22 4936   3.741   1.864   7.023  0.4486  0.2431 -0.5860
   37POPC   C22 4937   3.553   2.016   6.996 -0.3430 -0.1694 -0.0221
   37POPC   H2R 4938   3.489   1.935   7.037 -1.0440 -0.1565 -1.0303
   37POPC   H2S 4939   3.509   2.028   6.894 -1.3515  1.1027  0.5364
   37POPC    C3 4940   3.998   2.168   6.931  0.2236 -0.0806 -0.7116
   37POPC    HX 4941   3.965   2.256   6.872 -1.3536  0.2134  0.5461
   37POPC    HY 4942   4.105   2.151   6.904  0.4675 -2.4102  1.3567
   37POPC   O31 4943   4.001   2.192   7.075  0.1047 -1.0389  0.3992
   37POPC   C31 4944   3.946   2.296   7.119  0.0649 -0.3453 -0.0084
   37POPC   O32 4945   3.887   2.384   7.053  0.1695  0.4252  0.6821
   37POPC   C32 4946   3.957   2.288   7.275  0.5075 -0.0188  0.0832
   37POPC   H2X 4947   3.911   2.191   7.302  3.3578 -1.8275 -1.0598
   37POPC   H2Y 4948   3.920   2.382   7.321  3.7685  0.0678  2.9560
   37POPC   C23 4949   3.533   2.142   7.084 -0.2787  0.4476  1.0121
   37POPC   H3R 4950   3.436   2.196   7.086  0.1006  1.1514  0.7176
   37POPC   H3S 4951   3.603   2.222   7.053 -2.3157  2.0863  0.3944
   37POPC   C24 4952   3.570   2.095   7.227  0.5837 -0.1021 -0.4586
   37POPC   H4R 4953   3.669   2.044   7.224  1.1159  0.9427 -1.6183
   37POPC   H4S 4954   3.491   2.030   7.269  0.8412  1.1360  2.1013
   37POPC   C25 4955   3.577   2.212   7.327 -0.5177 -0.1716 -0.5765
   37POPC   H5R 4956   3.483   2.270   7.337 -0.4161 -0.1922  0.6546
   37POPC   H5S 4957   3.649   2.285   7.285 -0.7213 -0.5543 -1.6099
   37POPC   C26 4958   3.628   2.172   7.460 -0.4554  0.3314  0.0888
   37POPC   H6R 4959   3.728   2.125   7.448 -1.5853 -1.5770 -3.0287
   37POPC   H6S 4960   3.553   2.102   7.505 -0.5790  0.1123 -0.4552
   37POPC   C27 4961   3.628   2.288   7.562  0.3792  0.1008 -0.2727
   37POPC   H7R 4962   3.525   2.331   7.564 -0.7099 -2.3840  0.7975
   37POPC   H7S 4963   3.692   2.374   7.532 -1.5300  2.1235  1.1633
   37POPC   C28 4964   3.674   2.234   7.703  0.3651 -0.0430  0.3538
   37POPC   H8R 4965   3.678   2.315   7.780 -1.2068 -0.7993  1.2839
   37POPC   H8S 4966   3.783   2.210   7.699  0.3178 -0.5027  1.4259
   37POPC   C29 4967   3.603   2.118   7.766  0.6680 -0.3790  0.3350
   37POPC   H91 4968   3.641   2.018   7.742  0.3993  0.0256 -2.0318
   37POPC  C210 4969   3.500   2.127   7.855 -0.1602  0.5607 -0.0855
   37POPC  H101 4970   3.445   2.034   7.873  1.0594  0.0271  1.0137
   37POPC  C211 4971   3.443   2.244   7.927 -0.1763  0.0581 -0.1659
   37POPC  H11R 4972   3.342   2.265   7.884 -0.3028 -0.1730  0.0188
   37POPC  H11S 4973   3.509   2.332   7.907 -0.5855  0.3671 -0.1743
   37POPC  C212 4974   3.433   2.226   8.084  0.0427  0.0505 -0.0571
   37POPC  H12R 4975   3.424   2.328   8.128  1.5928  0.7072 -1.1707
   37POPC  H12S 4976   3.525   2.182   8.129 -1.1336 -1.5469  0.8873
   37POPC  C213 4977   3.312   2.141   8.134  0.0730 -0.4084 -0.1967
   37POPC  H13R 4978   3.301   2.063   8.055  1.2580  0.3406 -1.1287
   37POPC  H13S 4979   3.221   2.205   8.137  1.1247  1.1079  0.2090
   37POPC  C214 4980   3.350   2.066   8.261 -0.0300  0.9016 -1.0343
   37POPC  H14R 4981   3.330   2.127   8.352  2.0228  0.6882 -0.3951
   37POPC  H14S 4982   3.456   2.033   8.259  0.3146  1.4502  2.2813
   37POPC  C215 4983   3.255   1.945   8.273  0.2514 -0.3808  0.8613
   37POPC  H15R 4984   3.242   1.886   8.180 -2.5821 -0.3585  1.1278
   37POPC  H15S 4985   3.152   1.984   8.293 -1.0340 -2.2194 -1.6132
   37POPC  C216 4986   3.301   1.836   8.378  0.3953 -0.1608  0.1830
   37POPC  H16R 4987   3.401   1.799   8.349  0.8594  0.9759  0.2890
   37POPC  H16S 4988   3.233   1.748   8.376 -0.2721  0.3668 -1.1077
   37POPC  C217 4989   3.317   1.895   8.512  0.2890 -0.2799 -0.1234
   37POPC  H17R 4990   3.226   1.916   8.572  1.0134  1.1825  0.5142
   37POPC  H17S 4991   3.381   1.985   8.502  0.3748 -0.0555  1.9983
   37POPC  C218 4992   3.404   1.812   8.603  0.3550  0.5102  0.2635
   37POPC  H18R 4993   3.408   1.850   8.707  3.8476 -0.9619  0.8375
   37POPC  H18S 4994   3.507   1.790   8.568  0.8596 -2.2801  2.9855
   37POPC  H18T 4995   3.361   1.710   8.618  1.7025 -0.5192 -2.2048
   37POPC   C33 4996   4.100   2.254   7.330 -0.6835 -0.9005  0.1281
   37POPC   H3X 4997   4.173   2.307   7.265 -0.6509 -0.9694  0.1084
   37POPC   H3Y 4998   4.103   2.143   7.320 -0.2669 -0.8642 -0.1870
   37POPC   C34 4999   4.119   2.309   7.470  0.0638  0.2869 -0.1030
   37POPC   H4X 5000   4.033   2.267   7.527  0.7437 -0.7755  0.1743
   37POPC   H4Y 5001   4.124   2.420   7.470  0.8177  0.2597  0.2108
   37POPC   C35 5002   4.242   2.231   7.521 -0.1994  0.6114 -0.8202
   37POPC   H5X 5003   4.320   2.236   7.442  1.6950  0.6626  0.9632
   37POPC   H5Y 5004   4.212   2.126   7.541  0.4317  0.5239 -0.2955
   37POPC   C36 5005   4.311   2.285   7.645  0.1962 -0.4022  0.0044
   37POPC   H6X 5006   4.226   2.291   7.716  0.3227  1.5946  0.0349
   37POPC   H6Y 5007   4.344   2.390   7.627 -1.0729  0.0649  0.2997
   37POPC   C37 5008   4.416   2.199   7.702 -0.4485  0.1445 -0.5869
   37POPC   H7X 5009   4.502   2.199   7.632 -0.3295  0.7989 -0.4419
   37POPC   H7Y 5010   4.383   2.093   7.691  0.7400 -0.2224 -0.7375
   37POPC   C38 5011   4.471   2.223   7.847 -0.1341 -0.5834 -0.2832
   37POPC   H8X 5012   4.379   2.219   7.909  0.4698  0.2351  0.6946
   37POPC   H8Y 5013   4.497   2.331   7.843 -0.9156 -0.3584  0.3472
   37POPC   C39 5014   4.576   2.117   7.897 -0.0708 -0.2706 -1.0704
   37POPC   H9X 5015   4.663   2.151   7.836  0.5458  0.4275  0.1503
   37POPC   H9Y 5016   4.545   2.015   7.869  0.5455 -0.7130 -0.2000
   37POPC  C310 5017   4.596   2.114   8.047  0.0082 -0.2254  0.1835
   37POPC  H10X 5018   4.493   2.117   8.087 -0.9343 -0.8242 -2.0478
   37POPC  H10Y 5019   4.655   2.202   8.083  2.8165 -1.7030 -0.4737
   37POPC  C311 5020   4.679   1.999   8.096  0.2596  0.1491 -0.1610
   37POPC  H11X 5021   4.785   2.009   8.064  0.0297  1.8603 -0.4924
   37POPC  H11Y 5022   4.633   1.907   8.054 -0.7502  1.2990 -1.6907
   37POPC  C312 5023   4.673   1.986   8.251  0.2049 -0.1266 -1.0189
   37POPC  H12X 5024   4.709   1.885   8.280 -0.0445  0.1756  0.4236
   37POPC  H12Y 5025   4.564   1.979   8.270  0.2171 -1.9283 -1.4381
   37POPC  C313 5026   4.740   2.102   8.319 -0.6453 -0.1797 -0.6035
   37POPC  H13X 5027   4.738   2.085   8.429 -1.4906  1.6948 -0.2853
   37POPC  H13Y 5028   4.683   2.195   8.299 -1.2602 -0.9729 -2.8270
   37POPC  C314 5029   4.892   2.138   8.286  0.4632  0.3180 -0.3582
   37POPC  H14X 5030   4.911   2.220   8.359 -1.0931 -0.7124  1.3047
   37POPC  H14Y 5031   4.902   2.177   8.183 -0.4394  1.3338 -0.0709
   37POPC  C315 5032   5.008   2.032   8.303  0.4609  0.0549 -0.6330
   37POPC  H15X 5033   5.106   2.074   8.274  0.7123 -0.2665 -0.2594
   37POPC  H15Y 5034   4.982   1.945   8.238 -1.0983  0.9620 -1.2864
   37POPC  C316 5035   5.017   1.975   8.446 -0.0137 -0.4077 -0.0765
   37POPC  H16X 5036   4.919   1.963   8.498  0.4527 -0.4453  0.8286
   37POPC  H16Y 5037   5.062   2.054   8.509  0.9889 -0.1232 -1.1277
   37POPC  H16Z 5038   5.074   1.880   8.455  2.0907  0.8573  0.3404
   38POPC     N 5039   6.803   0.586   6.304  0.0476 -0.1507 -0.3914
   38POPC   C12 5040   6.774   0.507   6.432 -0.0392 -0.2447 -0.3760
   38POPC  H12A 5041   6.855   0.515   6.503 -0.8880 -1.0747  0.7185
   38POPC  H12B 5042   6.779   0.400   6.419  1.1392 -0.2873  0.3316
   38POPC   C13 5043   6.834   0.724   6.334 -0.0259 -1.2303 -0.0993
   38POPC  H13A 5044   6.870   0.749   6.433 -0.3101 -0.6203 -0.1425
   38POPC  H13B 5045   6.906   0.760   6.263  0.1330  0.0786  0.6841
   38POPC  H13C 5046   6.756   0.797   6.314  1.3966  0.7539  1.1373
   38POPC   C14 5047   6.916   0.518   6.237 -0.3916  0.2388 -0.1964
   38POPC  H14A 5048   7.007   0.530   6.294  0.8199 -0.5371 -1.8900
   38POPC  H14B 5049   6.903   0.411   6.230 -0.1540  0.1390  0.8252
   38POPC  H14C 5050   6.937   0.554   6.137 -0.2697 -0.8660 -0.5867
   38POPC   C15 5051   6.693   0.591   6.203 -0.2818  0.1339 -0.4313
   38POPC  H15A 5052   6.599   0.600   6.256  1.1286 -3.5761  3.2117
   38POPC  H15B 5053   6.684   0.501   6.143 -1.5127  0.3804 -0.6528
   38POPC  H15C 5054   6.705   0.673   6.134  0.2325  0.2410 -0.2128
   38POPC   C11 5055   6.632   0.524   6.493  0.1092 -0.1565  0.4427
   38POPC  H11A 5056   6.620   0.630   6.522  2.2408  0.5392 -0.9744
   38POPC  H11B 5057   6.622   0.462   6.585  3.4097  0.2035  1.1664
   38POPC     P 5058   6.486   0.336   6.385 -0.2200  0.1688 -0.0788
   38POPC   O13 5059   6.599   0.267   6.331 -0.1009  0.0867  0.0965
   38POPC   O14 5060   6.366   0.328   6.302 -0.1731  0.1643 -0.4911
   38POPC   O12 5061   6.527   0.490   6.403  0.2212 -0.2976  0.0727
   38POPC   O11 5062   6.446   0.274   6.522 -0.3823  0.6142  0.3082
   38POPC    C1 5063   6.361   0.350   6.609  0.0171 -0.2906 -0.0051
   38POPC    HA 5064   6.265   0.370   6.555 -0.3794  1.3869  1.2549
   38POPC    HB 5065   6.395   0.452   6.634 -0.2472  0.3830 -2.1298
   38POPC    C2 5066   6.341   0.279   6.756  0.2625  0.1448 -0.1234
   38POPC    HS 5067   6.443   0.252   6.791  0.0548 -1.1639 -0.4733
   38POPC   O21 5068   6.267   0.156   6.734 -0.1310  0.0664  0.0291
   38POPC   C21 5069   6.319   0.044   6.791 -0.1563 -0.2950  0.3477
   38POPC   O22 5070   6.430   0.035   6.843 -0.2266 -0.5092  0.1399
   38POPC   C22 5071   6.225  -0.074   6.753 -0.1984  0.0240  0.5696
   38POPC   H2R 5072   6.248  -0.086   6.645  0.8268  0.3366  0.7427
   38POPC   H2S 5073   6.122  -0.039   6.772 -0.9272 -2.2249  1.0307
   38POPC    C3 5074   6.277   0.367   6.869  0.3193 -0.1562  0.1556
   38POPC    HX 5075   6.170   0.377   6.841  0.0773 -1.2210  0.6649
   38POPC    HY 5076   6.313   0.472   6.875 -1.9610  1.0178 -3.6050
   38POPC   O31 5077   6.302   0.287   6.989 -0.6502  0.8387  0.2201
   38POPC   C31 5078   6.199   0.252   7.061  0.3876 -0.4204  1.0013
   38POPC   O32 5079   6.087   0.292   7.045  0.1033  0.3734 -0.2603
   38POPC   C32 5080   6.252   0.173   7.186 -0.1600 -0.4236  0.4272
   38POPC   H2X 5081   6.350   0.211   7.221 -0.1195 -0.9676  0.9206
   38POPC   H2Y 5082   6.269   0.067   7.157 -2.9785 -0.4529 -1.4522
   38POPC   C23 5083   6.255  -0.207   6.835 -0.2294 -0.6609  0.9848
   38POPC   H3R 5084   6.359  -0.212   6.874  0.8255  0.4055 -1.4554
   38POPC   H3S 5085   6.234  -0.291   6.766  1.1011  0.5367 -0.9645
   38POPC   C24 5086   6.164  -0.216   6.960 -0.5252  0.0676 -0.1742
   38POPC   H4R 5087   6.060  -0.217   6.922 -0.5320  0.5752 -0.1711
   38POPC   H4S 5088   6.194  -0.135   7.030  1.1312 -0.4678 -0.2215
   38POPC   C25 5089   6.190  -0.346   7.036 -0.0042  0.2724 -0.3279
   38POPC   H5R 5090   6.299  -0.362   7.052 -0.3763 -0.6073  1.5067
   38POPC   H5S 5091   6.171  -0.438   6.977  0.1225 -0.0925  0.2004
   38POPC   C26 5092   6.123  -0.365   7.169 -0.5071 -0.0909 -0.2509
   38POPC   H6R 5093   6.016  -0.391   7.155  0.0093 -1.7560 -1.5006
   38POPC   H6S 5094   6.123  -0.272   7.230 -0.1382 -0.1862 -0.1029
   38POPC   C27 5095   6.181  -0.478   7.256  0.3597 -0.4629 -0.4403
   38POPC   H7R 5096   6.291  -0.465   7.256  0.1456  1.8348 -0.3678
   38POPC   H7S 5097   6.155  -0.576   7.211 -1.5812 -1.0765  1.7759
   38POPC   C28 5098   6.133  -0.473   7.402 -0.0573 -0.0856 -0.1726
   38POPC   H8R 5099   6.023  -0.488   7.411 -0.2670  1.7429  0.9180
   38POPC   H8S 5100   6.146  -0.367   7.434 -0.8737 -0.0883  0.1981
   38POPC   C29 5101   6.202  -0.569   7.497  0.4172  0.2539 -0.4489
   38POPC   H91 5102   6.233  -0.658   7.440  0.5166  0.8146 -1.2844
   38POPC  C210 5103   6.214  -0.558   7.631  0.0825 -0.4657  0.0774
   38POPC  H101 5104   6.255  -0.641   7.690 -0.3507 -0.7922 -0.0776
   38POPC  C211 5105   6.159  -0.444   7.719 -0.0636  0.6401  0.0508
   38POPC  H11R 5106   6.177  -0.352   7.660  1.8777 -1.0997 -2.2554
   38POPC  H11S 5107   6.216  -0.449   7.814  1.1545 -1.8844 -0.7121
   38POPC  C212 5108   6.011  -0.441   7.758  0.1590 -0.2121  0.0848
   38POPC  H12R 5109   5.948  -0.484   7.677 -0.1298  0.1696  0.1087
   38POPC  H12S 5110   5.975  -0.337   7.771  1.9240  0.3933  0.4284
   38POPC  C213 5111   5.983  -0.521   7.881  0.0413 -0.3297 -0.8323
   38POPC  H13R 5112   6.022  -0.621   7.855 -2.3565 -1.8323  0.8725
   38POPC  H13S 5113   5.873  -0.537   7.892  0.1071 -1.2929 -1.4798
   38POPC  C214 5114   6.026  -0.458   8.014  0.7514  0.0697  0.6725
   38POPC  H14R 5115   5.970  -0.367   8.044  0.4348 -0.4630  1.7425
   38POPC  H14S 5116   6.130  -0.418   8.017  0.9610 -0.5152  1.2710
   38POPC  C215 5117   6.024  -0.555   8.138  0.4402 -0.4875 -1.1985
   38POPC  H15R 5118   6.068  -0.654   8.109  0.1797 -0.6471 -1.0504
   38POPC  H15S 5119   5.921  -0.570   8.176  0.3952  1.9375 -0.2164
   38POPC  C216 5120   6.111  -0.494   8.257  0.3455 -0.2767  0.2904
   38POPC  H16R 5121   6.074  -0.393   8.284  0.2036 -0.7157  1.8634
   38POPC  H16S 5122   6.214  -0.496   8.216 -0.0827 -0.3515 -0.8127
   38POPC  C217 5123   6.111  -0.586   8.381  0.0013 -0.3253 -0.2739
   38POPC  H17R 5124   6.112  -0.691   8.346 -0.0813  0.4814 -2.8722
   38POPC  H17S 5125   6.011  -0.566   8.426  0.0096 -0.6887 -0.0857
   38POPC  C218 5126   6.211  -0.554   8.487 -0.3023  0.4304  0.7941
   38POPC  H18R 5127   6.303  -0.513   8.439 -1.5478  0.6596 -1.5499
   38POPC  H18S 5128   6.237  -0.634   8.560  1.8362  2.2949  2.2224
   38POPC  H18T 5129   6.169  -0.472   8.550 -1.3146  0.5543 -0.0143
   38POPC   C33 5130   6.155   0.184   7.300 -0.8135  0.8033 -0.5116
   38POPC   H3X 5131   6.053   0.145   7.277 -0.7624  0.9223 -0.9447
   38POPC   H3Y 5132   6.141   0.288   7.334 -0.9248  0.4186  0.6823
   38POPC   C34 5133   6.203   0.097   7.419  0.0413 -0.2273 -0.2041
   38POPC   H4X 5134   6.312   0.079   7.410  0.5420  1.6852  1.3081
   38POPC   H4Y 5135   6.157  -0.003   7.427 -0.1239 -0.7887 -5.0209
   38POPC   C35 5136   6.181   0.161   7.560  1.4107 -0.1598  0.8392
   38POPC   H5X 5137   6.072   0.168   7.579  1.2390 -1.6642  0.5216
   38POPC   H5Y 5138   6.205   0.270   7.561 -2.1572  0.7681  0.1589
   38POPC   C36 5139   6.237   0.092   7.676 -0.6109  0.4396  0.2737
   38POPC   H6X 5140   6.345   0.073   7.657 -1.1290 -1.2031 -1.3991
   38POPC   H6Y 5141   6.188  -0.007   7.687 -1.0476  0.7649  1.3417
   38POPC   C37 5142   6.236   0.160   7.809  0.5058 -0.4171 -0.9177
   38POPC   H7X 5143   6.135   0.185   7.848  1.8320  1.1583  1.9024
   38POPC   H7Y 5144   6.279   0.262   7.799 -0.0598  0.1959  1.8907
   38POPC   C38 5145   6.307   0.083   7.921  0.3596 -0.8181 -0.2640
   38POPC   H8X 5146   6.417   0.084   7.907  0.4443 -1.8926  0.1946
   38POPC   H8Y 5147   6.274  -0.023   7.923  0.5141 -0.8495  0.9562
   38POPC   C39 5148   6.269   0.153   8.052 -0.4904  0.1380  0.3064
   38POPC   H9X 5149   6.160   0.140   8.070 -0.5931 -0.2232 -0.5259
   38POPC   H9Y 5150   6.301   0.259   8.046 -0.3282  0.4494  4.4033
   38POPC  C310 5151   6.340   0.094   8.173 -0.8504  0.5842  0.7663
   38POPC  H10X 5152   6.449   0.117   8.168 -0.6909 -0.2499  0.2686
   38POPC  H10Y 5153   6.320  -0.015   8.165 -1.4789  0.6159  1.7559
   38POPC  C311 5154   6.290   0.142   8.308 -0.1463 -0.0627 -0.6174
   38POPC  H11X 5155   6.182   0.117   8.309  0.0705 -1.0867 -1.2268
   38POPC  H11Y 5156   6.307   0.251   8.320 -0.2392 -0.1470  0.3092
   38POPC  C312 5157   6.358   0.075   8.428  0.0325 -0.4094 -0.1092
   38POPC  H12X 5158   6.466   0.098   8.436 -0.4443  1.3433  3.4635
   38POPC  H12Y 5159   6.346  -0.033   8.406  0.5090 -0.0221 -2.5456
   38POPC  C313 5160   6.297   0.123   8.562 -0.0889 -0.1736 -0.1510
   38POPC  H13X 5161   6.332   0.053   8.640 -0.1586 -0.0933 -0.0479
   38POPC  H13Y 5162   6.187   0.114   8.557 -0.2751  1.1575  0.9839
   38POPC  C314 5163   6.312   0.274   8.603 -0.8336 -0.3160  0.0744
   38POPC  H14X 5164   6.243   0.322   8.530 -0.8536 -1.8234 -0.9581
   38POPC  H14Y 5165   6.414   0.302   8.571 -0.0068 -3.5395 -0.4531
   38POPC  C315 5166   6.266   0.306   8.743  0.1259  0.3928 -0.9017
   38POPC  H15X 5167   6.156   0.289   8.752  0.1942  0.8338  1.3077
   38POPC  H15Y 5168   6.276   0.415   8.762 -1.3316  0.5315 -0.7717
   38POPC  C316 5169   6.341   0.223   8.847 -0.0136 -0.0474 -0.0117
   38POPC  H16X 5170   6.326   0.270   8.947 -1.6404  2.4732 -1.3540
   38POPC  H16Y 5171   6.451   0.209   8.845  0.1278 -0.2487  3.2604
   38POPC  H16Z 5172   6.283   0.128   8.855 -1.0515  0.5944  0.4002
   39POPC     N 5173   1.924   3.725   6.028  0.3439  0.0427 -0.6573
   39POPC   C12 5174   1.923   3.712   6.184  0.3445  0.1795  0.1382
   39POPC  H12A 5175   1.990   3.786   6.227  0.1245  0.9626 -0.8219
   39POPC  H12B 5176   1.964   3.614   6.205  1.3577  0.2375 -1.3346
   39POPC   C13 5177   2.075   3.693   5.982  0.2913  0.1066  0.5499
   39POPC  H13A 5178   2.104   3.598   6.024 -0.9375 -0.1471  0.8828
   39POPC  H13B 5179   2.064   3.698   5.875  0.5621  0.6359  0.5424
   39POPC  H13C 5180   2.144   3.766   6.021  1.7382 -0.2015 -1.3339
   39POPC   C14 5181   1.828   3.629   5.972 -0.6614 -0.1807 -0.8372
   39POPC  H14A 5182   1.734   3.682   5.980  0.9111  2.4729  2.4736
   39POPC  H14B 5183   1.836   3.601   5.869 -2.3472 -0.1771 -1.0097
   39POPC  H14C 5184   1.825   3.546   6.043 -2.3028  1.6842  1.4475
   39POPC   C15 5185   1.896   3.864   5.980  0.0669  0.1461  0.0749
   39POPC  H15A 5186   1.939   3.888   5.884  1.2538  0.1270  0.5902
   39POPC  H15B 5187   1.940   3.937   6.045 -0.9665  0.3657  0.5532
   39POPC  H15C 5188   1.791   3.890   5.977 -0.0906 -0.4154  0.4821
   39POPC   C11 5189   1.785   3.731   6.246 -0.5065 -0.5853 -0.1827
   39POPC  H11A 5190   1.761   3.833   6.211  0.5042  0.3963  1.8238
   39POPC  H11B 5191   1.802   3.729   6.356  2.6264  0.1811 -0.5483
   39POPC     P 5192   1.539   3.670   6.222 -0.3935 -0.0318 -0.2952
   39POPC   O13 5193   1.456   3.551   6.201  0.4028  0.1952  0.4267
   39POPC   O14 5194   1.515   3.785   6.130 -0.2496  0.9795 -0.8948
   39POPC   O12 5195   1.694   3.627   6.209  0.2467  0.2434 -0.0412
   39POPC   O11 5196   1.522   3.725   6.370  0.1759 -0.2085  0.0315
   39POPC    C1 5197   1.555   3.658   6.487 -0.1802  0.1353 -0.4336
   39POPC    HA 5198   1.661   3.626   6.482 -0.4013 -0.7798  0.4272
   39POPC    HB 5199   1.490   3.568   6.493 -1.4507  1.0691  0.2245
   39POPC    C2 5200   1.548   3.745   6.613  0.0973 -0.2936  0.9225
   39POPC    HS 5201   1.578   3.684   6.701  3.0892  0.7621  0.7525
   39POPC   O21 5202   1.415   3.797   6.625 -0.5703 -0.7720 -0.0976
   39POPC   C21 5203   1.328   3.709   6.667 -0.1874 -0.2035  0.7754
   39POPC   O22 5204   1.348   3.587   6.683  0.4233 -0.5153  0.2706
   39POPC   C22 5205   1.194   3.777   6.679  0.2629  0.0283 -0.5740
   39POPC   H2R 5206   1.122   3.712   6.625 -0.3141 -0.2385  0.4803
   39POPC   H2S 5207   1.216   3.875   6.632  1.8271  0.7701  1.5355
   39POPC    C3 5208   1.641   3.866   6.597 -0.1106 -0.1639 -0.5511
   39POPC    HX 5209   1.598   3.922   6.511 -1.7463  0.4990  0.6532
   39POPC    HY 5210   1.742   3.834   6.564 -0.5721  0.4615 -2.7681
   39POPC   O31 5211   1.639   3.947   6.717 -0.8956 -0.6034 -0.0556
   39POPC   C31 5212   1.718   4.048   6.719  0.3060 -0.3563  0.2315
   39POPC   O32 5213   1.785   4.089   6.625  0.3491 -0.2363  0.5343
   39POPC   C32 5214   1.718   4.094   6.867 -0.1558  1.0023  0.3839
   39POPC   H2X 5215   1.610   4.096   6.893 -0.7599  2.1904 -1.9382
   39POPC   H2Y 5216   1.771   4.017   6.927 -0.5976  2.0381  2.1456
   39POPC   C23 5217   1.153   3.786   6.831 -0.1369  0.1402 -0.0382
   39POPC   H3R 5218   1.147   3.679   6.861 -1.4316 -0.4886 -2.3370
   39POPC   H3S 5219   1.052   3.832   6.827  0.4843  1.5804  0.2318
   39POPC   C24 5220   1.246   3.866   6.922  0.2146 -0.5842  0.1734
   39POPC   H4R 5221   1.242   3.975   6.899 -2.1856 -0.8739 -1.0884
   39POPC   H4S 5222   1.348   3.823   6.914  0.5084  0.3233 -1.2785
   39POPC   C25 5223   1.222   3.853   7.074 -0.3198  0.3526  0.6135
   39POPC   H5R 5224   1.277   3.926   7.137 -0.7518  2.2116 -1.0880
   39POPC   H5S 5225   1.233   3.746   7.103  1.1403  0.1926 -0.4349
   39POPC   C26 5226   1.067   3.869   7.113 -0.2753 -1.1254 -0.3354
   39POPC   H6R 5227   1.006   3.798   7.052 -0.9849 -1.6951  0.9994
   39POPC   H6S 5228   1.049   3.974   7.083 -0.2260 -0.2655  2.3992
   39POPC   C27 5229   1.027   3.835   7.259  0.2362  0.1235  0.2821
   39POPC   H7R 5230   1.091   3.753   7.297  1.3303 -0.0147 -1.6908
   39POPC   H7S 5231   0.928   3.785   7.264 -0.8271  2.2008  1.0533
   39POPC   C28 5232   1.014   3.961   7.350 -0.2534  0.2460  0.7466
   39POPC   H8R 5233   0.951   4.038   7.301 -0.6891 -1.1861 -1.0844
   39POPC   H8S 5234   1.117   4.002   7.358  0.3240 -1.2570  1.3863
   39POPC   C29 5235   0.950   3.930   7.479 -0.3366 -0.0197  0.1065
   39POPC   H91 5236   0.841   3.948   7.473 -0.1727  0.9412 -0.0688
   39POPC  C210 5237   1.005   3.901   7.599  0.4279  0.0115 -0.2490
   39POPC  H101 5238   0.925   3.876   7.670  1.4439 -1.0535  0.5654
   39POPC  C211 5239   1.146   3.868   7.644  0.0114  0.4911  0.1108
   39POPC  H11R 5240   1.219   3.896   7.566 -1.9751  3.2488 -0.8972
   39POPC  H11S 5241   1.170   3.760   7.657  0.1751  0.5320  0.1452
   39POPC  C212 5242   1.190   3.939   7.771 -0.0274  0.2912  0.5191
   39POPC  H12R 5243   1.156   4.045   7.763 -0.2380  0.1275 -1.1148
   39POPC  H12S 5244   1.301   3.942   7.776  0.0037  1.6060 -0.3351
   39POPC  C213 5245   1.138   3.878   7.902  0.4630  0.2725  0.0875
   39POPC  H13R 5246   1.130   3.767   7.907 -0.5919  0.3682  0.9640
   39POPC  H13S 5247   1.033   3.910   7.915  0.4504  0.8686 -1.2735
   39POPC  C214 5248   1.208   3.913   8.029 -0.3667 -0.8521 -1.0548
   39POPC  H14R 5249   1.143   3.897   8.117 -1.8614  2.5678 -1.3790
   39POPC  H14S 5250   1.223   4.023   8.020 -1.4471 -0.4289  1.5023
   39POPC  C215 5251   1.335   3.835   8.050 -0.2904  0.8293 -0.2902
   39POPC  H15R 5252   1.405   3.873   7.973  1.7438  2.3672  2.1733
   39POPC  H15S 5253   1.328   3.727   8.026  1.3567  1.1015 -2.3130
   39POPC  C216 5254   1.415   3.856   8.176  0.0423  0.2640  0.5072
   39POPC  H16R 5255   1.506   3.800   8.144  0.9989  1.8749  0.3077
   39POPC  H16S 5256   1.380   3.799   8.265 -0.4584 -0.3260 -0.0539
   39POPC  C217 5257   1.447   4.003   8.217  0.1485  0.3914 -0.3613
   39POPC  H17R 5258   1.501   4.004   8.315 -1.0982  0.9671  0.3392
   39POPC  H17S 5259   1.354   4.061   8.234  0.0502  0.0547  0.3175
   39POPC  C218 5260   1.531   4.077   8.114 -0.7465  0.8499  0.4748
   39POPC  H18R 5261   1.628   4.025   8.101  0.2646  2.4976  1.1352
   39POPC  H18S 5262   1.540   4.184   8.142  0.8758  0.6162  0.9750
   39POPC  H18T 5263   1.480   4.076   8.016  0.3200  1.1585 -0.0940
   39POPC   C33 5264   1.769   4.236   6.897 -0.5500 -0.7966  0.0233
   39POPC   H3X 5265   1.754   4.315   6.820  3.4426 -0.0170 -0.1890
   39POPC   H3Y 5266   1.878   4.233   6.920 -0.3327 -1.7062 -1.0417
   39POPC   C34 5267   1.697   4.293   7.020  0.6636 -0.3465 -0.1684
   39POPC   H4X 5268   1.592   4.311   6.988  0.5498 -0.2603  0.2447
   39POPC   H4Y 5269   1.750   4.385   7.055 -0.3920 -0.6109  2.3196
   39POPC   C35 5270   1.691   4.202   7.146  0.1362 -0.5233  0.5519
   39POPC   H5X 5271   1.799   4.190   7.168  0.8930  0.0359 -2.3462
   39POPC   H5Y 5272   1.647   4.100   7.137  0.3591 -0.7259  1.7107
   39POPC   C36 5273   1.639   4.281   7.262 -0.1697  0.2474  0.1947
   39POPC   H6X 5274   1.535   4.317   7.250  0.0985  1.8913  2.3280
   39POPC   H6Y 5275   1.691   4.379   7.263 -0.4847  0.4843 -1.8412
   39POPC   C37 5276   1.656   4.207   7.393 -1.0567 -0.9631  0.2391
   39POPC   H7X 5277   1.764   4.202   7.417 -1.1489 -2.1086  0.4804
   39POPC   H7Y 5278   1.633   4.100   7.372  1.0203 -1.4547  0.2956
   39POPC   C38 5279   1.563   4.262   7.503  0.8771 -0.0040  0.4474
   39POPC   H8X 5280   1.459   4.242   7.470  1.1769 -0.4672 -0.2459
   39POPC   H8Y 5281   1.585   4.369   7.488  0.5395  0.0373  0.2598
   39POPC   C39 5282   1.589   4.220   7.645  0.8763 -0.4660  0.3129
   39POPC   H9X 5283   1.687   4.271   7.657  0.1695  1.3586 -1.2134
   39POPC   H9Y 5284   1.599   4.109   7.652  0.2974 -0.5233  0.2468
   39POPC  C310 5285   1.489   4.266   7.749 -0.2611  0.0564  0.6002
   39POPC  H10X 5286   1.425   4.177   7.768 -0.8399 -0.8766 -4.3847
   39POPC  H10Y 5287   1.427   4.337   7.692  0.2959  0.1885  0.1471
   39POPC  C311 5288   1.554   4.340   7.866 -0.1944 -0.0967 -0.7853
   39POPC  H11X 5289   1.624   4.412   7.819 -0.5681 -0.4459 -1.9145
   39POPC  H11Y 5290   1.611   4.279   7.939 -0.0404  0.4398 -0.4582
   39POPC  C312 5291   1.450   4.413   7.954 -0.1436  0.2572 -0.7133
   39POPC  H12X 5292   1.390   4.331   7.997 -1.2845  1.1054 -0.6292
   39POPC  H12Y 5293   1.378   4.476   7.897 -1.3093  1.0216  1.4657
   39POPC  C313 5294   1.509   4.500   8.064 -0.2053 -0.8261 -0.0981
   39POPC  H13X 5295   1.572   4.442   8.135  1.1518  2.5402  1.6500
   39POPC  H13Y 5296   1.426   4.546   8.121  2.5837  1.6610  2.2535
   39POPC  C314 5297   1.604   4.615   8.017  0.1928 -0.4820  0.7737
   39POPC  H14X 5298   1.548   4.678   7.945  0.9332  0.2338  0.8152
   39POPC  H14Y 5299   1.684   4.570   7.954  0.1645 -1.0990  1.1634
   39POPC  C315 5300   1.666   4.696   8.132  0.2673  0.2614 -0.0079
   39POPC  H15X 5301   1.730   4.626   8.189 -2.1366 -1.7572  0.3894
   39POPC  H15Y 5302   1.576   4.732   8.185 -0.3705 -0.2827 -0.6954
   39POPC  C316 5303   1.743   4.811   8.068 -0.4520 -0.7539 -0.2252
   39POPC  H16X 5304   1.795   4.880   8.139 -2.6186  1.9383 -1.1116
   39POPC  H16Y 5305   1.677   4.887   8.022 -0.8299  0.5362  2.2347
   39POPC  H16Z 5306   1.822   4.772   8.000 -0.5351  0.0677 -0.8078
   40POPC     N 5307   1.712   0.217   6.354 -0.6389  0.0298  0.1184
   40POPC   C12 5308   1.745   0.113   6.462  0.2191  0.3006 -0.6977
   40POPC  H12A 5309   1.661   0.093   6.526  0.9648  0.7859  0.4630
   40POPC  H12B 5310   1.832   0.154   6.511  3.2116 -1.9015 -3.7445
   40POPC   C13 5311   1.840   0.251   6.284  0.7177 -0.0159 -0.2312
   40POPC  H13A 5312   1.921   0.265   6.354  1.2570 -2.0228 -0.3886
   40POPC  H13B 5313   1.867   0.168   6.220 -0.2606 -2.0816  1.8833
   40POPC  H13C 5314   1.817   0.331   6.216  0.3795 -0.0262 -0.1278
   40POPC   C14 5315   1.599   0.176   6.265  0.0977 -0.1766  0.1387
   40POPC  H14A 5316   1.594   0.240   6.178 -1.6896  3.2780  2.5401
   40POPC  H14B 5317   1.618   0.074   6.236  0.9135 -0.3948  1.3437
   40POPC  H14C 5318   1.507   0.172   6.322  0.5453 -3.1387  0.8046
   40POPC   C15 5319   1.666   0.337   6.431  0.1307 -0.1733 -0.5655
   40POPC  H15A 5320   1.590   0.391   6.376 -1.3406 -1.8829 -0.3214
   40POPC  H15B 5321   1.752   0.397   6.455 -0.5552 -0.1223  2.0691
   40POPC  H15C 5322   1.617   0.301   6.520  0.8227  0.9425  0.2723
   40POPC   C11 5323   1.784  -0.023   6.406  1.0304  0.1517 -0.2543
   40POPC  H11A 5324   1.806  -0.097   6.486  0.7555 -0.8223 -1.0442
   40POPC  H11B 5325   1.880  -0.011   6.351  1.5729 -0.6573  0.4910
   40POPC     P 5326   1.559  -0.151   6.370  0.0046  0.3610  0.0526
   40POPC   O13 5327   1.574  -0.301   6.355 -0.4078 -0.5634  0.1210
   40POPC   O14 5328   1.447  -0.086   6.295  0.2613 -0.2838  0.2622
   40POPC   O12 5329   1.691  -0.086   6.316  0.0402 -0.4586 -0.2104
   40POPC   O11 5330   1.542  -0.108   6.522  0.1857  0.0491  0.1288
   40POPC    C1 5331   1.476  -0.179   6.624 -0.3774 -0.2067  0.0700
   40POPC    HA 5332   1.515  -0.283   6.634 -1.0336 -0.3971  0.7413
   40POPC    HB 5333   1.372  -0.193   6.587 -0.3355  0.5731 -0.3573
   40POPC    C2 5334   1.480  -0.095   6.755  0.2590  0.7394 -0.1540
   40POPC    HS 5335   1.587  -0.066   6.756  0.1999  0.9388  0.3465
   40POPC   O21 5336   1.443  -0.171   6.872 -0.2956 -0.1517 -0.1803
   40POPC   C21 5337   1.521  -0.150   6.983  0.0354 -0.1003  0.9671
   40POPC   O22 5338   1.628  -0.092   6.984  0.1650  0.1721  0.0340
   40POPC   C22 5339   1.461  -0.225   7.098  0.7889  0.2740  0.1048
   40POPC   H2R 5340   1.360  -0.263   7.068  0.2466  2.0600 -0.4812
   40POPC   H2S 5341   1.443  -0.152   7.180 -1.6213  0.1971 -0.2599
   40POPC    C3 5342   1.390   0.031   6.743 -0.4505 -0.8386  0.0354
   40POPC    HX 5343   1.288  -0.010   6.731 -0.3884 -1.0572  0.2451
   40POPC    HY 5344   1.413   0.090   6.652  0.8781  2.8471  2.5325
   40POPC   O31 5345   1.397   0.114   6.863 -0.1253 -0.7175 -0.1426
   40POPC   C31 5346   1.516   0.173   6.881  0.1634 -0.0332 -0.7308
   40POPC   O32 5347   1.600   0.187   6.796  0.1203  0.2643 -0.0772
   40POPC   C32 5348   1.513   0.227   7.025 -0.0958 -0.0841  0.6035
   40POPC   H2X 5349   1.611   0.276   7.044 -0.0117 -0.5401  1.3447
   40POPC   H2Y 5350   1.505   0.137   7.090 -1.1234 -0.4346  0.0294
   40POPC   C23 5351   1.556  -0.346   7.136 -0.1591 -0.3448  0.4560
   40POPC   H3R 5352   1.661  -0.310   7.144 -0.8658  1.4723  2.4000
   40POPC   H3S 5353   1.556  -0.429   7.063 -1.7203 -0.2238  0.2805
   40POPC   C24 5354   1.506  -0.409   7.269 -0.6830  0.1342  0.1230
   40POPC   H4R 5355   1.397  -0.396   7.284 -0.7608 -0.7707  0.4498
   40POPC   H4S 5356   1.544  -0.354   7.357 -0.5483 -0.9940  0.7882
   40POPC   C25 5357   1.534  -0.565   7.275 -0.2563  0.3020 -0.0744
   40POPC   H5R 5358   1.643  -0.579   7.258 -0.0200 -0.2120  1.7077
   40POPC   H5S 5359   1.477  -0.609   7.190 -0.7433 -0.9994  0.8977
   40POPC   C26 5360   1.492  -0.621   7.415  0.3288  0.1995  0.1458
   40POPC   H6R 5361   1.556  -0.581   7.497  0.6721 -0.6658  0.3043
   40POPC   H6S 5362   1.517  -0.729   7.413 -0.7360 -0.0753 -2.2210
   40POPC   C27 5363   1.340  -0.607   7.442  0.1370  0.4537  0.6717
   40POPC   H7R 5364   1.291  -0.697   7.399  0.5733 -1.2786  3.5825
   40POPC   H7S 5365   1.293  -0.515   7.401  0.3467 -0.4362 -1.7662
   40POPC   C28 5366   1.295  -0.628   7.588  0.5515  0.4995  0.0261
   40POPC   H8R 5367   1.334  -0.724   7.628 -2.3992 -0.6268  0.4216
   40POPC   H8S 5368   1.184  -0.626   7.586  0.5257 -0.8612 -0.8558
   40POPC   C29 5369   1.342  -0.519   7.686  0.2824  0.1563  0.3783
   40POPC   H91 5370   1.341  -0.415   7.649  0.3307 -0.0293 -0.1659
   40POPC  C210 5371   1.397  -0.539   7.803  0.1769 -0.2581 -0.0472
   40POPC  H101 5372   1.427  -0.456   7.870 -3.5981  0.7532  0.6397
   40POPC  C211 5373   1.424  -0.671   7.869  0.1078 -0.1856 -0.2112
   40POPC  H11R 5374   1.517  -0.715   7.827  0.1323  0.9886 -1.4804
   40POPC  H11S 5375   1.339  -0.742   7.857  0.2064 -0.4191  0.4261
   40POPC  C212 5376   1.443  -0.655   8.019 -0.2616 -0.9049  0.9590
   40POPC  H12R 5377   1.358  -0.597   8.061  0.4988 -0.4024  1.8340
   40POPC  H12S 5378   1.526  -0.587   8.049 -0.3604 -0.7776  0.9464
   40POPC  C213 5379   1.452  -0.789   8.099  0.3366 -0.3781 -0.9284
   40POPC  H13R 5380   1.540  -0.845   8.060  2.5887  1.9547  0.4916
   40POPC  H13S 5381   1.359  -0.846   8.076  0.4145 -0.6449 -0.5763
   40POPC  C214 5382   1.474  -0.771   8.246  0.2525 -0.8400 -0.0952
   40POPC  H14R 5383   1.507  -0.665   8.256  0.9001 -1.0243 -0.2572
   40POPC  H14S 5384   1.548  -0.842   8.286 -0.1831 -1.3378 -0.1639
   40POPC  C215 5385   1.344  -0.779   8.339 -0.3570 -0.0398  0.3114
   40POPC  H15R 5386   1.279  -0.695   8.308  0.8885  1.0856  0.6587
   40POPC  H15S 5387   1.367  -0.762   8.446 -0.1741  0.6796  0.1601
   40POPC  C216 5388   1.269  -0.914   8.335 -0.3043  0.4414  0.4798
   40POPC  H16R 5389   1.227  -0.933   8.235  1.9843 -2.5207 -0.0423
   40POPC  H16S 5390   1.184  -0.916   8.407  0.5713  0.8331  1.5682
   40POPC  C217 5391   1.349  -1.038   8.380 -0.5742 -0.2015  0.1032
   40POPC  H17R 5392   1.386  -1.018   8.483  0.7005 -2.7598  0.2286
   40POPC  H17S 5393   1.439  -1.058   8.318  1.0273 -2.2984  2.8519
   40POPC  C218 5394   1.261  -1.166   8.385 -0.3604 -0.3756  0.8012
   40POPC  H18R 5395   1.236  -1.208   8.285  0.2815  1.1968 -0.0442
   40POPC  H18S 5396   1.161  -1.134   8.422 -1.7235 -2.5611 -0.7163
   40POPC  H18T 5397   1.307  -1.243   8.450  2.0288  1.7572  1.8053
   40POPC   C33 5398   1.398   0.324   7.040 -0.1142  0.4168  0.3751
   40POPC   H3X 5399   1.299   0.284   7.010  0.9853 -1.7188 -0.5768
   40POPC   H3Y 5400   1.425   0.407   6.971 -0.1053 -0.2647 -0.4521
   40POPC   C34 5401   1.389   0.386   7.180 -0.2727  0.1911 -0.3126
   40POPC   H4X 5402   1.355   0.490   7.162  1.5025  0.3314 -3.6596
   40POPC   H4Y 5403   1.487   0.389   7.233 -1.0916 -1.8732  1.4567
   40POPC   C35 5404   1.283   0.310   7.269  0.3619 -0.4694 -1.1621
   40POPC   H5X 5405   1.328   0.214   7.303 -1.3310 -0.3450  1.8443
   40POPC   H5Y 5406   1.184   0.290   7.221 -1.3899 -1.6860  2.5565
   40POPC   C36 5407   1.254   0.409   7.386  0.2073 -0.5854 -0.2610
   40POPC   H6X 5408   1.197   0.492   7.339  0.7112  1.7852  3.0008
   40POPC   H6Y 5409   1.352   0.441   7.429 -0.3357 -0.1171  0.6558
   40POPC   C37 5410   1.169   0.344   7.492 -0.5889 -0.4672 -0.4741
   40POPC   H7X 5411   1.156   0.412   7.578  1.3709 -0.6237 -0.0066
   40POPC   H7Y 5412   1.226   0.253   7.525 -1.1527 -1.2179 -1.5212
   40POPC   C38 5413   1.022   0.325   7.458 -0.7832 -0.2580  0.3373
   40POPC   H8X 5414   0.983   0.258   7.539 -1.1550  2.4512  2.5335
   40POPC   H8Y 5415   1.009   0.265   7.365  0.0702  1.4272 -0.9170
   40POPC   C39 5416   0.934   0.450   7.444 -0.5491 -0.3690 -0.1508
   40POPC   H9X 5417   0.953   0.506   7.350 -1.8560 -0.6994 -0.6409
   40POPC   H9Y 5418   0.969   0.517   7.525 -2.1537 -0.0713  0.3364
   40POPC  C310 5419   0.781   0.433   7.478 -0.0738 -0.1635  0.0981
   40POPC  H10X 5420   0.743   0.524   7.528 -0.2241 -1.2000  1.9502
   40POPC  H10Y 5421   0.780   0.338   7.537  3.1526 -1.1577 -1.1710
   40POPC  C311 5422   0.711   0.408   7.345  0.8723  0.2270  0.2219
   40POPC  H11X 5423   0.610   0.365   7.365  1.0946 -1.0111 -1.1142
   40POPC  H11Y 5424   0.766   0.331   7.287 -1.2516  0.9148 -2.9607
   40POPC  C312 5425   0.687   0.527   7.251 -0.8681 -0.3935 -0.0795
   40POPC  H12X 5426   0.778   0.584   7.224 -2.7408  2.3322 -1.1768
   40POPC  H12Y 5427   0.620   0.586   7.318  1.1293 -0.2542  1.8999
   40POPC  C313 5428   0.615   0.487   7.127 -0.2650 -0.1627  0.3370
   40POPC  H13X 5429   0.540   0.414   7.164 -0.1477  0.2735  1.4836
   40POPC  H13Y 5430   0.688   0.429   7.065  0.5181  1.2955 -0.1510
   40POPC  C314 5431   0.565   0.600   7.039 -0.3798 -0.5299  0.2098
   40POPC  H14X 5432   0.651   0.666   7.016 -1.5747  0.7097 -0.8355
   40POPC  H14Y 5433   0.500   0.665   7.103  0.3066  0.3099  0.0649
   40POPC  C315 5434   0.488   0.547   6.918  0.2893 -0.2876 -1.3492
   40POPC  H15X 5435   0.434   0.637   6.880  1.2372  2.3371  2.8541
   40POPC  H15Y 5436   0.430   0.459   6.954  1.2222 -2.1832 -4.1170
   40POPC  C316 5437   0.575   0.489   6.799  0.4846  0.5228 -0.8394
   40POPC  H16X 5438   0.515   0.429   6.728 -0.1865  1.3441 -0.9912
   40POPC  H16Y 5439   0.653   0.420   6.838  0.5902  0.9985 -0.1789
   40POPC  H16Z 5440   0.630   0.573   6.752  0.3223  1.1816  0.1021
   41CHL1    C3 5441   5.043   3.069  10.167 -0.5596  0.7820 -0.2001
   41CHL1    H3 5442   4.942   3.022  10.175 -1.5500  2.1042 -3.3394
   41CHL1    O3 5443   5.102   3.087  10.295 -0.3015  0.0364  0.0066
   41CHL1   H3' 5444   5.178   3.141  10.273 -0.4522  0.5941  0.8299
   41CHL1    C4 5445   5.132   2.998  10.070 -0.9886  0.5099  0.7321
   41CHL1   H4A 5446   5.220   3.066  10.063 -1.0576  0.5054 -0.3255
   41CHL1   H4B 5447   5.164   2.895  10.096  0.1033 -0.1469 -2.6957
   41CHL1    C5 5448   5.059   2.985   9.933 -1.1151  0.4409  0.0291
   41CHL1    C6 5449   5.044   2.872   9.861 -0.7078  0.0929 -0.8523
   41CHL1    H6 5450   5.090   2.775   9.886 -0.1456  0.7746  0.8528
   41CHL1    C7 5451   4.985   2.857   9.726  0.1799  0.1481 -0.0683
   41CHL1   H7A 5452   5.042   2.785   9.663 -0.8239 -0.4675 -0.2896
   41CHL1   H7B 5453   4.885   2.810   9.737  0.4411 -0.5423 -0.5407
   41CHL1    C8 5454   4.974   2.995   9.661 -0.0488  0.5035 -0.6224
   41CHL1    H8 5455   5.073   3.020   9.616 -0.1492 -0.0997 -1.1947
   41CHL1   C14 5456   4.865   2.984   9.550  0.6687  0.4076  0.0932
   41CHL1   H14 5457   4.766   2.974   9.599 -0.3148  0.9605 -1.6688
   41CHL1   C15 5458   4.862   2.868   9.444 -0.2747  0.0788 -0.7789
   41CHL1  H15A 5459   4.963   2.847   9.404 -0.5226 -0.0219 -1.3685
   41CHL1  H15B 5460   4.825   2.775   9.493 -3.1454  1.0830 -0.8488
   41CHL1   C16 5461   4.757   2.917   9.339  0.0685 -0.1513  0.4838
   41CHL1  H16A 5462   4.788   2.893   9.235 -1.7711  0.4981 -0.2596
   41CHL1  H16B 5463   4.653   2.887   9.365  0.0347  0.0081  0.5305
   41CHL1   C17 5464   4.740   3.076   9.374  0.2290 -0.5555  0.2077
   41CHL1   H17 5465   4.644   3.079   9.431  0.3236  0.6467  0.3205
   41CHL1   C13 5466   4.848   3.115   9.467 -0.5166  0.0836  0.3835
   41CHL1   C18 5467   4.972   3.137   9.374  0.2022  0.0001  0.3473
   41CHL1  H18A 5468   4.986   3.055   9.300  2.5279 -0.8960  1.6878
   41CHL1  H18B 5469   4.962   3.231   9.315 -0.0545  1.1434  2.1530
   41CHL1  H18C 5470   5.066   3.144   9.431  0.2656 -2.5447  0.6701
   41CHL1   C12 5471   4.824   3.230   9.560 -0.1067 -0.1131 -0.2851
   41CHL1  H12A 5472   4.829   3.319   9.493  0.9400 -0.5713 -0.8394
   41CHL1  H12B 5473   4.717   3.218   9.589 -0.1645 -0.4688 -0.6361
   41CHL1   C11 5474   4.923   3.251   9.676  0.5342  0.4603 -0.6418
   41CHL1  H11A 5475   5.020   3.277   9.628  0.5191  3.2452  0.6599
   41CHL1  H11B 5476   4.880   3.331   9.740  0.4018 -0.5994  0.6410
   41CHL1    C9 5477   4.929   3.109   9.753  0.8272 -0.3633  0.0006
   41CHL1    H9 5478   4.823   3.090   9.778  0.6509 -0.8635 -1.0987
   41CHL1   C10 5479   5.016   3.117   9.881 -0.2074 -0.0790 -0.7848
   41CHL1   C19 5480   5.137   3.212   9.842  0.5844  1.7260 -0.3112
   41CHL1  H19A 5481   5.212   3.210   9.924 -0.9642  2.1212  1.1751
   41CHL1  H19B 5482   5.182   3.164   9.753 -0.4412 -0.7580  0.4116
   41CHL1  H19C 5483   5.101   3.316   9.828 -0.1205  1.5905  0.4027
   41CHL1    C1 5484   4.932   3.197   9.991  0.0663 -0.5335 -0.7910
   41CHL1   H1A 5485   4.903   3.300   9.961 -4.8880 -0.9230  1.5296
   41CHL1   H1B 5486   4.835   3.142   9.994 -0.2327 -0.1294 -2.2726
   41CHL1    C2 5487   5.000   3.205  10.124 -0.4806  0.2579  0.8855
   41CHL1   H2A 5488   4.923   3.248  10.192 -0.9684  0.1064  0.4423
   41CHL1   H2B 5489   5.084   3.278  10.125  0.3705 -0.6335 -0.8863
   41CHL1   C20 5490   4.715   3.154   9.237  0.3622 -0.6639  0.0335
   41CHL1   H20 5491   4.803   3.147   9.169  0.9885  1.5901  0.5286
   41CHL1   C21 5492   4.689   3.308   9.266 -0.2030 -0.0230 -0.0725
   41CHL1  H21A 5493   4.609   3.315   9.343  0.1712  1.1938  0.2272
   41CHL1  H21B 5494   4.647   3.358   9.176  0.4900  1.1350  0.2346
   41CHL1  H21C 5495   4.788   3.351   9.293  0.2411  0.0111 -1.6846
   41CHL1   C22 5496   4.594   3.094   9.161 -0.1787  0.2238  0.3326
   41CHL1  H22A 5497   4.533   3.041   9.237  0.6184  0.3158  1.0530
   41CHL1  H22B 5498   4.541   3.187   9.132  3.1168  2.7928  1.9093
   41CHL1   C23 5499   4.624   3.013   9.036 -0.6560  0.5054  0.0891
   41CHL1  H23A 5500   4.688   3.076   8.970 -0.9584  1.6085  0.8349
   41CHL1  H23B 5501   4.677   2.918   9.060 -2.8366 -0.3085  1.9584
   41CHL1   C24 5502   4.498   2.988   8.947 -0.4954  0.1000  0.6528
   41CHL1  H24A 5503   4.412   2.947   9.004  1.1977  0.2219  3.5085
   41CHL1  H24B 5504   4.471   3.081   8.893  0.1658 -1.1746 -2.0162
   41CHL1   C25 5505   4.519   2.881   8.833 -0.5289  0.0795 -0.0324
   41CHL1   H25 5506   4.610   2.905   8.774  0.5096  0.8106  1.7681
   41CHL1   C26 5507   4.527   2.742   8.890 -0.2033  0.3194 -0.2886
   41CHL1  H26A 5508   4.566   2.662   8.823  1.4654 -1.4149  2.5657
   41CHL1  H26B 5509   4.605   2.742   8.969  0.3545 -1.0536 -0.8007
   41CHL1  H26C 5510   4.431   2.715   8.938  1.4342 -0.2759  2.9454
   41CHL1   C27 5511   4.405   2.892   8.726  0.0815  0.1761  0.5396
   41CHL1  H27A 5512   4.425   2.821   8.643  0.7979  1.1285 -0.1284
   41CHL1  H27B 5513   4.303   2.877   8.768 -0.5876 -0.1061 -1.1080
   41CHL1  H27C 5514   4.415   2.993   8.682  0.1825  0.7768  1.8840
   42CHL1    C3 5515   5.567   2.853   9.810 -0.4829 -0.0542  0.3716
   42CHL1    H3 5516   5.589   2.748   9.781 -2.0518 -0.2714 -0.1057
   42CHL1    O3 5517   5.592   2.872   9.943  0.4383 -0.3626  0.2346
   42CHL1   H3' 5518   5.668   2.930   9.949  0.0977  0.1493 -0.3462
   42CHL1    C4 5519   5.653   2.957   9.739  0.2579  0.4935  0.5110
   42CHL1   H4A 5520   5.623   3.060   9.768 -0.1939  0.4245  0.2781
   42CHL1   H4B 5521   5.759   2.926   9.757  0.0769 -1.2109 -1.0838
   42CHL1    C5 5522   5.621   2.947   9.592  0.6004 -0.1763  0.4170
   42CHL1    C6 5523   5.716   2.912   9.509 -0.1767  0.2085  0.0880
   42CHL1    H6 5524   5.822   2.900   9.534  0.2354  0.8478 -1.2238
   42CHL1    C7 5525   5.693   2.892   9.360  0.0976 -0.1509 -0.7909
   42CHL1   H7A 5526   5.781   2.926   9.301  1.3084  0.9115  1.5094
   42CHL1   H7B 5527   5.694   2.783   9.337  0.4735  0.0678 -1.9021
   42CHL1    C8 5528   5.557   2.951   9.312 -0.0749 -0.2662  0.3148
   42CHL1    H8 5529   5.563   3.061   9.295 -0.6681 -0.4360 -1.0823
   42CHL1   C14 5530   5.515   2.895   9.175 -0.4369  0.6851  0.5170
   42CHL1   H14 5531   5.496   2.786   9.181 -1.1533  0.7632 -0.3343
   42CHL1   C15 5532   5.625   2.901   9.060 -0.5603 -0.8698 -0.3024
   42CHL1  H15A 5533   5.655   3.007   9.051 -3.0533  0.0053  0.6567
   42CHL1  H15B 5534   5.713   2.843   9.094 -1.3131 -2.2073 -0.5760
   42CHL1   C16 5535   5.548   2.852   8.938  0.2178  0.0732 -0.2198
   42CHL1  H16A 5536   5.568   2.914   8.849 -1.9238  1.3529  0.1344
   42CHL1  H16B 5537   5.573   2.746   8.918 -1.1160 -0.2609 -0.1885
   42CHL1   C17 5538   5.395   2.860   8.973 -0.3866 -0.9952  0.3049
   42CHL1   H17 5539   5.362   2.759   9.005 -0.6206 -0.9246  0.2845
   42CHL1   C13 5540   5.388   2.946   9.109  0.5212 -0.1478  0.2387
   42CHL1   C18 5541   5.400   3.095   9.072  0.6119  0.0726  0.7141
   42CHL1  H18A 5542   5.304   3.131   9.031  1.1812  0.6262 -0.1584
   42CHL1  H18B 5543   5.416   3.157   9.163 -0.0901 -0.8742  1.5143
   42CHL1  H18C 5544   5.490   3.116   9.010  0.2940  1.5506  0.7160
   42CHL1   C12 5545   5.271   2.919   9.212 -0.5439 -0.4055  0.2559
   42CHL1  H12A 5546   5.184   2.981   9.184 -1.4461 -1.1548  1.3444
   42CHL1  H12B 5547   5.245   2.812   9.213 -2.4314  0.0062  1.9364
   42CHL1   C11 5548   5.300   2.971   9.350 -0.1067 -0.2593  0.1720
   42CHL1  H11A 5549   5.294   3.082   9.347 -2.4493 -0.3521 -2.4250
   42CHL1  H11B 5550   5.219   2.939   9.419  1.7325 -0.1414  2.5004
   42CHL1    C9 5551   5.440   2.920   9.410  0.4133  0.0006 -0.0798
   42CHL1    H9 5552   5.430   2.810   9.401 -0.7960  0.1900 -1.3414
   42CHL1   C10 5553   5.467   2.961   9.560  0.2607  0.1351 -0.6259
   42CHL1   C19 5554   5.434   3.114   9.572  0.2588 -0.5045  0.1282
   42CHL1  H19A 5555   5.472   3.157   9.667  1.5747  0.8483 -0.9721
   42CHL1  H19B 5556   5.486   3.161   9.486  1.6685 -2.7946 -0.3647
   42CHL1  H19C 5557   5.326   3.139   9.561 -0.1394 -1.9887  0.3096
   42CHL1    C1 5558   5.372   2.876   9.654 -0.1552 -0.8576 -0.0458
   42CHL1   H1A 5559   5.269   2.917   9.650 -0.4775 -1.3756  1.8491
   42CHL1   H1B 5560   5.381   2.769   9.625  2.4346 -0.8548  0.4663
   42CHL1    C2 5561   5.419   2.881   9.794  0.5196 -0.7141 -0.2031
   42CHL1   H2A 5562   5.359   2.812   9.857 -3.9379  3.1463  0.3199
   42CHL1   H2B 5563   5.409   2.987   9.828 -0.2865 -0.9173  0.2275
   42CHL1   C20 5564   5.301   2.900   8.855 -0.5648  0.3289  0.0981
   42CHL1   H20 5565   5.316   3.005   8.820 -2.9464  0.5591 -0.3987
   42CHL1   C21 5566   5.162   2.885   8.911  0.2242  0.5084  0.2348
   42CHL1  H21A 5567   5.134   2.962   8.986 -0.5920  0.8899 -0.4481
   42CHL1  H21B 5568   5.137   2.784   8.951 -4.2457  0.2536 -2.5673
   42CHL1  H21C 5569   5.090   2.913   8.831  1.7913  0.7778 -1.1420
   42CHL1   C22 5570   5.325   2.823   8.724  0.7387  0.3544 -0.0440
   42CHL1  H22A 5571   5.254   2.857   8.646  1.3211  1.1834 -0.2296
   42CHL1  H22B 5572   5.424   2.856   8.686  2.4720 -4.3145 -0.1932
   42CHL1   C23 5573   5.316   2.671   8.724 -0.7496 -0.0312 -0.0996
   42CHL1  H23A 5574   5.403   2.623   8.774 -1.2434  0.2290  1.0544
   42CHL1  H23B 5575   5.226   2.640   8.782 -0.5199 -0.3810  0.0754
   42CHL1   C24 5576   5.314   2.612   8.580  0.5376  0.3505 -0.5673
   42CHL1  H24A 5577   5.223   2.651   8.530 -0.4920 -0.5265  0.5671
   42CHL1  H24B 5578   5.416   2.626   8.537  0.5278 -0.6239 -0.9295
   42CHL1   C25 5579   5.314   2.457   8.569  0.1640  0.4379  0.4503
   42CHL1   H25 5580   5.390   2.417   8.639 -0.1695  0.6721  0.9597
   42CHL1   C26 5581   5.178   2.406   8.634  1.2031 -0.3328  0.4934
   42CHL1  H26A 5582   5.173   2.427   8.743  0.3997 -0.4159  0.4765
   42CHL1  H26B 5583   5.096   2.454   8.577  1.9727 -2.6720 -2.9054
   42CHL1  H26C 5584   5.165   2.298   8.615  2.2458 -0.5499  0.9349
   42CHL1   C27 5585   5.338   2.394   8.432  0.5032 -0.1599 -0.2654
   42CHL1  H27A 5586   5.339   2.285   8.450  1.2818 -0.2836 -1.0113
   42CHL1  H27B 5587   5.256   2.402   8.358  0.1908 -0.7585  0.0112
   42CHL1  H27C 5588   5.431   2.436   8.389 -0.0114 -0.5376 -1.7956
   43CHL1    C3 5589   6.200   3.397   9.946 -0.0167  0.6205 -0.0149
   43CHL1    H3 5590   6.301   3.433   9.918  0.0552 -0.5021 -1.3162
   43CHL1    O3 5591   6.182   3.415  10.082  0.1879 -0.2313 -0.0334
   43CHL1   H3' 5592   6.105   3.360  10.103  0.8785 -1.1310  0.1874
   43CHL1    C4 5593   6.094   3.487   9.869  0.3176  0.4579 -0.0026
   43CHL1   H4A 5594   5.992   3.477   9.912  1.1719  0.3313  2.0765
   43CHL1   H4B 5595   6.121   3.594   9.884 -2.1920  1.4890 -2.0273
   43CHL1    C5 5596   6.080   3.456   9.722  0.1375 -0.1351  0.4314
   43CHL1    C6 5597   6.097   3.545   9.628 -0.0379 -0.9268  0.4671
   43CHL1    H6 5598   6.124   3.649   9.650  1.1678 -0.4803 -2.6398
   43CHL1    C7 5599   6.101   3.525   9.484 -0.3685  0.3093  0.5793
   43CHL1   H7A 5600   6.079   3.605   9.410  1.5585 -0.1587 -0.5889
   43CHL1   H7B 5601   6.206   3.495   9.463 -0.9816 -2.0454  0.5737
   43CHL1    C8 5602   6.035   3.391   9.443 -0.3545 -0.4355  0.0094
   43CHL1    H8 5603   5.925   3.391   9.458 -0.1884 -1.6527  1.5441
   43CHL1   C14 5604   6.067   3.355   9.297 -0.7547 -0.7916  0.2362
   43CHL1   H14 5605   6.176   3.335   9.289 -0.4542  0.4850  0.8892
   43CHL1   C15 5606   6.036   3.462   9.183  0.2209  0.1482 -0.0140
   43CHL1  H15A 5607   5.939   3.516   9.197 -1.5508 -2.6831 -0.5565
   43CHL1  H15B 5608   6.126   3.525   9.170 -0.6694  1.2155 -1.3005
   43CHL1   C16 5609   6.029   3.361   9.059  0.3568 -0.3917  0.1558
   43CHL1  H16A 5610   5.926   3.373   9.018  0.5141 -2.2310 -0.9211
   43CHL1  H16B 5611   6.111   3.394   8.992  0.7808  4.3620  2.6034
   43CHL1   C17 5612   6.044   3.218   9.108 -0.3641  0.0211  0.4263
   43CHL1   H17 5613   6.153   3.199   9.100 -0.4745 -1.8282  2.3881
   43CHL1   C13 5614   6.006   3.226   9.254  0.3674  0.3719 -0.2953
   43CHL1   C18 5615   5.849   3.220   9.269 -0.2554 -0.4819 -0.2781
   43CHL1  H18A 5616   5.821   3.235   9.375 -1.0220 -2.1102 -0.2163
   43CHL1  H18B 5617   5.797   3.297   9.209  1.2680 -1.2896 -2.7990
   43CHL1  H18C 5618   5.813   3.123   9.229  0.1202 -0.8429  0.2493
   43CHL1   C12 5619   6.068   3.114   9.345  0.1935  0.3818  0.1253
   43CHL1  H12A 5620   6.029   3.014   9.318 -0.4507  1.1479 -1.9065
   43CHL1  H12B 5621   6.177   3.101   9.329  0.0017 -1.2710  0.0117
   43CHL1   C11 5622   6.047   3.140   9.490  0.1863 -0.8256  0.2610
   43CHL1  H11A 5623   5.938   3.125   9.510  0.4946  0.9567  4.2134
   43CHL1  H11B 5624   6.110   3.068   9.547  1.3501 -0.3019 -0.3476
   43CHL1    C9 5625   6.088   3.281   9.534  0.2019  0.4227 -1.0819
   43CHL1    H9 5626   6.198   3.284   9.519  0.0513 -0.0089 -2.4843
   43CHL1   C10 5627   6.066   3.307   9.684  0.0152 -0.0593 -0.5733
   43CHL1   C19 5628   5.929   3.258   9.720  1.0095 -0.1024  0.5934
   43CHL1  H19A 5629   5.858   3.291   9.641  1.3110 -2.2458 -0.6542
   43CHL1  H19B 5630   5.928   3.147   9.715 -2.1498 -0.1068 -0.7449
   43CHL1  H19C 5631   5.900   3.296   9.821 -0.3582  2.5168 -0.6977
   43CHL1    C1 5632   6.179   3.230   9.762 -0.3427 -0.0826 -0.2809
   43CHL1   H1A 5633   6.176   3.121   9.744  1.0338 -0.1263 -0.3706
   43CHL1   H1B 5634   6.272   3.273   9.716 -1.3768  0.9742 -1.4743
   43CHL1    C2 5635   6.187   3.253   9.913  0.2951  0.2836 -0.0443
   43CHL1   H2A 5636   6.261   3.189   9.966  0.7820 -0.9891 -2.1369
   43CHL1   H2B 5637   6.087   3.227   9.954 -0.2466  0.1887 -1.3638
   43CHL1   C20 5638   5.971   3.118   9.013 -0.6259 -0.5429  0.5841
   43CHL1   H20 5639   5.862   3.135   9.007 -0.4239  1.9231  2.2216
   43CHL1   C21 5640   6.001   2.974   9.059 -0.9712 -0.0864  0.0444
   43CHL1  H21A 5641   5.983   2.909   8.971 -1.3728 -1.4098  1.0618
   43CHL1  H21B 5642   5.939   2.944   9.146  0.5891 -0.4502  1.0755
   43CHL1  H21C 5643   6.110   2.958   9.076 -1.1006 -0.4235  0.5766
   43CHL1   C22 5644   6.019   3.137   8.863 -0.0045  0.3501 -0.9140
   43CHL1  H22A 5645   5.954   3.086   8.789  0.9315  0.9207 -2.1644
   43CHL1  H22B 5646   6.009   3.241   8.826 -0.5916 -0.1161 -2.1395
   43CHL1   C23 5647   6.165   3.103   8.839  0.5812  0.0125  0.1434
   43CHL1  H23A 5648   6.224   3.174   8.900  1.0292  0.2985 -0.6139
   43CHL1  H23B 5649   6.187   3.001   8.878  0.2247  0.3841  1.3498
   43CHL1   C24 5650   6.208   3.107   8.691 -0.9814  0.3983  0.5284
   43CHL1  H24A 5651   6.154   3.024   8.641  0.9626 -0.4466 -0.2978
   43CHL1  H24B 5652   6.171   3.204   8.650 -1.0574  1.2813  2.5900
   43CHL1   C25 5653   6.357   3.097   8.663  1.1098  0.5046  0.6013
   43CHL1   H25 5654   6.414   3.185   8.700  0.1977  1.9021 -1.1175
   43CHL1   C26 5655   6.415   2.965   8.721  0.1590  0.5376  0.5143
   43CHL1  H26A 5656   6.370   2.883   8.661  0.9977  0.1601  0.3924
   43CHL1  H26B 5657   6.525   2.963   8.704 -0.0709 -1.2630 -1.0941
   43CHL1  H26C 5658   6.387   2.972   8.828 -1.2869  0.6523  0.1470
   43CHL1   C27 5659   6.377   3.096   8.511 -0.5990  0.1232  0.3076
   43CHL1  H27A 5660   6.483   3.078   8.484 -0.7610 -1.0322  0.3955
   43CHL1  H27B 5661   6.309   3.025   8.459 -0.2393  0.8138 -1.1254
   43CHL1  H27C 5662   6.354   3.197   8.472  2.2090  0.0153 -1.8449
   44CHL1    C3 5663   1.202   3.652  10.264  0.4685 -0.1921 -0.9518
   44CHL1    H3 5664   1.308   3.685  10.264  0.6385 -0.7198 -0.5000
   44CHL1    O3 5665   1.180   3.633  10.406  0.4456 -0.1916 -0.3226
   44CHL1   H3' 5666   1.087   3.629  10.432  0.8380 -1.7885  0.9371
   44CHL1    C4 5667   1.100   3.758  10.218  0.0643 -0.1110  0.5567
   44CHL1   H4A 5668   1.002   3.717  10.248 -0.1832  1.2082  1.6402
   44CHL1   H4B 5669   1.123   3.853  10.271 -2.8479  1.0221 -0.0090
   44CHL1    C5 5670   1.117   3.770  10.062 -0.1693 -0.4330  0.5370
   44CHL1    C6 5671   1.126   3.890  10.004 -0.4680 -0.5871 -0.0140
   44CHL1    H6 5672   1.130   3.979  10.068  2.6506 -1.2612  0.9064
   44CHL1    C7 5673   1.142   3.924   9.860 -0.1788 -0.4372 -0.3790
   44CHL1   H7A 5674   1.072   4.003   9.825  0.7211  2.6457  4.0152
   44CHL1   H7B 5675   1.244   3.961   9.836 -0.5708  0.1636 -1.1938
   44CHL1    C8 5676   1.109   3.802   9.775  0.4393  0.2545 -0.4380
   44CHL1    H8 5677   0.998   3.796   9.771  0.4578 -3.1258  0.4113
   44CHL1   C14 5678   1.169   3.827   9.635  0.1606  0.7427  0.4178
   44CHL1   H14 5679   1.280   3.828   9.631  0.1533 -0.4375 -0.8415
   44CHL1   C15 5680   1.135   3.952   9.561 -0.1634 -0.2309 -0.5973
   44CHL1  H15A 5681   1.026   3.972   9.559 -0.0322  1.2834  2.2152
   44CHL1  H15B 5682   1.188   4.040   9.604 -0.8106  0.0953 -0.4483
   44CHL1   C16 5683   1.175   3.934   9.415  0.8160 -0.1404  0.3094
   44CHL1  H16A 5684   1.102   3.983   9.348  0.2883 -2.2034 -0.7232
   44CHL1  H16B 5685   1.267   3.991   9.395  1.4726 -1.0741  0.5842
   44CHL1   C17 5686   1.187   3.781   9.393 -0.0999  0.6256  0.1645
   44CHL1   H17 5687   1.294   3.753   9.401 -0.3398 -0.1873  0.7744
   44CHL1   C13 5688   1.130   3.721   9.527 -0.2132 -0.1203 -0.3199
   44CHL1   C18 5689   0.977   3.708   9.510 -0.4651  0.5968  0.7565
   44CHL1  H18A 5690   0.919   3.704   9.604 -2.1046  1.5612 -0.1691
   44CHL1  H18B 5691   0.946   3.799   9.453 -1.3171 -0.2790 -0.2182
   44CHL1  H18C 5692   0.957   3.619   9.447 -0.4903  1.4798 -0.5280
   44CHL1   C12 5693   1.184   3.586   9.586 -0.1947 -0.6670 -0.0311
   44CHL1  H12A 5694   1.160   3.497   9.524  0.4658 -0.3444 -0.7681
   44CHL1  H12B 5695   1.295   3.584   9.592 -0.1012 -0.4086 -1.3818
   44CHL1   C11 5696   1.129   3.553   9.730  0.2747  0.2663  0.1173
   44CHL1  H11A 5697   1.025   3.514   9.725  0.6642 -1.3617  2.8706
   44CHL1  H11B 5698   1.189   3.475   9.780 -0.0236  0.5941  1.0082
   44CHL1    C9 5699   1.153   3.669   9.826 -0.8062  0.1797 -0.2879
   44CHL1    H9 5700   1.263   3.684   9.835 -0.9671  2.5660 -1.3083
   44CHL1   C10 5701   1.105   3.636   9.974 -0.0526 -0.8434  0.0381
   44CHL1   C19 5702   0.959   3.587   9.975 -0.5016 -0.0784  0.2761
   44CHL1  H19A 5703   0.894   3.661   9.922 -0.0649 -0.5247 -0.8932
   44CHL1  H19B 5704   0.938   3.495   9.918 -1.2439 -0.3172  0.9126
   44CHL1  H19C 5705   0.913   3.582  10.077 -0.0896 -1.0864  0.4221
   44CHL1    C1 5706   1.194   3.539  10.035  0.1437  1.1356 -0.7691
   44CHL1   H1A 5707   1.181   3.433  10.003  1.6539 -0.7851  4.0748
   44CHL1   H1B 5708   1.297   3.577  10.018  1.5168  0.1702  3.9816
   44CHL1    C2 5709   1.184   3.524  10.186  0.3969 -0.2635 -0.6367
   44CHL1   H2A 5710   1.266   3.459  10.225  0.6911  1.2295  1.3737
   44CHL1   H2B 5711   1.087   3.477  10.212 -0.0488  1.1689  0.4131
   44CHL1   C20 5712   1.148   3.741   9.257  0.4241  0.3882  0.4764
   44CHL1   H20 5713   1.043   3.777   9.243 -0.0207 -1.3582 -1.0597
   44CHL1   C21 5714   1.153   3.592   9.234 -0.0294 -0.1385  0.3850
   44CHL1  H21A 5715   1.145   3.571   9.125  0.3468 -3.9927  0.9467
   44CHL1  H21B 5716   1.067   3.550   9.290 -0.5207  1.5863  0.9733
   44CHL1  H21C 5717   1.246   3.541   9.267  1.1014  1.3145 -0.4155
   44CHL1   C22 5718   1.239   3.808   9.150  0.3187  0.2495  0.0818
   44CHL1  H22A 5719   1.295   3.894   9.194 -1.0803  1.4612 -0.4126
   44CHL1  H22B 5720   1.310   3.726   9.124 -0.8388 -0.5312 -0.7058
   44CHL1   C23 5721   1.169   3.850   9.020 -0.3354 -0.1967  0.0419
   44CHL1  H23A 5722   1.097   3.774   8.983 -1.5331  1.0301 -0.2243
   44CHL1  H23B 5723   1.086   3.919   9.046 -1.7070 -1.5529 -0.5468
   44CHL1   C24 5724   1.264   3.886   8.910 -0.2066  0.0456 -0.4588
   44CHL1  H24A 5725   1.327   3.966   8.955  0.6913 -0.7588 -0.2604
   44CHL1  H24B 5726   1.338   3.804   8.904 -0.2674 -0.0898  0.4417
   44CHL1   C25 5727   1.197   3.927   8.771 -0.0894 -0.6102 -0.0867
   44CHL1   H25 5728   1.123   3.845   8.754  1.6101 -1.8351 -2.1216
   44CHL1   C26 5729   1.123   4.060   8.779  0.2029 -0.4986 -0.1285
   44CHL1  H26A 5730   1.034   4.056   8.845 -0.0350 -0.8141 -0.4608
   44CHL1  H26B 5731   1.191   4.139   8.818 -0.2697  0.0786 -0.4653
   44CHL1  H26C 5732   1.092   4.094   8.678 -1.7212 -0.2458  0.5052
   44CHL1   C27 5733   1.295   3.929   8.651 -0.4101 -0.3152 -0.1514
   44CHL1  H27A 5734   1.241   3.948   8.556  0.1949 -0.1938 -0.4805
   44CHL1  H27B 5735   1.372   4.007   8.669 -0.0158 -0.3657 -1.4776
   44CHL1  H27C 5736   1.357   3.837   8.639  2.6134  1.6566 -0.5470
   45CHL1    C3 5737   4.589   0.588  10.396  0.0232 -0.0712 -0.0770
   45CHL1    H3 5738   4.668   0.609  10.472  0.0089 -2.1895  0.6102
   45CHL1    O3 5739   4.460   0.627  10.442  0.8813 -0.4844 -0.3651
   45CHL1   H3' 5740   4.417   0.553  10.486  2.3006 -2.0303 -1.4920
   45CHL1    C4 5741   4.628   0.665  10.267 -0.7358  0.0588  0.4037
   45CHL1   H4A 5742   4.537   0.661  10.203 -0.9325  0.6907  0.6382
   45CHL1   H4B 5743   4.631   0.773  10.294 -2.2696 -0.2840  2.1380
   45CHL1    C5 5744   4.751   0.617  10.195 -0.7487  0.6564  0.2865
   45CHL1    C6 5745   4.859   0.692  10.164  0.1332 -0.0874 -0.2583
   45CHL1    H6 5746   4.860   0.799  10.188  2.3230 -0.1620  0.2645
   45CHL1    C7 5747   4.986   0.657  10.091  0.1095  0.1177  0.4406
   45CHL1   H7A 5748   5.021   0.748  10.038 -1.0972 -0.0982 -0.7853
   45CHL1   H7B 5749   5.054   0.627  10.174  0.1802 -1.2986 -0.1131
   45CHL1    C8 5750   4.969   0.524  10.014  0.2859 -0.0118 -0.1991
   45CHL1    H8 5751   5.075   0.491  10.011  0.4288  0.4201 -0.0345
   45CHL1   C14 5752   4.915   0.546   9.875  0.7059  0.6888  0.7637
   45CHL1   H14 5753   4.820   0.604   9.867  1.3066  1.5083 -0.9443
   45CHL1   C15 5754   5.011   0.640   9.792 -0.6447 -0.7190  0.0996
   45CHL1  H15A 5755   4.974   0.735   9.746  0.8934  0.0992  0.4851
   45CHL1  H15B 5756   5.098   0.674   9.851  0.4022 -0.3378 -1.5959
   45CHL1   C16 5757   5.072   0.548   9.685  0.7220 -0.6008  0.0322
   45CHL1  H16A 5758   5.038   0.578   9.584 -1.8645 -1.7725  0.4655
   45CHL1  H16B 5759   5.183   0.544   9.683  0.8341  1.2908  0.1862
   45CHL1   C17 5760   5.037   0.406   9.725 -0.1303  0.5862  0.1934
   45CHL1   H17 5761   5.102   0.391   9.814 -0.8089  2.1765  1.0022
   45CHL1   C13 5762   4.906   0.414   9.790  0.1288 -0.2771  0.0325
   45CHL1   C18 5763   4.796   0.446   9.684 -0.1751 -0.4225 -0.3896
   45CHL1  H18A 5764   4.704   0.490   9.729 -0.9252 -1.0603 -1.2586
   45CHL1  H18B 5765   4.838   0.508   9.603  0.6747  0.1632  0.4815
   45CHL1  H18C 5766   4.759   0.347   9.648  0.4491 -0.5509 -0.6875
   45CHL1   C12 5767   4.849   0.294   9.863 -0.0853 -0.6988  0.3920
   45CHL1  H12A 5768   4.739   0.303   9.873 -0.2530 -0.4677 -1.4245
   45CHL1  H12B 5769   4.849   0.195   9.812 -1.6436 -0.6094  0.1559
   45CHL1   C11 5770   4.896   0.293  10.015 -0.1696 -0.2084  0.4236
   45CHL1  H11A 5771   4.835   0.216  10.068  0.5702 -2.3390 -1.6242
   45CHL1  H11B 5772   5.005   0.279  10.000 -0.3179 -1.8055  0.6023
   45CHL1    C9 5773   4.887   0.421  10.097 -0.1926 -0.7193 -0.0618
   45CHL1    H9 5774   4.948   0.410  10.189  1.6232  0.3763 -1.0758
   45CHL1   C10 5775   4.741   0.469  10.147 -0.7245  0.2969  0.9691
   45CHL1   C19 5776   4.622   0.452  10.046 -0.6151 -0.9263 -0.0154
   45CHL1  H19A 5777   4.529   0.489  10.096 -1.0811 -0.9429 -0.8494
   45CHL1  H19B 5778   4.641   0.521   9.961 -1.0556  2.2021  2.2270
   45CHL1  H19C 5779   4.613   0.343  10.030 -0.6259 -0.8128 -0.8226
   45CHL1    C1 5780   4.714   0.393  10.283 -0.4021  0.4622  0.3686
   45CHL1   H1A 5781   4.709   0.283  10.265  2.8505  0.4435 -1.1971
   45CHL1   H1B 5782   4.800   0.407  10.352  0.0753  0.6903 -0.2651
   45CHL1    C2 5783   4.590   0.437  10.363  0.3090 -0.2270  0.5635
   45CHL1   H2A 5784   4.570   0.378  10.455 -1.1268 -0.3605  0.1913
   45CHL1   H2B 5785   4.498   0.427  10.301  0.4410  0.0992  0.3147
   45CHL1   C20 5786   5.052   0.302   9.615  0.0827  0.8241 -0.0570
   45CHL1   H20 5787   4.952   0.285   9.570 -0.4089  0.6612  1.0701
   45CHL1   C21 5788   5.105   0.176   9.679  0.0835  0.4370 -0.0821
   45CHL1  H21A 5789   5.215   0.176   9.694  0.0450 -1.5658  0.5634
   45CHL1  H21B 5790   5.084   0.094   9.606  0.0051  1.5789 -1.3811
   45CHL1  H21C 5791   5.059   0.150   9.776  0.1503  1.5347  0.2559
   45CHL1   C22 5792   5.145   0.339   9.496  0.0630 -0.0731  0.0942
   45CHL1  H22A 5793   5.105   0.434   9.454 -0.1444 -1.1138 -2.1820
   45CHL1  H22B 5794   5.246   0.366   9.535  1.5052 -0.7854 -2.8918
   45CHL1   C23 5795   5.154   0.241   9.379  0.6982  0.2361 -0.8435
   45CHL1  H23A 5796   5.183   0.140   9.415  2.1647  0.6130 -0.9180
   45CHL1  H23B 5797   5.057   0.227   9.326  0.4163 -2.6794  0.2634
   45CHL1   C24 5798   5.269   0.284   9.289 -0.5459 -0.3867 -0.3735
   45CHL1  H24A 5799   5.236   0.371   9.228 -1.4136 -0.6162 -0.2514
   45CHL1  H24B 5800   5.362   0.307   9.345  1.2872 -2.2842 -2.4935
   45CHL1   C25 5801   5.298   0.182   9.178  0.0492 -0.2519  1.0980
   45CHL1   H25 5802   5.300   0.081   9.223  1.4654 -0.4259  0.6917
   45CHL1   C26 5803   5.191   0.195   9.072 -0.2038 -0.1370  0.0146
   45CHL1  H26A 5804   5.090   0.196   9.117 -0.8018 -1.2933 -1.2214
   45CHL1  H26B 5805   5.198   0.292   9.019  2.2697 -0.4196 -0.2927
   45CHL1  H26C 5806   5.184   0.108   9.003 -3.4861 -1.1252  1.4036
   45CHL1   C27 5807   5.435   0.221   9.114  0.0683  0.8135 -0.0811
   45CHL1  H27A 5808   5.524   0.187   9.171 -0.0755 -0.2424 -0.4826
   45CHL1  H27B 5809   5.441   0.180   9.011 -0.0004  0.3417  0.1025
   45CHL1  H27C 5810   5.440   0.332   9.114  1.5529  0.8021  1.7243
   46CHL1    C3 5811   1.542   0.339  10.067  0.2986  0.2262 -0.7891
   46CHL1    H3 5812   1.603   0.431  10.057 -1.0115  1.1592 -0.4034
   46CHL1    O3 5813   1.471   0.348  10.189 -0.0628 -0.3146 -0.3138
   46CHL1   H3' 5814   1.430   0.264  10.214 -0.7546  0.5867  1.7851
   46CHL1    C4 5815   1.437   0.323   9.953 -0.6973 -0.2862 -0.5706
   46CHL1   H4A 5816   1.369   0.238   9.971 -1.2686 -0.0966 -1.7505
   46CHL1   H4B 5817   1.372   0.413   9.951 -0.2623  0.0273 -0.9970
   46CHL1    C5 5818   1.505   0.304   9.818 -0.3417 -1.1900  0.6674
   46CHL1    C6 5819   1.485   0.391   9.719  0.0244 -0.1503 -0.6385
   46CHL1    H6 5820   1.421   0.477   9.744  0.4539 -0.6440  2.5250
   46CHL1    C7 5821   1.562   0.395   9.591  0.4654  0.0636 -0.3423
   46CHL1   H7A 5822   1.483   0.402   9.513 -0.0491  2.2655  0.3147
   46CHL1   H7B 5823   1.634   0.480   9.588  1.9275 -1.1162 -3.8127
   46CHL1    C8 5824   1.652   0.264   9.574 -0.3712 -0.2178 -0.4562
   46CHL1    H8 5825   1.576   0.183   9.577 -1.5755  0.8706 -0.9296
   46CHL1   C14 5826   1.735   0.259   9.450  0.0935 -0.7996 -0.2134
   46CHL1   H14 5827   1.801   0.349   9.447 -2.7646  1.4333 -0.6210
   46CHL1   C15 5828   1.657   0.284   9.317 -0.1014  0.6868 -0.1805
   46CHL1  H15A 5829   1.564   0.224   9.318  1.1032 -1.2271  0.5999
   46CHL1  H15B 5830   1.630   0.390   9.297  0.1981  0.9093  0.5627
   46CHL1   C16 5831   1.748   0.229   9.209 -0.1451 -0.4117  0.7091
   46CHL1  H16A 5832   1.707   0.134   9.167  0.1610 -0.1572 -0.1925
   46CHL1  H16B 5833   1.764   0.290   9.117 -3.1678  0.7425  0.8523
   46CHL1   C17 5834   1.877   0.170   9.277 -0.5931 -0.0948 -0.1122
   46CHL1   H17 5835   1.944   0.259   9.281 -2.2965  1.4261 -2.4604
   46CHL1   C13 5836   1.825   0.133   9.421  0.6294  0.1876 -0.4719
   46CHL1   C18 5837   1.736  -0.000   9.425  0.0140  0.5290 -0.0551
   46CHL1  H18A 5838   1.663   0.008   9.507 -0.0721 -1.5996  0.1493
   46CHL1  H18B 5839   1.683  -0.004   9.327 -0.7519  2.3898  0.2563
   46CHL1  H18C 5840   1.798  -0.088   9.452 -0.2202  0.9736  2.0898
   46CHL1   C12 5841   1.924   0.144   9.542  0.1391  1.2534  0.4182
   46CHL1  H12A 5842   2.011   0.076   9.541  0.9109  2.2049 -1.2140
   46CHL1  H12B 5843   1.969   0.246   9.542  0.6357  1.0369  0.0653
   46CHL1   C11 5844   1.842   0.122   9.673  0.1172  0.2381  0.6532
   46CHL1  H11A 5845   1.798   0.021   9.660 -0.9417  0.7840 -0.2220
   46CHL1  H11B 5846   1.909   0.125   9.761 -0.5541  0.7625  1.1533
   46CHL1    C9 5847   1.734   0.233   9.701  0.4321  0.4600  0.7913
   46CHL1    H9 5848   1.785   0.330   9.716 -1.2660  2.1329 -2.9309
   46CHL1   C10 5849   1.631   0.206   9.818  0.0938 -0.4982 -0.3237
   46CHL1   C19 5850   1.581   0.060   9.820 -0.4568  0.3239  1.1851
   46CHL1  H19A 5851   1.657  -0.020   9.813 -2.8150 -1.9534  0.1100
   46CHL1  H19B 5852   1.519   0.035   9.909  0.9254  0.3623  2.1929
   46CHL1  H19C 5853   1.511   0.039   9.736  0.8935  0.6539 -0.0548
   46CHL1    C1 5854   1.711   0.207   9.943 -0.0369  0.0770  0.2676
   46CHL1   H1A 5855   1.778   0.119   9.932 -1.2839 -0.7514 -1.1038
   46CHL1   H1B 5856   1.777   0.296   9.950 -2.7168  2.2800 -0.7217
   46CHL1    C2 5857   1.633   0.211  10.078 -0.3485  0.1826  0.8015
   46CHL1   H2A 5858   1.709   0.223  10.158 -1.0521  0.8514  1.3837
   46CHL1   H2B 5859   1.573   0.121  10.102  0.8479 -1.1091 -0.8548
   46CHL1   C20 5860   1.956   0.060   9.203  0.2866 -0.2569 -0.3007
   46CHL1   H20 5861   1.898  -0.034   9.210  0.4514 -0.2402  2.1665
   46CHL1   C21 5862   2.090   0.033   9.277 -0.2649  0.0032  0.3891
   46CHL1  H21A 5863   2.149  -0.039   9.216  0.0599 -0.0019  0.7120
   46CHL1  H21B 5864   2.078  -0.010   9.379  0.4329  0.6652  0.7596
   46CHL1  H21C 5865   2.148   0.127   9.284 -0.6324  0.1534  1.7251
   46CHL1   C22 5866   1.990   0.088   9.048 -0.1007 -0.3661 -0.1585
   46CHL1  H22A 5867   1.892   0.127   9.012  1.0339  1.7593 -1.1268
   46CHL1  H22B 5868   2.064   0.171   9.041 -1.2078  0.8424  1.7083
   46CHL1   C23 5869   2.031  -0.043   8.970  0.0901 -0.2543 -0.4907
   46CHL1  H23A 5870   2.137  -0.059   8.999 -0.4444  0.2800  1.9531
   46CHL1  H23B 5871   1.967  -0.123   9.012 -1.9394  0.5264 -1.9115
   46CHL1   C24 5872   2.013  -0.032   8.824  0.1137  0.2098  0.5307
   46CHL1  H24A 5873   1.910  -0.004   8.794  0.2447 -0.6322 -0.7779
   46CHL1  H24B 5874   2.075   0.052   8.787  0.7094 -1.0487 -1.4921
   46CHL1   C25 5875   2.045  -0.168   8.749  0.9079 -0.5605 -0.4651
   46CHL1   H25 5876   1.984  -0.251   8.791  2.1213 -0.4430  1.6313
   46CHL1   C26 5877   2.009  -0.162   8.604 -0.0710 -0.2492 -0.5012
   46CHL1  H26A 5878   2.061  -0.074   8.561 -0.3484 -0.3451 -1.0465
   46CHL1  H26B 5879   2.031  -0.253   8.545 -0.9013 -0.0882 -1.0725
   46CHL1  H26C 5880   1.902  -0.137   8.588 -0.2747 -2.1432 -2.5963
   46CHL1   C27 5881   2.193  -0.210   8.777 -0.2999 -0.7842 -0.2203
   46CHL1  H27A 5882   2.202  -0.249   8.880 -0.1143  1.2648  0.5794
   46CHL1  H27B 5883   2.225  -0.294   8.712  3.7270 -0.3012  0.8707
   46CHL1  H27C 5884   2.257  -0.122   8.754 -0.3581  0.5030  3.8604
   47CHL1    C3 5885   6.739   3.021   9.954  0.5074  0.4409  0.5163
   47CHL1    H3 5886   6.840   2.974   9.955  0.9192  1.2420 -0.6486
   47CHL1    O3 5887   6.724   3.074  10.082  0.5982 -0.3863 -0.6317
   47CHL1   H3' 5888   6.637   3.115  10.085  0.4890 -0.5213 -1.5773
   47CHL1    C4 5889   6.742   3.138   9.852 -0.4597 -0.5821  0.2216
   47CHL1   H4A 5890   6.645   3.192   9.863 -1.0902 -2.0187  2.1158
   47CHL1   H4B 5891   6.818   3.216   9.872 -1.3163  0.5170 -0.6526
   47CHL1    C5 5892   6.757   3.086   9.713  0.4716  0.9522 -0.0172
   47CHL1    C6 5893   6.860   3.125   9.633  0.3452 -0.2035  0.5862
   47CHL1    H6 5894   6.935   3.198   9.668  0.5777  0.0876 -0.4838
   47CHL1    C7 5895   6.880   3.074   9.492 -0.4518 -0.5851 -0.3946
   47CHL1   H7A 5896   6.897   3.159   9.423  0.3636 -0.7568 -0.4133
   47CHL1   H7B 5897   6.964   3.002   9.486  0.7583  0.7381  0.0720
   47CHL1    C8 5898   6.753   3.010   9.429  0.3183  0.3050  0.3094
   47CHL1    H8 5899   6.677   3.090   9.414  1.7068  1.4515 -0.8173
   47CHL1   C14 5900   6.794   2.935   9.303  0.1260 -0.3536 -0.4346
   47CHL1   H14 5901   6.866   2.858   9.340  0.2671  0.3677  0.8936
   47CHL1   C15 5902   6.872   3.013   9.187 -0.5768 -0.0434 -0.1291
   47CHL1  H15A 5903   6.816   3.105   9.160 -1.1523  0.0487  1.2834
   47CHL1  H15B 5904   6.973   3.043   9.221 -0.9073  1.4172 -0.3760
   47CHL1   C16 5905   6.851   2.917   9.067 -0.7156  0.9079 -0.2719
   47CHL1  H16A 5906   6.816   2.974   8.978 -0.5298 -0.4961 -1.2557
   47CHL1  H16B 5907   6.946   2.869   9.037 -0.6346  1.2493 -0.5694
   47CHL1   C17 5908   6.747   2.809   9.109  0.0721 -0.4981  0.2059
   47CHL1   H17 5909   6.807   2.725   9.148 -1.2786 -0.2699  3.0941
   47CHL1   C13 5910   6.673   2.864   9.230  0.6943 -0.5874  0.1110
   47CHL1   C18 5911   6.568   2.969   9.183 -0.9005  0.2510 -0.0120
   47CHL1  H18A 5912   6.531   3.028   9.270 -0.0071 -1.7045  1.7911
   47CHL1  H18B 5913   6.606   3.038   9.105  1.4399 -1.1101 -0.1646
   47CHL1  H18C 5914   6.482   2.921   9.131 -1.3455  1.2609 -0.2422
   47CHL1   C12 5915   6.627   2.764   9.329 -0.1698  0.5370 -0.3319
   47CHL1  H12A 5916   6.537   2.718   9.282 -0.6951  0.8377  0.3781
   47CHL1  H12B 5917   6.713   2.693   9.335 -1.0133 -0.6172 -1.4637
   47CHL1   C11 5918   6.588   2.822   9.468 -0.0040 -0.3343 -0.1772
   47CHL1  H11A 5919   6.491   2.877   9.462 -1.4685 -2.8655 -2.1141
   47CHL1  H11B 5920   6.566   2.736   9.535 -1.0109 -1.6368 -2.0757
   47CHL1    C9 5921   6.697   2.909   9.536  0.0874 -0.7397 -0.4789
   47CHL1    H9 5922   6.777   2.836   9.559  0.7260  0.0275 -0.2168
   47CHL1   C10 5923   6.659   2.974   9.674 -0.2278  0.7515 -0.0923
   47CHL1   C19 5924   6.514   3.038   9.658  0.3661 -0.0770  0.6366
   47CHL1  H19A 5925   6.490   3.092   9.752 -1.1076 -1.3885  1.0602
   47CHL1  H19B 5926   6.508   3.109   9.573 -1.0673  0.3498  1.0654
   47CHL1  H19C 5927   6.436   2.958   9.656 -0.0724  0.3416 -2.1496
   47CHL1    C1 5928   6.658   2.858   9.776  0.1293 -0.8593 -0.2708
   47CHL1   H1A 5929   6.580   2.785   9.746 -0.8044 -0.0691  0.1823
   47CHL1   H1B 5930   6.751   2.796   9.779 -0.3065 -1.4911  0.5341
   47CHL1    C2 5931   6.633   2.912   9.920  0.4128 -0.0560  0.2598
   47CHL1   H2A 5932   6.639   2.833   9.998 -0.9997  0.6855  1.1739
   47CHL1   H2B 5933   6.530   2.954   9.922  0.8721  1.1676 -0.5147
   47CHL1   C20 5934   6.673   2.751   8.987 -0.3040 -0.1339  0.1514
   47CHL1   H20 5935   6.620   2.837   8.941  0.3112  0.0003 -0.3133
   47CHL1   C21 5936   6.551   2.666   9.027 -0.0645  0.3521 -0.8330
   47CHL1  H21A 5937   6.590   2.581   9.088  0.7824  0.2387 -1.4974
   47CHL1  H21B 5938   6.503   2.625   8.936 -2.1665 -0.6249  0.6493
   47CHL1  H21C 5939   6.464   2.716   9.072 -2.5854 -3.0406 -1.5155
   47CHL1   C22 5940   6.768   2.680   8.887  0.0602 -0.1439 -0.0560
   47CHL1  H22A 5941   6.862   2.737   8.880  0.5079 -0.8089  0.4052
   47CHL1  H22B 5942   6.785   2.590   8.950 -0.1161  1.4357  2.4168
   47CHL1   C23 5943   6.715   2.657   8.752  0.0981 -0.1487 -0.2898
   47CHL1  H23A 5944   6.632   2.582   8.752  0.8066 -1.0270 -2.4395
   47CHL1  H23B 5945   6.671   2.748   8.706  2.0235  1.4728  0.9472
   47CHL1   C24 5946   6.826   2.585   8.668  0.5286  0.4349 -0.5813
   47CHL1  H24A 5947   6.897   2.662   8.630  0.4094  0.8700  0.0776
   47CHL1  H24B 5948   6.885   2.518   8.734 -0.7104  0.6203  0.7387
   47CHL1   C25 5949   6.776   2.500   8.548 -0.1491  0.2317  0.7556
   47CHL1   H25 5950   6.716   2.418   8.594 -1.1533  0.6632  0.2414
   47CHL1   C26 5951   6.693   2.587   8.458  0.2163  0.0754 -0.1968
   47CHL1  H26A 5952   6.593   2.604   8.503  0.0355  0.6075 -0.7759
   47CHL1  H26B 5953   6.682   2.547   8.355 -0.9698 -2.7468  0.9233
   47CHL1  H26C 5954   6.749   2.682   8.443 -0.2037  0.2392 -0.8018
   47CHL1   C27 5955   6.892   2.430   8.465 -0.2472 -0.0443 -0.3786
   47CHL1  H27A 5956   6.951   2.362   8.530 -2.8521 -2.7063 -0.6104
   47CHL1  H27B 5957   6.850   2.373   8.379 -1.5844 -2.3734  1.6924
   47CHL1  H27C 5958   6.956   2.510   8.421  2.3478  0.4486  3.7601
   48CHL1    C3 5959   1.519   3.304  10.044 -0.2046 -0.9292  0.5300
   48CHL1    H3 5960   1.408   3.307  10.047 -0.2264  1.2791 -0.2409
   48CHL1    O3 5961   1.567   3.282  10.181 -0.2864  0.1356  0.2469
   48CHL1   H3' 5962   1.660   3.260  10.174 -0.2636  0.8187 -3.6189
   48CHL1    C4 5963   1.558   3.178   9.957  0.3202 -0.2961  0.5588
   48CHL1   H4A 5964   1.667   3.161   9.971  0.7971 -0.0745 -2.3408
   48CHL1   H4B 5965   1.517   3.083   9.998 -0.2966  0.6650  2.2949
   48CHL1    C5 5966   1.527   3.204   9.813 -0.1273 -0.3495 -0.1234
   48CHL1    C6 5967   1.437   3.128   9.750 -0.0081  0.4214  0.4486
   48CHL1    H6 5968   1.392   3.037   9.792 -1.2356  0.5690 -0.4621
   48CHL1    C7 5969   1.416   3.147   9.601  0.0883  0.2426  0.0852
   48CHL1   H7A 5970   1.405   3.046   9.556 -0.5985 -0.1078  0.9876
   48CHL1   H7B 5971   1.320   3.200   9.582 -0.3067 -0.8475 -1.1123
   48CHL1    C8 5972   1.526   3.234   9.534 -0.0256 -0.1365 -0.2654
   48CHL1    H8 5973   1.625   3.183   9.527  0.7456  1.4305 -1.3786
   48CHL1   C14 5974   1.479   3.268   9.396  0.6159 -0.5176  0.2847
   48CHL1   H14 5975   1.385   3.322   9.422  0.4035  0.6932 -2.5892
   48CHL1   C15 5976   1.434   3.148   9.304  0.2996  0.2942  0.4531
   48CHL1  H15A 5977   1.504   3.062   9.308  1.4517  1.1661 -0.4412
   48CHL1  H15B 5978   1.328   3.121   9.328  0.6618  0.1870  2.0915
   48CHL1   C16 5979   1.439   3.208   9.164 -0.7595 -0.4214 -0.2866
   48CHL1  H16A 5980   1.518   3.162   9.100 -1.1104  1.8937 -2.5486
   48CHL1  H16B 5981   1.355   3.207   9.091  0.4050 -0.7665 -1.6806
   48CHL1   C17 5982   1.486   3.360   9.176 -0.3677 -0.1911  0.1306
   48CHL1   H17 5983   1.390   3.416   9.180  0.2694  0.8621  1.5865
   48CHL1   C13 5984   1.561   3.364   9.313 -1.3639 -0.7158  0.3115
   48CHL1   C18 5985   1.706   3.304   9.300 -0.1184  0.0292 -0.0678
   48CHL1  H18A 5986   1.703   3.203   9.253 -0.9630  0.0117  0.0101
   48CHL1  H18B 5987   1.770   3.369   9.237  0.9371 -2.5452 -1.8197
   48CHL1  H18C 5988   1.751   3.299   9.401 -1.7162  1.7239  0.7803
   48CHL1   C12 5989   1.553   3.498   9.390 -0.0097  0.5398 -0.1278
   48CHL1  H12A 5990   1.621   3.570   9.340 -1.2264  0.7771 -1.5133
   48CHL1  H12B 5991   1.451   3.544   9.387  0.5688  2.3030  2.9001
   48CHL1   C11 5992   1.597   3.491   9.536  0.8648  0.1596 -0.6940
   48CHL1  H11A 5993   1.707   3.475   9.538  0.5898 -2.0475 -0.8486
   48CHL1  H11B 5994   1.581   3.588   9.588 -1.2202  0.5130 -1.8984
   48CHL1    C9 5995   1.535   3.363   9.615  0.4077 -0.0793 -0.2088
   48CHL1    H9 5996   1.431   3.398   9.627  0.7328  0.5333  0.9864
   48CHL1   C10 5997   1.593   3.337   9.753 -0.4707 -0.0428  0.3921
   48CHL1   C19 5998   1.749   3.317   9.744 -0.1331  0.3604  0.4159
   48CHL1  H19A 5999   1.796   3.304   9.844 -2.4029  1.4262  1.7056
   48CHL1  H19B 6000   1.777   3.228   9.685 -1.9033  0.3328 -0.4579
   48CHL1  H19C 6001   1.790   3.411   9.700 -0.7103  0.7923  0.7812
   48CHL1    C1 6002   1.560   3.461   9.847 -0.2664 -0.1788  0.2807
   48CHL1   H1A 6003   1.631   3.539   9.811  0.0915 -0.2343  0.8433
   48CHL1   H1B 6004   1.452   3.483   9.838 -0.3287 -0.4192  0.4267
   48CHL1    C2 6005   1.587   3.435  10.002  0.0464 -0.2337  0.8053
   48CHL1   H2A 6006   1.551   3.523  10.058 -0.8377 -0.0315 -0.0607
   48CHL1   H2B 6007   1.696   3.417  10.017  0.5853  3.4469  2.2800
   48CHL1   C20 6008   1.561   3.415   9.052 -0.5577 -0.0992 -0.4259
   48CHL1   H20 6009   1.657   3.361   9.041  0.4619  1.4791  0.4736
   48CHL1   C21 6010   1.607   3.563   9.071  0.1656  0.4109  0.2850
   48CHL1  H21A 6011   1.685   3.570   9.150  1.4444 -1.8740 -0.7098
   48CHL1  H21B 6012   1.524   3.625   9.113 -1.7579 -0.4448 -2.0019
   48CHL1  H21C 6013   1.644   3.613   8.979  2.2338 -2.9026 -0.8235
   48CHL1   C22 6014   1.480   3.397   8.923 -0.1419 -0.5335 -0.9061
   48CHL1  H22A 6015   1.551   3.415   8.839  0.9714  1.1393  0.3310
   48CHL1  H22B 6016   1.454   3.292   8.898  0.0371 -0.1545 -2.8545
   48CHL1   C23 6017   1.353   3.482   8.897 -0.2115  0.2273 -0.4858
   48CHL1  H23A 6018   1.278   3.431   8.961 -1.3731  0.9490 -1.2350
   48CHL1  H23B 6019   1.375   3.578   8.949  1.5261  0.0675 -0.8479
   48CHL1   C24 6020   1.304   3.494   8.753 -0.7332  0.4421 -0.4407
   48CHL1  H24A 6021   1.362   3.575   8.705  2.0865  0.7500  3.0882
   48CHL1  H24B 6022   1.323   3.400   8.697 -0.2271 -0.2599  0.8644
   48CHL1   C25 6023   1.153   3.542   8.742 -0.5644  0.3124  0.2220
   48CHL1   H25 6024   1.133   3.641   8.789 -0.3700 -1.1412  3.7110
   48CHL1   C26 6025   1.118   3.572   8.598  0.2130  0.0288  0.4440
   48CHL1  H26A 6026   1.179   3.660   8.568  0.5021 -0.6095 -0.9042
   48CHL1  H26B 6027   1.147   3.490   8.530  0.1075 -0.5808  1.1312
   48CHL1  H26C 6028   1.010   3.589   8.575  0.4646 -1.3536 -2.0590
   48CHL1   C27 6029   1.055   3.438   8.792  0.2370 -0.1494 -0.3257
   48CHL1  H27A 6030   1.076   3.340   8.745  2.2861 -0.9788  2.0722
   48CHL1  H27B 6031   1.083   3.421   8.898 -0.2950 -1.6656 -0.4069
   48CHL1  H27C 6032   0.945   3.452   8.786  0.0246 -2.1120 -4.0122
   49CHL1    C3 6033   0.908   5.285  10.033 -0.1178  0.3277 -0.6527
   49CHL1    H3 6034   0.992   5.353  10.060  0.4204 -1.5768  3.1936
   49CHL1    O3 6035   0.862   5.215  10.149 -0.0315  0.4030  0.7406
   49CHL1   H3' 6036   0.797   5.276  10.183 -0.1748 -0.0560  1.2921
   49CHL1    C4 6037   0.788   5.357   9.972 -0.2693 -0.9808  0.1196
   49CHL1   H4A 6038   0.699   5.290   9.978 -0.8662 -0.3447 -1.1963
   49CHL1   H4B 6039   0.771   5.442  10.042  1.1664 -1.9347  1.6902
   49CHL1    C5 6040   0.795   5.400   9.827 -0.3356 -0.0270 -0.0936
   49CHL1    C6 6041   0.776   5.531   9.794 -0.3734  0.0260  0.0950
   49CHL1    H6 6042   0.736   5.603   9.867 -0.2321 -0.3513  0.5491
   49CHL1    C7 6043   0.783   5.579   9.651  0.1729  0.5793  0.4768
   49CHL1   H7A 6044   0.706   5.652   9.619  1.3386  1.8303  0.4414
   49CHL1   H7B 6045   0.885   5.620   9.631 -0.6537  1.1565 -3.2925
   49CHL1    C8 6046   0.773   5.450   9.549 -0.5804 -0.4450 -0.2325
   49CHL1    H8 6047   0.671   5.407   9.559 -2.8248  4.2468 -0.2960
   49CHL1   C14 6048   0.790   5.486   9.406  0.3602 -0.0546  0.4777
   49CHL1   H14 6049   0.890   5.532   9.394 -0.1803  1.5172  1.6267
   49CHL1   C15 6050   0.706   5.594   9.341  0.9801 -0.1783  0.1536
   49CHL1  H15A 6051   0.604   5.579   9.384  1.3598  1.1028  1.5967
   49CHL1  H15B 6052   0.736   5.698   9.366 -0.5241  0.0893  0.9792
   49CHL1   C16 6053   0.709   5.574   9.191  0.8581  0.4348 -1.1954
   49CHL1  H16A 6054   0.612   5.539   9.150  0.6791  2.6060 -2.8001
   49CHL1  H16B 6055   0.738   5.667   9.138  1.7571  0.5434 -0.5316
   49CHL1   C17 6056   0.814   5.453   9.172  0.2998  0.5150  0.3019
   49CHL1   H17 6057   0.916   5.497   9.177  1.0276 -0.9989 -0.6990
   49CHL1   C13 6058   0.798   5.368   9.303  0.7533  0.4471  0.1440
   49CHL1   C18 6059   0.657   5.298   9.297 -0.4515  0.0770 -0.4415
   49CHL1  H18A 6060   0.661   5.224   9.215  2.9105 -1.7040  1.0999
   49CHL1  H18B 6061   0.653   5.224   9.380  3.3030 -0.5612 -0.6323
   49CHL1  H18C 6062   0.570   5.367   9.297  0.5726  1.5853  2.4062
   49CHL1   C12 6063   0.908   5.274   9.347 -0.6431  0.0116  0.1491
   49CHL1  H12A 6064   0.918   5.189   9.275  1.0260 -0.9869  1.4777
   49CHL1  H12B 6065   1.005   5.328   9.341  0.0332 -0.9748  1.4735
   49CHL1   C11 6066   0.892   5.225   9.483 -0.2922  0.5570  0.1903
   49CHL1  H11A 6067   0.811   5.149   9.480  0.6210 -0.4075 -1.3565
   49CHL1  H11B 6068   0.979   5.160   9.509 -0.4506  0.8602  1.5629
   49CHL1    C9 6069   0.868   5.337   9.592  1.2516 -0.1368  0.0636
   49CHL1    H9 6070   0.965   5.391   9.595  0.7356  0.7787  1.5670
   49CHL1   C10 6071   0.837   5.283   9.734  0.5909 -0.1078  0.1635
   49CHL1   C19 6072   0.728   5.174   9.727  0.4868  0.5531 -0.7109
   49CHL1  H19A 6073   0.631   5.218   9.696 -0.4382  0.8966  2.3242
   49CHL1  H19B 6074   0.753   5.086   9.664 -1.1601 -1.6403  1.5206
   49CHL1  H19C 6075   0.717   5.123   9.826 -0.9957  1.3098 -0.4587
   49CHL1    C1 6076   0.966   5.221   9.796  0.3321  0.4535 -0.0716
   49CHL1   H1A 6077   0.987   5.127   9.740 -1.3148  0.0245 -0.0145
   49CHL1   H1B 6078   1.042   5.302   9.797  1.7587 -0.8293 -0.4068
   49CHL1    C2 6079   0.960   5.176   9.942 -0.1092  0.1401 -0.5626
   49CHL1   H2A 6080   1.060   5.140   9.976  0.3271  2.1075  0.3756
   49CHL1   H2B 6081   0.887   5.093   9.950 -2.0546  1.8616  0.6485
   49CHL1   C20 6082   0.793   5.382   9.032  0.3048 -0.0229 -0.0111
   49CHL1   H20 6083   0.692   5.336   9.038  0.0151  0.7510  1.7467
   49CHL1   C21 6084   0.902   5.287   9.002  0.2090  0.0943 -0.8813
   49CHL1  H21A 6085   0.891   5.193   9.061  0.6642  1.8762  2.2667
   49CHL1  H21B 6086   1.001   5.327   9.029  0.2136 -0.4690 -0.0202
   49CHL1  H21C 6087   0.903   5.260   8.894 -1.3563  0.8755 -1.1251
   49CHL1   C22 6088   0.780   5.484   8.911 -0.5775  0.5694  0.0296
   49CHL1  H22A 6089   0.767   5.439   8.811  1.5635 -0.1182  0.0110
   49CHL1  H22B 6090   0.690   5.546   8.934  0.6024  1.9685  1.0530
   49CHL1   C23 6091   0.901   5.580   8.897  0.5141  0.2656  0.0931
   49CHL1  H23A 6092   0.898   5.639   8.991 -0.6936 -0.9484  0.8477
   49CHL1  H23B 6093   1.005   5.542   8.903  0.5572  0.4508  0.5616
   49CHL1   C24 6094   0.890   5.675   8.768 -1.2117 -0.9707  0.3655
   49CHL1  H24A 6095   0.894   5.606   8.681  1.3157  0.7936 -1.0421
   49CHL1  H24B 6096   0.786   5.716   8.772 -0.5924  0.8653 -1.0186
   49CHL1   C25 6097   0.993   5.789   8.760  0.1705  0.4200 -0.3095
   49CHL1   H25 6098   0.988   5.848   8.853  2.5711 -1.6258  1.2382
   49CHL1   C26 6099   1.137   5.736   8.740  0.2906  0.0324 -0.2116
   49CHL1  H26A 6100   1.153   5.670   8.652  1.9811  0.9232 -0.6076
   49CHL1  H26B 6101   1.215   5.814   8.733  0.7887 -0.3637  0.7515
   49CHL1  H26C 6102   1.149   5.684   8.837  1.2160 -0.9400 -0.8323
   49CHL1   C27 6103   0.960   5.877   8.638  0.0165  0.4298 -0.1541
   49CHL1  H27A 6104   0.956   5.822   8.541  0.4571 -1.3656  0.8184
   49CHL1  H27B 6105   0.854   5.909   8.650 -0.6980 -2.3093  1.6150
   49CHL1  H27C 6106   1.023   5.968   8.627 -0.5548  0.8505 -0.0394
   50CHL1    C3 6107   4.371   0.934  10.287 -0.7421 -0.0696  1.0773
   50CHL1    H3 6108   4.430   0.841  10.291 -0.8963 -0.3535 -1.4329
   50CHL1    O3 6109   4.357   0.997  10.407  1.0350 -0.0942 -0.8723
   50CHL1   H3' 6110   4.281   1.054  10.392  2.6278  2.6936  0.8466
   50CHL1    C4 6111   4.464   1.025  10.199 -0.5242  0.5369  0.7375
   50CHL1   H4A 6112   4.420   1.127  10.198  1.0664  1.2690 -1.2504
   50CHL1   H4B 6113   4.560   1.037  10.255  0.0553  0.1790 -0.1609
   50CHL1    C5 6114   4.485   0.970  10.059  0.5027 -0.3525  0.3378
   50CHL1    C6 6115   4.606   0.948  10.012  0.1105  0.3280 -0.1156
   50CHL1    H6 6116   4.687   0.969  10.084 -1.9663  1.3619  2.0771
   50CHL1    C7 6117   4.641   0.887   9.876  0.3874 -0.0636 -0.4513
   50CHL1   H7A 6118   4.713   0.936   9.808  0.5573 -0.0551 -0.2666
   50CHL1   H7B 6119   4.678   0.784   9.895 -0.4269 -0.4382 -0.8243
   50CHL1    C8 6120   4.513   0.884   9.792  0.6943  0.1233 -0.0736
   50CHL1    H8 6121   4.505   0.988   9.754  1.9598  0.1490 -0.2837
   50CHL1   C14 6122   4.535   0.785   9.679 -0.2113 -0.1652  0.1099
   50CHL1   H14 6123   4.550   0.685   9.726 -1.7322  0.3661  1.8300
   50CHL1   C15 6124   4.666   0.798   9.600 -0.5857 -0.7945  0.2540
   50CHL1  H15A 6125   4.678   0.906   9.576 -0.7496 -0.9229 -0.4097
   50CHL1  H15B 6126   4.761   0.769   9.652 -0.9257 -2.2358  0.1194
   50CHL1   C16 6127   4.640   0.717   9.472 -0.4108  0.2047  0.3748
   50CHL1  H16A 6128   4.691   0.766   9.385  1.2767 -2.0557 -0.0011
   50CHL1  H16B 6129   4.697   0.623   9.485  0.4881  0.6962  0.1013
   50CHL1   C17 6130   4.484   0.682   9.473  0.0740  0.4610 -0.2892
   50CHL1   H17 6131   4.475   0.579   9.512 -1.4131  0.6080 -0.1663
   50CHL1   C13 6132   4.417   0.771   9.582 -0.3302  0.2757 -0.1424
   50CHL1   C18 6133   4.380   0.909   9.532  0.4104  0.1028  0.3572
   50CHL1  H18A 6134   4.288   0.910   9.469  0.7342  0.8045 -0.1087
   50CHL1  H18B 6135   4.377   0.996   9.601  0.7668  0.8895 -0.6085
   50CHL1  H18C 6136   4.457   0.953   9.466  1.0949 -0.7446  0.5745
   50CHL1   C12 6137   4.304   0.709   9.661 -0.4778  0.7411 -0.1232
   50CHL1  H12A 6138   4.221   0.678   9.594  2.3981 -0.6066 -3.3882
   50CHL1  H12B 6139   4.351   0.623   9.713  0.6057  2.3960  1.7606
   50CHL1   C11 6140   4.268   0.799   9.778 -0.3269 -0.1403 -0.3900
   50CHL1  H11A 6141   4.220   0.891   9.739  0.5024  0.5082  0.0756
   50CHL1  H11B 6142   4.190   0.744   9.834 -2.3419  0.2554 -2.6418
   50CHL1    C9 6143   4.387   0.838   9.864  0.0499 -0.9724 -0.0309
   50CHL1    H9 6144   4.412   0.741   9.913 -0.2369 -2.0868 -2.0092
   50CHL1   C10 6145   4.349   0.933   9.983  0.7611  0.2887 -0.0241
   50CHL1   C19 6146   4.277   1.058   9.942  0.7506 -0.5636  0.3432
   50CHL1  H19A 6147   4.308   1.103   9.845 -1.1946 -0.6158 -0.3538
   50CHL1  H19B 6148   4.171   1.033   9.921  1.2337 -2.9799  0.5519
   50CHL1  H19C 6149   4.271   1.135  10.022  0.8290  0.0172 -0.2005
   50CHL1    C1 6150   4.256   0.854  10.078  0.0453 -0.2703 -0.0501
   50CHL1   H1A 6151   4.157   0.841  10.029  0.4155  1.2373 -1.2863
   50CHL1   H1B 6152   4.303   0.754  10.081  0.7813  0.0916  1.5026
   50CHL1    C2 6153   4.237   0.911  10.224  0.8729  0.3277  1.0105
   50CHL1   H2A 6154   4.183   0.834  10.284 -0.4625  0.4280 -0.0222
   50CHL1   H2B 6155   4.182   1.007  10.216  1.2674  0.4024 -2.0293
   50CHL1   C20 6156   4.419   0.687   9.338  0.4011  0.1460 -0.8308
   50CHL1   H20 6157   4.411   0.793   9.305 -0.3846  0.0986 -0.8105
   50CHL1   C21 6158   4.277   0.622   9.344 -0.0874 -0.4538  0.3100
   50CHL1  H21A 6159   4.256   0.598   9.238  0.2080 -0.4161  0.2410
   50CHL1  H21B 6160   4.201   0.692   9.383  1.7016  1.2510  0.9175
   50CHL1  H21C 6161   4.286   0.534   9.412  0.7686  0.0186  0.8231
   50CHL1   C22 6162   4.503   0.604   9.230  0.2792 -0.5893 -0.4311
   50CHL1  H22A 6163   4.437   0.600   9.141 -1.0909 -0.9242  0.5511
   50CHL1  H22B 6164   4.598   0.653   9.202 -0.6831  1.5134 -0.1807
   50CHL1   C23 6165   4.534   0.456   9.267  0.3759  0.3538 -0.7630
   50CHL1  H23A 6166   4.590   0.456   9.363  1.1871  0.1337 -1.2237
   50CHL1  H23B 6167   4.431   0.415   9.276  0.7579 -0.6223 -0.6751
   50CHL1   C24 6168   4.585   0.381   9.147  0.1986 -0.2127 -0.2053
   50CHL1  H24A 6169   4.586   0.271   9.159 -0.9426 -0.2792 -0.5981
   50CHL1  H24B 6170   4.509   0.391   9.066 -1.5005  0.4344  1.3806
   50CHL1   C25 6171   4.725   0.420   9.086  0.7004  0.3457  0.1990
   50CHL1   H25 6172   4.734   0.529   9.072  0.8475  0.3038 -0.0418
   50CHL1   C26 6173   4.831   0.365   9.189  0.0828  0.0014  0.0377
   50CHL1  H26A 6174   4.934   0.389   9.157  0.1139 -0.4356 -0.1964
   50CHL1  H26B 6175   4.796   0.421   9.278 -0.2265  0.0120 -0.0892
   50CHL1  H26C 6176   4.831   0.255   9.205 -0.2495  0.2435  1.9240
   50CHL1   C27 6177   4.753   0.353   8.946 -0.4737  0.1331  0.0135
   50CHL1  H27A 6178   4.724   0.246   8.939 -0.7589  0.0586  1.9196
   50CHL1  H27B 6179   4.704   0.413   8.866  0.9414  0.6687 -0.4946
   50CHL1  H27C 6180   4.863   0.355   8.932 -0.3500  0.9449  1.0257
   51CHL1    C3 6181   4.106   3.512  10.120  0.5272  0.0396  0.2826
   51CHL1    H3 6182   4.073   3.407  10.130 -2.1370  0.8157  0.5057
   51CHL1    O3 6183   4.118   3.568  10.248 -0.5476 -0.3140 -0.0590
   51CHL1   H3' 6184   4.031   3.573  10.287  0.4521  2.4202  2.1977
   51CHL1    C4 6185   4.245   3.520  10.052 -0.4906 -0.0762 -0.3511
   51CHL1   H4A 6186   4.270   3.628  10.044 -0.8174  0.1567  1.3750
   51CHL1   H4B 6187   4.319   3.472  10.119 -0.7731  3.4574  2.8473
   51CHL1    C5 6188   4.238   3.462   9.911 -0.2831 -0.1453 -0.1075
   51CHL1    C6 6189   4.320   3.364   9.873  0.3602 -0.1345  0.9001
   51CHL1    H6 6190   4.386   3.309   9.942  3.1722 -0.3180 -1.7068
   51CHL1    C7 6191   4.331   3.304   9.728  0.1948 -0.3444 -0.4432
   51CHL1   H7A 6192   4.436   3.290   9.693  0.3934  0.9115 -0.3642
   51CHL1   H7B 6193   4.276   3.207   9.726 -1.1306  0.3876 -1.1888
   51CHL1    C8 6194   4.247   3.399   9.627  0.5004 -0.7830 -0.5454
   51CHL1    H8 6195   4.307   3.488   9.597 -0.8114 -0.3899 -2.1376
   51CHL1   C14 6196   4.216   3.321   9.503 -0.3876  0.5502  0.2042
   51CHL1   H14 6197   4.162   3.227   9.529  0.5005 -0.0787 -0.1738
   51CHL1   C15 6198   4.331   3.267   9.415  0.2858 -0.0851 -0.2910
   51CHL1  H15A 6199   4.413   3.343   9.421 -0.7309  1.0462 -0.2509
   51CHL1  H15B 6200   4.363   3.173   9.463  0.4292 -0.7564 -1.6492
   51CHL1   C16 6201   4.274   3.245   9.271 -0.3480  0.2354  0.2159
   51CHL1  H16A 6202   4.325   3.305   9.192 -0.5611 -1.4899 -1.2873
   51CHL1  H16B 6203   4.278   3.135   9.255  0.0416  0.4440 -1.2550
   51CHL1   C17 6204   4.132   3.306   9.269  0.6064  0.7866 -1.4782
   51CHL1   H17 6205   4.061   3.224   9.294 -0.9490  2.3500 -0.5430
   51CHL1   C13 6206   4.124   3.390   9.397  0.6658 -0.3151 -0.1310
   51CHL1   C18 6207   4.183   3.531   9.359 -0.3214  0.0208  0.2472
   51CHL1  H18A 6208   4.277   3.521   9.301 -0.4801  2.5334 -0.5369
   51CHL1  H18B 6209   4.111   3.595   9.304 -0.8236  1.6926  2.6793
   51CHL1  H18C 6210   4.213   3.585   9.452  1.3116 -2.2711  1.1470
   51CHL1   C12 6211   3.991   3.424   9.469  0.6863  0.4583 -0.2172
   51CHL1  H12A 6212   3.917   3.486   9.414  0.9927  3.8020  2.7425
   51CHL1  H12B 6213   3.939   3.327   9.484  0.3250  0.4676 -1.3644
   51CHL1   C11 6214   4.007   3.503   9.595  0.0339 -0.1668  0.4949
   51CHL1  H11A 6215   4.011   3.611   9.569 -4.1178  0.6083  2.3306
   51CHL1  H11B 6216   3.913   3.489   9.653  1.1073 -2.4502  1.8129
   51CHL1    C9 6217   4.114   3.442   9.692  0.8796 -0.1337 -0.8196
   51CHL1    H9 6218   4.072   3.347   9.731  2.2260  0.0106  1.1545
   51CHL1   C10 6219   4.128   3.528   9.827  0.1102  1.0203  1.0137
   51CHL1   C19 6220   4.173   3.675   9.791 -0.6442  0.1969 -0.2220
   51CHL1  H19A 6221   4.101   3.731   9.728  0.8673  2.0024 -0.4261
   51CHL1  H19B 6222   4.180   3.745   9.877 -0.5780 -1.6320  1.3290
   51CHL1  H19C 6223   4.279   3.675   9.756 -0.5002  0.9504  0.1873
   51CHL1    C1 6224   3.996   3.537   9.899 -0.2408  0.5252 -0.5036
   51CHL1   H1A 6225   3.920   3.600   9.848  0.8547  2.6102  0.3034
   51CHL1   H1B 6226   3.950   3.436   9.898  0.2419  0.2771  0.5430
   51CHL1    C2 6227   4.004   3.591  10.041  0.3919  0.2040 -1.3334
   51CHL1   H2A 6228   3.905   3.579  10.090  1.3489  0.3677  0.7654
   51CHL1   H2B 6229   4.019   3.701  10.027  0.3598  1.1771  4.1336
   51CHL1   C20 6230   4.076   3.358   9.137 -1.0581 -0.5231 -0.2351
   51CHL1   H20 6231   4.121   3.455   9.104  0.7248 -0.5432  1.9142
   51CHL1   C21 6232   3.925   3.378   9.150 -0.3025  0.0667  0.1048
   51CHL1  H21A 6233   3.911   3.481   9.188 -1.3776  0.3402 -0.9411
   51CHL1  H21B 6234   3.875   3.304   9.217 -0.3045  2.1926  2.6115
   51CHL1  H21C 6235   3.874   3.376   9.051  0.4165  0.8814 -0.2943
   51CHL1   C22 6236   4.102   3.257   9.024  0.4503  0.3653  0.0322
   51CHL1  H22A 6237   4.203   3.211   9.022  0.3350 -0.2521  3.3437
   51CHL1  H22B 6238   4.049   3.160   9.032  0.6442  0.1444 -1.1423
   51CHL1   C23 6239   4.071   3.299   8.885 -0.0784  0.1830  0.1933
   51CHL1  H23A 6240   3.963   3.324   8.872 -0.3317 -1.1217 -0.3153
   51CHL1  H23B 6241   4.138   3.384   8.860 -0.0772 -0.0034 -0.4610
   51CHL1   C24 6242   4.109   3.182   8.785  0.0327 -0.3782  0.7407
   51CHL1  H24A 6243   4.218   3.162   8.795  0.2347  0.5864  0.5309
   51CHL1  H24B 6244   4.057   3.086   8.806  2.1892 -1.6318  0.6210
   51CHL1   C25 6245   4.089   3.216   8.627 -0.7872 -0.0295 -0.6070
   51CHL1   H25 6246   3.980   3.223   8.606 -1.3875 -1.9448  1.4918
   51CHL1   C26 6247   4.178   3.332   8.575 -0.9131  0.2909  0.2288
   51CHL1  H26A 6248   4.168   3.349   8.466  2.8854  3.1106  0.1102
   51CHL1  H26B 6249   4.153   3.435   8.610 -0.9067  0.0465  0.9759
   51CHL1  H26C 6250   4.281   3.312   8.612 -0.1067  0.7101 -1.6629
   51CHL1   C27 6251   4.129   3.092   8.544 -0.3555 -0.5883  0.6378
   51CHL1  H27A 6252   4.063   3.009   8.576 -1.7716  0.5626  0.7703
   51CHL1  H27B 6253   4.116   3.124   8.438  2.1827 -0.9772  0.1467
   51CHL1  H27C 6254   4.233   3.051   8.549 -0.0457  0.3023  2.4081
   52CHL1    C3 6255   0.645   3.141  10.017  0.8108 -0.4604 -0.5323
   52CHL1    H3 6256   0.755   3.154  10.015  0.5459  2.8450  0.1301
   52CHL1    O3 6257   0.606   3.125  10.151 -0.5053  0.4271 -0.5840
   52CHL1   H3' 6258   0.538   3.058  10.151  1.3741 -1.7465  2.1233
   52CHL1    C4 6259   0.569   3.260   9.971 -0.3569  0.1793  0.2835
   52CHL1   H4A 6260   0.461   3.251   9.997 -0.3051  0.4410  0.6026
   52CHL1   H4B 6261   0.586   3.346  10.040  1.3305  1.0695 -1.1641
   52CHL1    C5 6262   0.582   3.282   9.819  0.6980  0.5861 -0.1123
   52CHL1    C6 6263   0.617   3.398   9.760  0.3857 -0.0054  0.1601
   52CHL1    H6 6264   0.626   3.483   9.830 -1.2997 -0.6161  1.1889
   52CHL1    C7 6265   0.621   3.431   9.613  0.4432  0.0349 -0.1031
   52CHL1   H7A 6266   0.587   3.532   9.583  2.4162  0.1487 -2.2901
   52CHL1   H7B 6267   0.730   3.447   9.600  0.5787  0.6086  1.4962
   52CHL1    C8 6268   0.550   3.320   9.531 -0.3633  0.1210 -0.1747
   52CHL1    H8 6269   0.444   3.351   9.543  0.2266  1.5225  2.1069
   52CHL1   C14 6270   0.580   3.326   9.381  0.6180 -0.0218  0.2147
   52CHL1   H14 6271   0.686   3.294   9.379 -0.1129 -2.7177  1.2740
   52CHL1   C15 6272   0.577   3.467   9.316  0.1898 -0.9001 -0.5591
   52CHL1  H15A 6273   0.505   3.543   9.352  1.2816  0.8182 -1.8204
   52CHL1  H15B 6274   0.679   3.507   9.333 -0.7821  1.4438  0.0907
   52CHL1   C16 6275   0.562   3.438   9.164 -0.4969 -0.0258  0.1587
   52CHL1  H16A 6276   0.467   3.486   9.131  0.0847 -0.8047 -2.9211
   52CHL1  H16B 6277   0.642   3.482   9.102  1.9308 -0.0204  3.0477
   52CHL1   C17 6278   0.548   3.286   9.152  0.0774  0.0432 -0.4128
   52CHL1   H17 6279   0.657   3.267   9.141 -0.4268 -2.5002 -1.6102
   52CHL1   C13 6280   0.502   3.236   9.288  0.0375 -0.2354  0.2885
   52CHL1   C18 6281   0.354   3.278   9.299  0.4757  0.1697  0.4458
   52CHL1  H18A 6282   0.290   3.208   9.241 -0.7896  0.1147  1.8472
   52CHL1  H18B 6283   0.311   3.263   9.401 -2.7469 -1.3104 -0.9861
   52CHL1  H18C 6284   0.332   3.383   9.271 -0.0270 -0.3478 -1.2053
   52CHL1   C12 6285   0.533   3.090   9.332 -0.6021 -0.3700 -0.2905
   52CHL1  H12A 6286   0.471   3.018   9.276 -1.2279 -1.8756  2.1695
   52CHL1  H12B 6287   0.637   3.057   9.310 -0.7020 -1.1346  0.3293
   52CHL1   C11 6288   0.505   3.078   9.487 -0.3570 -0.0700  0.4475
   52CHL1  H11A 6289   0.396   3.082   9.504 -0.4745  0.7211 -0.4160
   52CHL1  H11B 6290   0.530   2.972   9.506  0.0226 -0.5443 -2.2795
   52CHL1    C9 6291   0.571   3.177   9.582  0.0605 -0.4827  0.2146
   52CHL1    H9 6292   0.681   3.166   9.567  0.0939  2.0399 -2.2909
   52CHL1   C10 6293   0.541   3.155   9.729 -0.3564  0.5920  0.1033
   52CHL1   C19 6294   0.386   3.136   9.749 -1.3945 -0.4242 -0.2046
   52CHL1  H19A 6295   0.333   3.229   9.719 -2.0796 -0.0134  2.0328
   52CHL1  H19B 6296   0.343   3.052   9.691 -1.2201 -0.7809  0.1740
   52CHL1  H19C 6297   0.358   3.123   9.856 -0.1367  1.6312  0.4479
   52CHL1    C1 6298   0.610   3.028   9.787  0.2851  0.3385  0.0271
   52CHL1   H1A 6299   0.577   2.937   9.733  2.1824  0.2545 -1.1125
   52CHL1   H1B 6300   0.715   3.034   9.751  0.3997  1.6216  0.4952
   52CHL1    C2 6301   0.607   3.015   9.941 -0.0553  0.6209  0.0052
   52CHL1   H2A 6302   0.675   2.932   9.969  1.1129  1.5967  0.1298
   52CHL1   H2B 6303   0.508   2.985   9.981  1.1605  1.3326  4.0019
   52CHL1   C20 6304   0.492   3.242   9.020  0.4957  0.2271  0.6637
   52CHL1   H20 6305   0.386   3.275   9.020 -0.2584 -1.8435 -1.4505
   52CHL1   C21 6306   0.486   3.084   9.009 -0.0645 -0.3724 -0.0872
   52CHL1  H21A 6307   0.584   3.034   9.028  0.0769 -0.0619  0.0218
   52CHL1  H21B 6308   0.455   3.065   8.905 -0.3943  1.4365 -0.3463
   52CHL1  H21C 6309   0.413   3.043   9.082 -3.8245  0.9249 -2.8689
   52CHL1   C22 6310   0.563   3.302   8.896 -0.1885  0.5107  0.4882
   52CHL1  H22A 6311   0.656   3.349   8.932 -0.2516  0.6684  0.4441
   52CHL1  H22B 6312   0.595   3.225   8.822  1.3801  1.0416  0.5910
   52CHL1   C23 6313   0.479   3.414   8.831  0.3920  0.6543  0.9848
   52CHL1  H23A 6314   0.380   3.370   8.805  1.2838 -0.9429  0.0673
   52CHL1  H23B 6315   0.482   3.499   8.901  3.3724  0.7805  0.8495
   52CHL1   C24 6316   0.544   3.453   8.698  0.0501 -0.1019  0.5989
   52CHL1  H24A 6317   0.643   3.497   8.723 -0.6878  0.8624  1.9662
   52CHL1  H24B 6318   0.553   3.357   8.643 -1.2694 -2.2622  3.8330
   52CHL1   C25 6319   0.468   3.562   8.625  0.0560  0.1998  0.1469
   52CHL1   H25 6320   0.362   3.534   8.643 -0.0409 -0.5701 -1.5359
   52CHL1   C26 6321   0.494   3.702   8.689  0.2332  0.6051 -0.1298
   52CHL1  H26A 6322   0.460   3.712   8.794  0.2745 -1.2202  0.0951
   52CHL1  H26B 6323   0.601   3.732   8.693  0.1405  0.8060  1.7453
   52CHL1  H26C 6324   0.443   3.778   8.627  0.4813 -0.4809 -1.7359
   52CHL1   C27 6325   0.502   3.560   8.480  0.4507 -0.1624  0.4035
   52CHL1  H27A 6326   0.453   3.479   8.422 -0.6631  0.1725  0.8605
   52CHL1  H27B 6327   0.472   3.657   8.436  1.4139 -0.0298 -0.0081
   52CHL1  H27C 6328   0.609   3.547   8.453  0.0625  0.9365 -1.8725
   53CHL1    C3 6329   2.575   2.072  10.008  0.0677  0.3125 -0.0517
   53CHL1    H3 6330   2.498   1.997   9.980  2.0800 -1.9828  0.2199
   53CHL1    O3 6331   2.579   2.119  10.135 -0.4419 -0.3158 -0.6720
   53CHL1   H3' 6332   2.646   2.066  10.178 -0.6967 -0.9633 -1.0655
   53CHL1    C4 6333   2.715   2.010   9.984  0.1385  0.4044  0.1950
   53CHL1   H4A 6334   2.795   2.078  10.020  0.4484 -1.0150  2.3742
   53CHL1   H4B 6335   2.719   1.920  10.048  0.3123 -0.1618 -0.6095
   53CHL1    C5 6336   2.737   1.974   9.839  0.4136  0.1079 -0.0357
   53CHL1    C6 6337   2.767   1.846   9.807 -0.5714 -0.0410 -0.3027
   53CHL1    H6 6338   2.775   1.774   9.891  0.6237 -0.5487 -0.8284
   53CHL1    C7 6339   2.788   1.798   9.669  0.1285 -0.7696 -0.3236
   53CHL1   H7A 6340   2.884   1.744   9.666 -1.1556 -3.2109  0.0280
   53CHL1   H7B 6341   2.719   1.718   9.635  1.3985 -1.5000 -1.2589
   53CHL1    C8 6342   2.784   1.907   9.560 -0.2857  0.1737  0.4360
   53CHL1    H8 6343   2.880   1.962   9.549 -0.5565  0.6700  0.5203
   53CHL1   C14 6344   2.748   1.852   9.420  0.0265  0.0374 -0.0128
   53CHL1   H14 6345   2.640   1.828   9.414 -0.9954  3.6242  1.1925
   53CHL1   C15 6346   2.834   1.729   9.373  0.2362  0.4401  0.8021
   53CHL1  H15A 6347   2.941   1.738   9.402  0.9811  0.2926 -1.6302
   53CHL1  H15B 6348   2.786   1.638   9.414 -1.9490  0.5791 -1.2208
   53CHL1   C16 6349   2.813   1.721   9.218  0.4681  0.5787  0.0168
   53CHL1  H16A 6350   2.897   1.739   9.146 -1.6286  0.5620 -2.6005
   53CHL1  H16B 6351   2.759   1.630   9.184  0.3737 -0.0351  1.7374
   53CHL1   C17 6352   2.727   1.846   9.190 -0.0343 -0.3494  0.6316
   53CHL1   H17 6353   2.623   1.814   9.211  0.1275 -1.2118  0.1750
   53CHL1   C13 6354   2.762   1.944   9.304 -0.4540  0.1850  0.2834
   53CHL1   C18 6355   2.909   1.985   9.286 -0.0551  0.4916  0.3102
   53CHL1  H18A 6356   2.915   2.046   9.193  0.4356  0.5665  0.3850
   53CHL1  H18B 6357   2.944   2.060   9.361 -0.1221 -1.0867  1.9908
   53CHL1  H18C 6358   2.979   1.900   9.271 -0.4765  0.6331 -3.0923
   53CHL1   C12 6359   2.669   2.064   9.330  1.1359  0.5094  0.4419
   53CHL1  H12A 6360   2.691   2.150   9.263 -0.8273  0.2628 -0.5849
   53CHL1  H12B 6361   2.569   2.018   9.318  1.8417 -1.1537  0.7686
   53CHL1   C11 6362   2.679   2.127   9.468  0.0411  0.6821  0.1109
   53CHL1  H11A 6363   2.773   2.186   9.475  0.4452 -0.0027  0.5615
   53CHL1  H11B 6364   2.596   2.198   9.488  1.0557  1.8686  0.1721
   53CHL1    C9 6365   2.685   2.021   9.591  0.4052  0.1230 -0.1186
   53CHL1    H9 6366   2.582   1.980   9.584 -0.6847  2.7080 -0.1795
   53CHL1   C10 6367   2.705   2.078   9.729  0.0569 -0.3443  0.0482
   53CHL1   C19 6368   2.834   2.166   9.737 -0.4147 -0.4905  0.6461
   53CHL1  H19A 6369   2.838   2.226   9.830 -0.3278  0.0929  0.2668
   53CHL1  H19B 6370   2.934   2.123   9.713  1.5616  4.5862 -1.6452
   53CHL1  H19C 6371   2.819   2.256   9.673  0.6046 -1.5521 -1.1869
   53CHL1    C1 6372   2.570   2.146   9.767 -0.3318 -0.5204 -0.0581
   53CHL1   H1A 6373   2.544   2.230   9.700  2.2393 -0.3113 -0.8735
   53CHL1   H1B 6374   2.492   2.069   9.746 -1.5165  0.6594 -0.1096
   53CHL1    C2 6375   2.554   2.190   9.914  0.7801  0.4252  0.3331
   53CHL1   H2A 6376   2.454   2.236   9.926  1.0185  0.4904  2.2584
   53CHL1   H2B 6377   2.623   2.273   9.941 -0.4035  1.4457  0.3006
   53CHL1   C20 6378   2.737   1.884   9.042  0.2681 -0.4275  0.1074
   53CHL1   H20 6379   2.842   1.912   9.020 -0.3003 -0.3891 -2.9801
   53CHL1   C21 6380   2.634   1.997   9.004 -0.0847  0.0130 -0.7042
   53CHL1  H21A 6381   2.638   2.018   8.895  1.1319 -3.1414 -1.3717
   53CHL1  H21B 6382   2.672   2.089   9.053 -0.3470 -0.7503  1.0088
   53CHL1  H21C 6383   2.527   1.978   9.030  0.0371 -0.3600 -0.4658
   53CHL1   C22 6384   2.712   1.774   8.935  0.4301 -0.3195  0.1389
   53CHL1  H22A 6385   2.767   1.684   8.971  0.3375 -0.0478  0.9959
   53CHL1  H22B 6386   2.603   1.751   8.935  0.8547 -2.6158 -0.8715
   53CHL1   C23 6387   2.750   1.803   8.791 -0.4574 -0.5875 -0.5084
   53CHL1  H23A 6388   2.676   1.878   8.753 -1.7215 -0.6391  1.6839
   53CHL1  H23B 6389   2.853   1.842   8.798 -0.3933 -1.0990  3.0663
   53CHL1   C24 6390   2.754   1.678   8.710  0.2466  0.1598 -0.5529
   53CHL1  H24A 6391   2.813   1.596   8.755  0.1004 -0.0579 -0.7542
   53CHL1  H24B 6392   2.647   1.649   8.701 -0.4940  2.9218 -1.9540
   53CHL1   C25 6393   2.808   1.693   8.566 -0.0552  0.1575 -0.0948
   53CHL1   H25 6394   2.755   1.775   8.515  0.9896  0.6699 -0.3906
   53CHL1   C26 6395   2.958   1.720   8.578 -0.2485  0.3398 -0.2395
   53CHL1  H26A 6396   3.014   1.721   8.482  2.1916  0.4384  1.1154
   53CHL1  H26B 6397   2.984   1.822   8.613 -0.1264  1.1645 -2.5459
   53CHL1  H26C 6398   3.003   1.638   8.639 -2.4282 -1.1334 -0.4657
   53CHL1   C27 6399   2.788   1.557   8.498  0.2473  0.0854  0.3596
   53CHL1  H27A 6400   2.680   1.532   8.507 -0.3534  1.6398 -1.7562
   53CHL1  H27B 6401   2.819   1.550   8.391 -3.0400  0.5574 -0.7399
   53CHL1  H27C 6402   2.846   1.485   8.559  0.6049  0.3227  0.3048
   54CHL1    C3 6403   3.086   4.742  10.238  0.1388 -0.5380 -0.0923
   54CHL1    H3 6404   3.050   4.842  10.206 -0.4022 -0.4156  0.8416
   54CHL1    O3 6405   3.035   4.712  10.366 -0.7459  0.1030  0.1864
   54CHL1   H3' 6406   3.062   4.624  10.395 -0.0203  0.9211  2.0928
   54CHL1    C4 6407   3.046   4.625  10.137 -0.4354  0.2511  0.0694
   54CHL1   H4A 6408   3.085   4.525  10.166 -1.3008 -0.4864 -1.2240
   54CHL1   H4B 6409   2.935   4.621  10.132 -0.5753  3.1500 -0.7407
   54CHL1    C5 6410   3.109   4.660  10.001 -0.2088 -0.0771  0.3267
   54CHL1    C6 6411   3.031   4.686   9.895 -0.6873  0.5403  0.9381
   54CHL1    H6 6412   2.922   4.673   9.898 -0.9223  1.9672 -0.3530
   54CHL1    C7 6413   3.080   4.709   9.753 -0.0740  0.8599 -0.4776
   54CHL1   H7A 6414   3.022   4.645   9.682  1.9961 -0.7130 -0.8703
   54CHL1   H7B 6415   3.072   4.818   9.736  1.1615  1.3862  1.9556
   54CHL1    C8 6416   3.233   4.676   9.746  0.0686  0.1451  0.9109
   54CHL1    H8 6417   3.250   4.566   9.747  0.5481  0.1925 -0.2041
   54CHL1   C14 6418   3.286   4.731   9.612 -0.2957 -0.6172 -0.9796
   54CHL1   H14 6419   3.262   4.839   9.611  0.5477 -0.2528  2.9043
   54CHL1   C15 6420   3.221   4.685   9.488  0.9245  0.2120  0.5707
   54CHL1  H15A 6421   3.201   4.576   9.487  0.8173  0.2217  1.3291
   54CHL1  H15B 6422   3.122   4.735   9.491  0.1974 -0.6278 -3.4861
   54CHL1   C16 6423   3.310   4.731   9.370  0.1379 -0.7359  0.7435
   54CHL1  H16A 6424   3.339   4.648   9.302  0.7614  1.4799 -1.8630
   54CHL1  H16B 6425   3.269   4.818   9.314  3.3331 -0.3116 -1.1951
   54CHL1   C17 6426   3.443   4.774   9.438 -0.2502 -0.1013 -0.6495
   54CHL1   H17 6427   3.435   4.884   9.442 -1.3203 -0.1918  0.2648
   54CHL1   C13 6428   3.435   4.719   9.584 -0.3465  0.0178  0.4518
   54CHL1   C18 6429   3.482   4.571   9.579  0.5574 -0.3021  0.2338
   54CHL1  H18A 6430   3.592   4.557   9.591  0.8674  0.6672 -1.2501
   54CHL1  H18B 6431   3.424   4.507   9.649  0.3207  1.2835  1.5452
   54CHL1  H18C 6432   3.455   4.537   9.476  2.0211  1.5570 -0.8258
   54CHL1   C12 6433   3.498   4.792   9.699  0.0985 -0.0686  0.7479
   54CHL1  H12A 6434   3.607   4.808   9.682  0.6378 -1.8436  2.2074
   54CHL1  H12B 6435   3.452   4.893   9.687  0.5583 -0.0336 -1.0783
   54CHL1   C11 6436   3.467   4.734   9.833  0.2974  0.1359 -0.7570
   54CHL1  H11A 6437   3.508   4.631   9.841  0.0570  0.0010 -1.2199
   54CHL1  H11B 6438   3.510   4.793   9.916 -0.5662  0.1434 -0.3005
   54CHL1    C9 6439   3.310   4.733   9.863  0.3004 -0.5717  0.3875
   54CHL1    H9 6440   3.283   4.841   9.865  2.3446  0.0091 -0.4122
   54CHL1   C10 6441   3.263   4.678   9.995 -0.2972  0.5381  0.3821
   54CHL1   C19 6442   3.325   4.543  10.021 -0.4337  0.7363  0.2616
   54CHL1  H19A 6443   3.295   4.506  10.121 -0.1661 -1.4865 -0.4235
   54CHL1  H19B 6444   3.306   4.465   9.945  1.0392  0.3777  0.2414
   54CHL1  H19C 6445   3.435   4.533  10.026 -0.6500 -2.1488  0.6317
   54CHL1    C1 6446   3.308   4.769  10.117  0.1496  0.3407 -0.0753
   54CHL1   H1A 6447   3.418   4.759  10.130  0.1419  0.1983 -0.1268
   54CHL1   H1B 6448   3.279   4.871  10.084 -2.7704 -0.4546 -0.2474
   54CHL1    C2 6449   3.238   4.747  10.254 -0.4501 -0.1000  0.3924
   54CHL1   H2A 6450   3.265   4.827  10.326  2.8874  0.9246 -1.7628
   54CHL1   H2B 6451   3.280   4.657  10.304  3.4138  0.6609 -1.0771
   54CHL1   C20 6452   3.563   4.741   9.354  0.0794  0.0829 -0.0621
   54CHL1   H20 6453   3.582   4.631   9.346 -1.6056 -0.2323 -0.0454
   54CHL1   C21 6454   3.683   4.817   9.418  0.0181 -0.0861  0.1609
   54CHL1  H21A 6455   3.775   4.799   9.357 -1.5766 -0.9269 -2.1497
   54CHL1  H21B 6456   3.711   4.774   9.516  1.6042  0.9150  0.1904
   54CHL1  H21C 6457   3.665   4.925   9.434  0.7595  0.2616 -1.1840
   54CHL1   C22 6458   3.555   4.778   9.199 -0.0362  0.1459 -0.4929
   54CHL1  H22A 6459   3.457   4.748   9.155 -0.7744  2.5515 -0.6700
   54CHL1  H22B 6460   3.564   4.888   9.188 -0.2835  0.1067 -1.1365
   54CHL1   C23 6461   3.670   4.695   9.130  1.4187  0.2476 -0.0376
   54CHL1  H23A 6462   3.770   4.731   9.163  2.3409 -0.7418 -1.6371
   54CHL1  H23B 6463   3.675   4.588   9.158 -0.1930 -0.0932 -0.9055
   54CHL1   C24 6464   3.643   4.713   8.974 -0.9179  0.3391  0.1312
   54CHL1  H24A 6465   3.539   4.680   8.955  0.1558 -1.3463 -3.6388
   54CHL1  H24B 6466   3.643   4.811   8.924  0.2263  1.2701  1.8376
   54CHL1   C25 6467   3.741   4.620   8.890 -0.7423 -0.0586  0.1264
   54CHL1   H25 6468   3.763   4.536   8.959  0.5816 -0.3943 -0.6705
   54CHL1   C26 6469   3.661   4.545   8.779 -0.3174 -0.2623 -0.4443
   54CHL1  H26A 6470   3.622   4.605   8.694 -1.3084 -1.5821 -0.9391
   54CHL1  H26B 6471   3.730   4.471   8.735 -0.7668 -2.2123  1.9368
   54CHL1  H26C 6472   3.581   4.481   8.821 -1.3125  0.5969 -0.9731
   54CHL1   C27 6473   3.864   4.693   8.835  0.5203 -0.7391  0.3852
   54CHL1  H27A 6474   3.929   4.633   8.767 -0.3345 -0.6867 -0.5069
   54CHL1  H27B 6475   3.822   4.776   8.774  2.1190 -1.0557 -1.2484
   54CHL1  H27C 6476   3.926   4.739   8.915  0.3524 -0.1808  0.2033
   55CHL1    C3 6477   2.929   0.709  10.210 -0.1280  0.0379  0.4794
   55CHL1    H3 6478   3.038   0.696  10.193 -0.5820 -0.2161 -3.0279
   55CHL1    O3 6479   2.906   0.803  10.312 -0.3381 -0.1118  0.3464
   55CHL1   H3' 6480   2.876   0.757  10.390 -1.2127  1.1203  0.7723
   55CHL1    C4 6481   2.872   0.762  10.082 -0.8112 -0.4114 -0.2702
   55CHL1   H4A 6482   2.768   0.782  10.115 -0.4228  2.7813 -0.6926
   55CHL1   H4B 6483   2.919   0.858  10.054 -0.1415 -0.9196 -0.9054
   55CHL1    C5 6484   2.897   0.667   9.967  0.2030 -0.2003  0.3941
   55CHL1    C6 6485   2.962   0.711   9.852 -0.1646 -0.1307  0.3670
   55CHL1    H6 6486   2.999   0.814   9.838 -1.3466  0.4950  1.5943
   55CHL1    C7 6487   2.983   0.618   9.731  0.0623 -0.4012  0.0598
   55CHL1   H7A 6488   2.959   0.680   9.641 -2.0445 -1.8397 -0.4300
   55CHL1   H7B 6489   3.091   0.598   9.718 -0.3101 -1.4906 -1.6325
   55CHL1    C8 6490   2.909   0.481   9.738 -0.1529  0.3156 -1.0502
   55CHL1    H8 6491   2.802   0.496   9.711 -0.4648  1.7628  0.7692
   55CHL1   C14 6492   2.984   0.381   9.649 -0.3772 -0.6384  0.1589
   55CHL1   H14 6493   3.087   0.368   9.689 -0.0684  0.6880 -0.1398
   55CHL1   C15 6494   2.999   0.418   9.508  0.5052 -0.6852 -0.5787
   55CHL1  H15A 6495   2.898   0.458   9.485 -0.9596 -1.1542  4.0335
   55CHL1  H15B 6496   3.073   0.500   9.495  0.4225 -0.5727 -0.3541
   55CHL1   C16 6497   3.036   0.288   9.434 -0.0001  0.3898 -0.2306
   55CHL1  H16A 6498   2.962   0.270   9.354 -1.0511  1.4307  0.4678
   55CHL1  H16B 6499   3.138   0.289   9.389  1.9528 -0.0902  3.7541
   55CHL1   C17 6500   3.013   0.175   9.539 -0.0523 -0.5565  0.1184
   55CHL1   H17 6501   3.106   0.156   9.597 -0.4079  0.7219  1.1698
   55CHL1   C13 6502   2.920   0.244   9.643 -0.3652 -0.4125  0.3527
   55CHL1   C18 6503   2.778   0.254   9.583 -0.2272  0.1168  0.8887
   55CHL1  H18A 6504   2.719   0.318   9.653  0.4076 -0.3371  1.8694
   55CHL1  H18B 6505   2.782   0.301   9.482  0.7229  0.0700  0.9024
   55CHL1  H18C 6506   2.733   0.153   9.581  0.8442 -0.4090  2.0583
   55CHL1   C12 6507   2.922   0.190   9.787  0.9686  0.1108 -0.0856
   55CHL1  H12A 6508   2.866   0.094   9.782  0.7845  0.2384 -0.5412
   55CHL1  H12B 6509   3.027   0.175   9.821  0.8644 -0.2090  0.0974
   55CHL1   C11 6510   2.853   0.284   9.886 -0.4761  0.2228 -0.3633
   55CHL1  H11A 6511   2.743   0.289   9.872 -0.3480  0.8457 -1.1827
   55CHL1  H11B 6512   2.871   0.242   9.988 -2.0683 -0.6681 -0.4122
   55CHL1    C9 6513   2.908   0.430   9.884 -0.4428  0.3076  0.3782
   55CHL1    H9 6514   3.017   0.426   9.907 -0.9068 -0.6150  2.8087
   55CHL1   C10 6515   2.850   0.522   9.992 -0.2762 -0.4476  0.9990
   55CHL1   C19 6516   2.695   0.526   9.976 -0.7162  0.0171  0.7865
   55CHL1  H19A 6517   2.656   0.593  10.055 -0.6647 -1.1394  1.8114
   55CHL1  H19B 6518   2.678   0.567   9.874  0.9431 -2.0360 -0.4016
   55CHL1  H19C 6519   2.646   0.427   9.985  0.2180 -0.7021 -1.1579
   55CHL1    C1 6520   2.894   0.474  10.125 -0.6852  0.2724 -0.8824
   55CHL1   H1A 6521   2.846   0.377  10.150  0.6769 -0.6355 -1.6952
   55CHL1   H1B 6522   3.002   0.451  10.139 -0.8954 -0.1650  0.1532
   55CHL1    C2 6523   2.872   0.575  10.245  0.3432 -0.0404  0.1657
   55CHL1   H2A 6524   2.916   0.529  10.337 -0.9407 -0.2526  0.6879
   55CHL1   H2B 6525   2.764   0.590  10.266  0.6528  0.3133  1.6671
   55CHL1   C20 6526   2.979   0.046   9.468  0.8852 -0.2811 -0.6524
   55CHL1   H20 6527   2.877   0.052   9.425 -0.0312  0.8704  1.5311
   55CHL1   C21 6528   2.977  -0.064   9.577  0.0270 -0.3570  0.6379
   55CHL1  H21A 6529   2.952  -0.157   9.523  1.2320 -0.3867  0.1093
   55CHL1  H21B 6530   2.909  -0.051   9.664  0.0025 -1.5191  0.8074
   55CHL1  H21C 6531   3.081  -0.081   9.610  0.7627  2.3609  0.0343
   55CHL1   C22 6532   3.086   0.013   9.357  0.7707 -0.0611 -0.8298
   55CHL1  H22A 6533   3.045   0.064   9.266 -3.7570 -1.4618  0.1563
   55CHL1  H22B 6534   3.178   0.064   9.393 -0.5041  1.0537  1.0173
   55CHL1   C23 6535   3.113  -0.133   9.326  0.1511  0.4331 -0.0339
   55CHL1  H23A 6536   3.145  -0.201   9.408 -0.5167 -0.4102 -0.4645
   55CHL1  H23B 6537   3.018  -0.174   9.285 -0.4530  1.0639  0.6902
   55CHL1   C24 6538   3.206  -0.144   9.199  0.1684 -0.2205 -0.5808
   55CHL1  H24A 6539   3.186  -0.059   9.130  2.1083 -1.0435 -2.2317
   55CHL1  H24B 6540   3.314  -0.135   9.221 -0.1878  1.7148  0.7149
   55CHL1   C25 6541   3.187  -0.276   9.115 -0.8157  0.3223 -0.2198
   55CHL1   H25 6542   3.079  -0.275   9.091 -1.1335  0.6570  1.1391
   55CHL1   C26 6543   3.269  -0.278   8.985 -0.0189 -0.6963 -0.0354
   55CHL1  H26A 6544   3.241  -0.205   8.907  0.6835  0.5152  0.8082
   55CHL1  H26B 6545   3.375  -0.253   9.010  0.3546 -2.0516 -0.2034
   55CHL1  H26C 6546   3.271  -0.377   8.936  1.6161 -0.5308 -0.3582
   55CHL1   C27 6547   3.207  -0.409   9.192  0.0738  0.4058  0.4550
   55CHL1  H27A 6548   3.303  -0.425   9.247 -0.6321  0.3620  1.7187
   55CHL1  H27B 6549   3.137  -0.446   9.270 -0.2658 -0.9723 -0.4858
   55CHL1  H27C 6550   3.202  -0.497   9.125  1.6945 -0.3550  1.2536
   56CHL1    C3 6551   6.158   4.506  10.175 -0.1536  0.1207  0.3038
   56CHL1    H3 6552   6.059   4.476  10.134  0.7883 -0.0424 -2.0023
   56CHL1    O3 6553   6.149   4.509  10.314  0.0036 -0.1488 -0.0857
   56CHL1   H3' 6554   6.234   4.545  10.340  0.7346  0.3130 -2.8135
   56CHL1    C4 6555   6.254   4.393  10.115  0.3952 -0.7677  0.0289
   56CHL1   H4A 6556   6.357   4.430  10.136 -0.2820  1.6137 -0.4917
   56CHL1   H4B 6557   6.227   4.297  10.163 -0.8340  0.3752  1.7185
   56CHL1    C5 6558   6.242   4.387   9.957 -0.5672 -0.0481 -0.6468
   56CHL1    C6 6559   6.204   4.271   9.904 -0.0252 -0.3700 -0.1245
   56CHL1    H6 6560   6.187   4.183   9.968  1.5254 -0.1561  0.6401
   56CHL1    C7 6561   6.195   4.249   9.755 -0.4043  0.0353  0.4524
   56CHL1   H7A 6562   6.237   4.151   9.726 -1.4671 -0.9474  2.0620
   56CHL1   H7B 6563   6.091   4.258   9.718 -0.0598  1.3016 -0.2867
   56CHL1    C8 6564   6.261   4.372   9.670  0.7589 -0.2631  0.0652
   56CHL1    H8 6565   6.371   4.365   9.655  0.8486  3.1990 -2.0829
   56CHL1   C14 6566   6.193   4.366   9.526 -0.7208 -0.1617 -0.3337
   56CHL1   H14 6567   6.082   4.371   9.537 -0.6745 -1.3623  0.9709
   56CHL1   C15 6568   6.218   4.238   9.444  0.0411  0.5052  0.4739
   56CHL1  H15A 6569   6.328   4.219   9.448  0.2493  1.1581 -1.1481
   56CHL1  H15B 6570   6.154   4.151   9.467  1.7275 -1.0044 -0.2882
   56CHL1   C16 6571   6.194   4.281   9.297 -0.1998 -0.8479 -0.2848
   56CHL1  H16A 6572   6.291   4.273   9.244  0.4375  3.7512 -0.1682
   56CHL1  H16B 6573   6.109   4.219   9.261  0.6961 -2.0387 -0.3843
   56CHL1   C17 6574   6.149   4.436   9.304  0.1073  0.2667 -0.1410
   56CHL1   H17 6575   6.041   4.436   9.330 -0.5652 -2.6494 -2.3858
   56CHL1   C13 6576   6.221   4.487   9.431  0.3079 -0.0180  0.8365
   56CHL1   C18 6577   6.377   4.492   9.404 -0.1796 -0.1532  1.1136
   56CHL1  H18A 6578   6.417   4.390   9.385 -1.4824 -0.1927 -2.1640
   56CHL1  H18B 6579   6.410   4.565   9.326 -0.5178 -0.3421  0.7902
   56CHL1  H18C 6580   6.429   4.522   9.497  2.9261 -0.0351 -0.4971
   56CHL1   C12 6581   6.170   4.612   9.496  0.2930 -0.4769 -1.3021
   56CHL1  H12A 6582   6.212   4.699   9.440 -1.2204  0.4392 -1.0660
   56CHL1  H12B 6583   6.059   4.611   9.498  0.2907 -0.0922 -0.1084
   56CHL1   C11 6584   6.234   4.633   9.637  0.7212 -0.1751 -0.7578
   56CHL1  H11A 6585   6.343   4.653   9.628  1.0478 -0.4265  1.8458
   56CHL1  H11B 6586   6.182   4.720   9.684  1.1504 -0.7460  0.8412
   56CHL1    C9 6587   6.221   4.511   9.735 -0.1442 -0.0372  0.5495
   56CHL1    H9 6588   6.111   4.499   9.741 -0.2547  1.2341  1.3058
   56CHL1   C10 6589   6.263   4.519   9.881  0.7283 -0.6078  0.1962
   56CHL1   C19 6590   6.414   4.539   9.875  0.0853  0.0369 -0.2382
   56CHL1  H19A 6591   6.466   4.463   9.812 -1.1719  0.5494 -1.9705
   56CHL1  H19B 6592   6.421   4.633   9.816  1.8080  0.4221  0.5039
   56CHL1  H19C 6593   6.471   4.548   9.970  2.0474  1.8025 -1.4791
   56CHL1    C1 6594   6.180   4.641   9.958 -0.1205  0.5533  0.2619
   56CHL1   H1A 6595   6.226   4.736   9.923 -1.6739  0.4947 -2.1147
   56CHL1   H1B 6596   6.075   4.623   9.928  0.4128 -3.4644  0.3153
   56CHL1    C2 6597   6.191   4.643  10.113 -0.1930 -0.0383  0.5180
   56CHL1   H2A 6598   6.109   4.711  10.147  1.0448  1.0073  1.5105
   56CHL1   H2B 6599   6.291   4.677  10.147  0.7002 -0.6359 -1.3579
   56CHL1   C20 6600   6.167   4.515   9.179  0.6672 -0.0002  0.1862
   56CHL1   H20 6601   6.252   4.587   9.189  0.1376  0.7520 -0.6149
   56CHL1   C21 6602   6.041   4.606   9.168 -0.0774  0.3749  0.2031
   56CHL1  H21A 6603   6.065   4.689   9.098  3.2787 -1.5140 -1.1402
   56CHL1  H21B 6604   6.029   4.663   9.262  1.4159  0.5296  0.3287
   56CHL1  H21C 6605   5.951   4.545   9.147  3.3116 -4.5234 -2.0661
   56CHL1   C22 6606   6.191   4.445   9.041  0.6164  0.1748 -0.2757
   56CHL1  H22A 6607   6.276   4.373   9.049 -0.6051 -1.3886 -0.7367
   56CHL1  H22B 6608   6.103   4.386   9.009  1.4831 -0.3964 -1.7049
   56CHL1   C23 6609   6.222   4.539   8.926 -0.6805 -0.2022 -0.2293
   56CHL1  H23A 6610   6.122   4.586   8.912 -1.2490 -0.7933  1.6134
   56CHL1  H23B 6611   6.300   4.616   8.947 -1.8906  1.1751 -0.6450
   56CHL1   C24 6612   6.273   4.470   8.797 -0.5040  0.2222 -0.1128
   56CHL1  H24A 6613   6.358   4.400   8.806 -0.6051  0.1964  0.7070
   56CHL1  H24B 6614   6.190   4.409   8.757 -1.1143 -0.1420  1.6026
   56CHL1   C25 6615   6.315   4.559   8.676  0.1899  0.3808 -0.0329
   56CHL1   H25 6616   6.401   4.625   8.698  1.4267 -1.4202  0.7943
   56CHL1   C26 6617   6.359   4.469   8.560  0.1500 -0.1119 -0.3234
   56CHL1  H26A 6618   6.392   4.532   8.474  2.0890 -0.1160  0.3641
   56CHL1  H26B 6619   6.430   4.388   8.587 -0.3248 -0.5948 -0.5088
   56CHL1  H26C 6620   6.276   4.415   8.510  0.5224 -0.2541 -0.7903
   56CHL1   C27 6621   6.195   4.637   8.630 -0.5164 -0.5254  0.7655
   56CHL1  H27A 6622   6.168   4.721   8.697 -2.2628 -1.6317  1.5269
   56CHL1  H27B 6623   6.221   4.681   8.532  0.9036 -1.1956  0.8019
   56CHL1  H27C 6624   6.109   4.567   8.622  1.3919 -2.9600  0.3612
   57CHL1    C3 6625   3.270   2.026  10.283 -0.2572 -0.5931  0.4424
   57CHL1    H3 6626   3.373   1.993  10.308 -0.4198 -2.2647 -0.9662
   57CHL1    O3 6627   3.197   2.062  10.400  0.3053 -0.5776 -0.1909
   57CHL1   H3' 6628   3.106   2.040  10.379  0.4196 -0.1694 -1.1553
   57CHL1    C4 6629   3.262   2.150  10.190 -0.2745 -0.2342 -0.3758
   57CHL1   H4A 6630   3.155   2.178  10.192  0.1997  1.8362 -1.5831
   57CHL1   H4B 6631   3.317   2.231  10.241 -1.3351  0.0432  0.3522
   57CHL1    C5 6632   3.312   2.129  10.045  0.0763  0.0256 -0.3848
   57CHL1    C6 6633   3.414   2.204   9.993  0.5004  1.2238 -0.6538
   57CHL1    H6 6634   3.462   2.273  10.064  1.2557 -0.6361  0.7262
   57CHL1    C7 6635   3.461   2.187   9.852  0.3616  0.5937 -0.1306
   57CHL1   H7A 6636   3.483   2.292   9.824  2.3739  0.4119  0.6024
   57CHL1   H7B 6637   3.551   2.122   9.851 -1.0361 -1.5650  1.8467
   57CHL1    C8 6638   3.358   2.115   9.761  0.6907 -0.3707 -0.0410
   57CHL1    H8 6639   3.281   2.185   9.724  1.3814 -0.5927 -2.0497
   57CHL1   C14 6640   3.428   2.060   9.636 -0.0238 -0.3729  0.2817
   57CHL1   H14 6641   3.507   1.990   9.667  1.2318  0.9992  0.2957
   57CHL1   C15 6642   3.508   2.170   9.558 -0.4021  0.6532 -0.4316
   57CHL1  H15A 6643   3.443   2.259   9.543 -2.4025 -0.7979 -0.8860
   57CHL1  H15B 6644   3.609   2.183   9.601 -0.6831  1.2007  0.0784
   57CHL1   C16 6645   3.520   2.117   9.417  0.2323  0.3911  0.0648
   57CHL1  H16A 6646   3.471   2.168   9.332 -2.3431 -0.4877  0.9459
   57CHL1  H16B 6647   3.629   2.110   9.394  0.1168  0.5701 -0.5404
   57CHL1   C17 6648   3.449   1.973   9.420  0.3136 -0.1010 -0.0783
   57CHL1   H17 6649   3.528   1.909   9.465  0.2327  2.0624  3.5717
   57CHL1   C13 6650   3.337   1.985   9.531 -0.6560 -0.0085 -0.4476
   57CHL1   C18 6651   3.216   2.065   9.486  0.8087 -0.0917  0.1428
   57CHL1  H18A 6652   3.252   2.162   9.445  1.6077 -1.0447 -1.4823
   57CHL1  H18B 6653   3.166   2.002   9.409  0.2316 -0.2367  0.6277
   57CHL1  H18C 6654   3.142   2.088   9.566  0.8151 -0.3998  0.2380
   57CHL1   C12 6655   3.295   1.859   9.606 -0.2415  0.2950  0.3274
   57CHL1  H12A 6656   3.233   1.794   9.540  2.6250 -0.8498 -1.4164
   57CHL1  H12B 6657   3.387   1.805   9.637 -0.7194 -0.2437  0.8465
   57CHL1   C11 6658   3.213   1.902   9.731 -0.0128  0.3515 -0.0368
   57CHL1  H11A 6659   3.118   1.952   9.701 -0.5003 -0.5810 -0.0941
   57CHL1  H11B 6660   3.181   1.815   9.792  1.8542  0.3199  0.9621
   57CHL1    C9 6661   3.305   1.988   9.831 -0.1719  0.0044 -0.3418
   57CHL1    H9 6662   3.391   1.922   9.856 -0.6420 -0.4423  0.1385
   57CHL1   C10 6663   3.234   2.020   9.967 -0.1821 -0.5473  0.1382
   57CHL1   C19 6664   3.085   2.061   9.944 -0.3432 -0.0289 -0.1798
   57CHL1  H19A 6665   3.078   2.137   9.864  0.1227 -0.1764 -0.3660
   57CHL1  H19B 6666   3.025   1.969   9.926  2.0041 -1.4794 -1.1807
   57CHL1  H19C 6667   3.040   2.105  10.035 -0.7641 -1.2443  0.2244
   57CHL1    C1 6668   3.243   1.899  10.064 -0.1190 -0.2680  0.7854
   57CHL1   H1A 6669   3.184   1.819  10.015 -3.3617  2.3056  0.1509
   57CHL1   H1B 6670   3.349   1.864  10.059  0.1006  0.5200 -1.5995
   57CHL1    C2 6671   3.195   1.919  10.208  0.2221 -0.4547  0.3236
   57CHL1   H2A 6672   3.207   1.819  10.256 -1.8710 -1.3936 -0.9993
   57CHL1   H2B 6673   3.086   1.936  10.199  0.3472  0.6975  0.7356
   57CHL1   C20 6674   3.393   1.918   9.284 -0.1096  0.3998  0.1720
   57CHL1   H20 6675   3.311   1.976   9.237 -1.4645 -0.1403  1.7771
   57CHL1   C21 6676   3.350   1.775   9.292 -0.5892  0.2333  0.2187
   57CHL1  H21A 6677   3.391   1.719   9.205 -1.2747 -2.1374  1.3340
   57CHL1  H21B 6678   3.241   1.751   9.292 -0.2253 -1.5094  0.8078
   57CHL1  H21C 6679   3.401   1.730   9.380  0.3682  0.2560 -0.3130
   57CHL1   C22 6680   3.515   1.928   9.189 -0.5961 -0.1477  0.8192
   57CHL1  H22A 6681   3.577   2.019   9.201 -0.1751 -0.4271  0.7861
   57CHL1  H22B 6682   3.594   1.854   9.217  1.2282  1.0345 -0.9173
   57CHL1   C23 6683   3.475   1.917   9.041  0.3650  0.7090 -0.5719
   57CHL1  H23A 6684   3.449   1.814   9.009  1.7751  0.6419 -1.5995
   57CHL1  H23B 6685   3.384   1.977   9.021 -0.3936 -0.2572 -0.1230
   57CHL1   C24 6686   3.586   1.973   8.946  0.4450  0.1374 -0.6635
   57CHL1  H24A 6687   3.553   1.947   8.844 -0.8152  0.9757 -0.4951
   57CHL1  H24B 6688   3.599   2.083   8.959  0.3559  0.0473  0.2299
   57CHL1   C25 6689   3.731   1.909   8.955  0.1470 -0.2145  0.3008
   57CHL1   H25 6690   3.766   1.920   9.060 -1.5909  0.5006  0.8499
   57CHL1   C26 6691   3.726   1.759   8.914  0.1298  0.8301  0.2505
   57CHL1  H26A 6692   3.734   1.746   8.804 -0.9696 -0.4727  0.2847
   57CHL1  H26B 6693   3.812   1.705   8.958 -0.4282 -0.2723  0.0327
   57CHL1  H26C 6694   3.628   1.714   8.942 -0.0224  1.1204  0.1863
   57CHL1   C27 6695   3.829   1.986   8.865 -0.1628  0.8310  0.0818
   57CHL1  H27A 6696   3.825   1.938   8.765 -0.2972  3.0670 -1.0499
   57CHL1  H27B 6697   3.820   2.097   8.857  0.2814  0.8440 -0.3064
   57CHL1  H27C 6698   3.933   1.965   8.899 -0.3120 -3.9641 -1.6520
   58CHL1    C3 6699   1.183   1.452  10.104  0.1565  0.2244  0.4794
   58CHL1    H3 6700   1.139   1.547  10.067 -0.2002  0.0812  0.5328
   58CHL1    O3 6701   1.138   1.454  10.239 -0.0614 -0.5018  0.2143
   58CHL1   H3' 6702   1.201   1.396  10.283 -1.7950 -0.9494  2.2565
   58CHL1    C4 6703   1.127   1.338  10.015  0.0577  0.3294 -0.1441
   58CHL1   H4A 6704   1.172   1.249  10.063 -0.9118 -0.1393 -0.0865
   58CHL1   H4B 6705   1.016   1.338  10.023  0.0371  2.5709  0.4015
   58CHL1    C5 6706   1.167   1.339   9.866  0.7141  0.8004 -0.5773
   58CHL1    C6 6707   1.084   1.342   9.761 -0.1005 -0.6803  0.1505
   58CHL1    H6 6708   0.975   1.348   9.770 -0.0639 -2.3160  2.3528
   58CHL1    C7 6709   1.133   1.354   9.619 -0.4561  0.2624  0.2727
   58CHL1   H7A 6710   1.067   1.291   9.556 -3.1416  0.5090  2.6329
   58CHL1   H7B 6711   1.117   1.459   9.583  3.7099  1.1544  0.5386
   58CHL1    C8 6712   1.284   1.323   9.603  1.5280  0.5985  0.0424
   58CHL1    H8 6713   1.295   1.212   9.611 -0.1750  0.5134  2.1282
   58CHL1   C14 6714   1.323   1.356   9.458  0.5780 -0.4430 -0.1349
   58CHL1   H14 6715   1.310   1.466   9.454  0.5724 -0.4828 -3.1727
   58CHL1   C15 6716   1.236   1.306   9.336  0.2379 -0.7346 -0.3480
   58CHL1  H15A 6717   1.197   1.203   9.352 -1.4917 -0.3801 -1.9110
   58CHL1  H15B 6718   1.151   1.375   9.320  0.9424  0.0229 -0.9348
   58CHL1   C16 6719   1.340   1.322   9.224  0.2254 -0.7607  0.7809
   58CHL1  H16A 6720   1.367   1.225   9.176  2.5325  1.4014 -2.7811
   58CHL1  H16B 6721   1.304   1.388   9.142  1.2469 -0.7610  0.3065
   58CHL1   C17 6722   1.477   1.369   9.279  0.6155 -0.7608 -1.1510
   58CHL1   H17 6723   1.475   1.480   9.285  0.6354 -0.8370  0.7521
   58CHL1   C13 6724   1.472   1.335   9.429  0.1634  0.6209  0.3828
   58CHL1   C18 6725   1.506   1.185   9.450  0.2163  0.0252  0.3437
   58CHL1  H18A 6726   1.467   1.120   9.369 -0.5965  0.4600  0.3747
   58CHL1  H18B 6727   1.616   1.183   9.434  0.0400 -1.3380 -0.9163
   58CHL1  H18C 6728   1.483   1.140   9.549  2.6628  0.2154  1.0644
   58CHL1   C12 6729   1.556   1.423   9.525 -0.0669 -0.9539  0.1282
   58CHL1  H12A 6730   1.663   1.396   9.514 -0.5164 -2.3601 -1.1263
   58CHL1  H12B 6731   1.559   1.532   9.504  3.5207 -0.4642  2.3142
   58CHL1   C11 6732   1.525   1.394   9.675  0.6045 -0.3317  0.1868
   58CHL1  H11A 6733   1.562   1.292   9.700  2.8324  0.2458 -0.4995
   58CHL1  H11B 6734   1.564   1.470   9.746  0.8042  2.1175 -2.3614
   58CHL1    C9 6735   1.366   1.394   9.700  0.1693  0.1065 -0.2045
   58CHL1    H9 6736   1.328   1.495   9.674  0.0058 -0.1461 -0.9659
   58CHL1   C10 6737   1.320   1.365   9.844 -0.1049  0.3577 -0.1745
   58CHL1   C19 6738   1.397   1.234   9.898 -0.2413  0.1286 -1.0435
   58CHL1  H19A 6739   1.368   1.200   9.999  2.3127  1.3114  0.1782
   58CHL1  H19B 6740   1.379   1.153   9.824 -1.5405 -0.9965  0.4399
   58CHL1  H19C 6741   1.505   1.255   9.910 -0.7081  1.6609  1.1745
   58CHL1    C1 6742   1.365   1.486   9.944  0.4908  0.7706  0.1457
   58CHL1   H1A 6743   1.469   1.520   9.925  0.6144  1.1989  1.4806
   58CHL1   H1B 6744   1.299   1.574   9.927 -1.1419 -0.2623  0.9213
   58CHL1    C2 6745   1.337   1.459  10.094 -0.8581 -0.6179 -0.3962
   58CHL1   H2A 6746   1.377   1.546  10.150 -0.6186 -0.8344 -0.2241
   58CHL1   H2B 6747   1.388   1.365  10.126  1.9209  1.1920  0.8827
   58CHL1   C20 6748   1.598   1.326   9.193 -0.6793 -0.3737  0.0825
   58CHL1   H20 6749   1.598   1.218   9.220 -0.9669  0.0239  1.8171
   58CHL1   C21 6750   1.731   1.389   9.233 -0.2409 -0.8451  0.2457
   58CHL1  H21A 6751   1.763   1.351   9.333  0.7896  1.1923  0.7514
   58CHL1  H21B 6752   1.713   1.498   9.237  0.1952 -0.7382 -0.4968
   58CHL1  H21C 6753   1.808   1.367   9.155 -1.2466  0.3817 -1.1432
   58CHL1   C22 6754   1.577   1.356   9.036  0.7288  0.3235  0.2290
   58CHL1  H22A 6755   1.664   1.314   8.981 -1.1925 -0.0673 -2.7099
   58CHL1  H22B 6756   1.482   1.314   8.998  1.9442 -1.7997 -0.6642
   58CHL1   C23 6757   1.565   1.503   8.996 -0.0646  0.1926 -0.6280
   58CHL1  H23A 6758   1.471   1.538   9.045 -0.3272 -1.8067  0.4067
   58CHL1  H23B 6759   1.656   1.557   9.029 -1.0996  1.3785  0.3742
   58CHL1   C24 6760   1.549   1.510   8.844  0.3888 -0.0373 -0.0032
   58CHL1  H24A 6761   1.613   1.436   8.792  1.5634 -0.2383  1.6660
   58CHL1  H24B 6762   1.454   1.474   8.799  1.6732 -2.2815 -1.0896
   58CHL1   C25 6763   1.568   1.654   8.791  0.4452  0.1620  0.4430
   58CHL1   H25 6764   1.678   1.669   8.801  0.4920 -0.5147  1.0053
   58CHL1   C26 6765   1.519   1.672   8.649 -0.4006  0.1592  0.2089
   58CHL1  H26A 6766   1.426   1.614   8.630 -0.5497  0.6083 -0.4736
   58CHL1  H26B 6767   1.497   1.775   8.613 -1.0729  0.3298  1.0708
   58CHL1  H26C 6768   1.601   1.631   8.587  0.6386 -1.1241  2.3420
   58CHL1   C27 6769   1.488   1.759   8.876  0.4893  1.2454 -0.4209
   58CHL1  H27A 6770   1.379   1.739   8.866  0.5926  0.6705 -0.3875
   58CHL1  H27B 6771   1.513   1.756   8.984  0.3369  0.9063 -0.3959
   58CHL1  H27C 6772   1.510   1.862   8.840 -0.6468  1.7277  0.2123
   59CHL1    C3 6773   6.222   6.771  10.504 -0.4499 -0.2054  0.2772
   59CHL1    H3 6774   6.257   6.873  10.478  1.8381 -1.2164 -0.9128
   59CHL1    O3 6775   6.219   6.762  10.648  0.3559  0.4229  0.1745
   59CHL1   H3' 6776   6.208   6.669  10.671  1.3172 -0.1467 -1.4440
   59CHL1    C4 6777   6.077   6.749  10.454  0.3950 -0.4789 -0.0276
   59CHL1   H4A 6778   6.032   6.654  10.489 -0.0704 -0.0041  0.7007
   59CHL1   H4B 6779   6.015   6.827  10.503  1.3356  1.9019 -2.3610
   59CHL1    C5 6780   6.060   6.778  10.305  1.1456 -0.2995  0.7149
   59CHL1    C6 6781   5.984   6.879  10.254  0.1718 -1.1494  1.0819
   59CHL1    H6 6782   5.914   6.941  10.312 -1.4721 -0.6542 -1.2793
   59CHL1    C7 6783   5.963   6.909  10.109  0.5543 -0.0192 -1.0155
   59CHL1   H7A 6784   5.855   6.922  10.090  0.6987  2.3237 -0.4774
   59CHL1   H7B 6785   6.012   7.006  10.091 -0.3948  0.5688 -0.5216
   59CHL1    C8 6786   6.025   6.793  10.021  0.0184 -0.1573  0.4834
   59CHL1    H8 6787   5.953   6.708  10.027 -0.5868  0.2940 -0.0919
   59CHL1   C14 6788   6.034   6.847   9.882  0.2511  0.5036  0.6422
   59CHL1   H14 6789   6.105   6.932   9.889  2.2487 -1.1024  0.7353
   59CHL1   C15 6790   5.906   6.898   9.810 -0.3491  0.4840  0.0129
   59CHL1  H15A 6791   5.825   6.828   9.839  0.2554 -0.1530  0.2062
   59CHL1  H15B 6792   5.874   6.995   9.854  1.7286  0.3521  1.9751
   59CHL1   C16 6793   5.925   6.891   9.660 -0.3830 -0.0305  0.0653
   59CHL1  H16A 6794   5.843   6.837   9.608  1.0927 -1.6772 -0.6835
   59CHL1  H16B 6795   5.935   6.993   9.617  0.6776  0.8742  2.3281
   59CHL1   C17 6796   6.056   6.815   9.646 -0.4639 -0.2985  0.5635
   59CHL1   H17 6797   6.136   6.892   9.643 -2.7779  2.4773  2.9982
   59CHL1   C13 6798   6.090   6.744   9.777  0.6863  1.0340 -0.6414
   59CHL1   C18 6799   6.004   6.619   9.772 -0.1855 -0.0564 -0.3144
   59CHL1  H18A 6800   5.995   6.583   9.876  2.0465  2.9285  1.0721
   59CHL1  H18B 6801   5.899   6.627   9.736 -0.2386 -0.5633 -0.2738
   59CHL1  H18C 6802   6.057   6.535   9.723  0.8013  0.7258 -0.6367
   59CHL1   C12 6803   6.231   6.715   9.836 -0.0228  1.0989  0.5039
   59CHL1  H12A 6804   6.277   6.646   9.763 -2.1489  1.4948 -1.3401
   59CHL1  H12B 6805   6.278   6.815   9.825  1.1520  0.3612 -1.6764
   59CHL1   C11 6806   6.230   6.652   9.979  0.3054  1.0439  0.2570
   59CHL1  H11A 6807   6.193   6.548   9.978 -3.0379  2.1126 -0.1874
   59CHL1  H11B 6808   6.338   6.637  10.000 -0.0162 -0.3023  1.0434
   59CHL1    C9 6809   6.157   6.741  10.077 -0.1090  0.5147 -0.3882
   59CHL1    H9 6810   6.211   6.838  10.079 -0.6799  0.8245  0.6495
   59CHL1   C10 6811   6.147   6.691  10.221  0.4073 -0.3775 -0.7807
   59CHL1   C19 6812   6.067   6.555  10.229 -0.8859 -0.0651  0.4183
   59CHL1  H19A 6813   6.127   6.485  10.167 -1.0953  0.7014 -0.6667
   59CHL1  H19B 6814   6.073   6.521  10.335 -1.1788  0.3446  0.5696
   59CHL1  H19C 6815   5.961   6.570  10.199 -0.8672  1.3375  0.9877
   59CHL1    C1 6816   6.297   6.680  10.280  0.1264  0.3515 -0.0489
   59CHL1   H1A 6817   6.341   6.582  10.251  0.7332  0.3736  0.7573
   59CHL1   H1B 6818   6.359   6.768  10.254  0.1460  0.2738 -0.2679
   59CHL1    C2 6819   6.300   6.662  10.437  0.2654  1.0305 -0.2613
   59CHL1   H2A 6820   6.404   6.661  10.476  1.0677  0.0918 -2.2587
   59CHL1   H2B 6821   6.262   6.561  10.462  0.8191  1.0770  0.8230
   59CHL1   C20 6822   6.081   6.743   9.506  0.0331  0.7448 -0.0506
   59CHL1   H20 6823   5.996   6.672   9.497  0.6143 -0.6837  3.8675
   59CHL1   C21 6824   6.205   6.665   9.490 -0.1276 -0.0575 -0.0575
   59CHL1  H21A 6825   6.214   6.592   9.574  1.1673 -2.6671 -2.3289
   59CHL1  H21B 6826   6.291   6.734   9.503 -0.6337  0.7540 -0.9209
   59CHL1  H21C 6827   6.216   6.606   9.396 -2.1773 -3.5339  1.6709
   59CHL1   C22 6828   6.061   6.841   9.389 -0.3464 -0.7175 -0.2606
   59CHL1  H22A 6829   5.957   6.877   9.398 -0.2984  0.6464 -3.7031
   59CHL1  H22B 6830   6.124   6.931   9.407  2.7266 -2.6451 -0.5624
   59CHL1   C23 6831   6.088   6.773   9.250 -0.5968  0.1398 -0.0442
   59CHL1  H23A 6832   6.198   6.763   9.236 -0.5476 -0.3107  0.6146
   59CHL1  H23B 6833   6.044   6.671   9.250 -1.1547  0.3762  0.2772
   59CHL1   C24 6834   6.022   6.858   9.138  0.0251  0.3675  0.1293
   59CHL1  H24A 6835   5.915   6.837   9.157  0.0386  0.3475  0.1851
   59CHL1  H24B 6836   6.043   6.967   9.146  1.3722  0.0061  3.0141
   59CHL1   C25 6837   6.058   6.816   8.988  0.5503  0.3242 -0.1249
   59CHL1   H25 6838   6.165   6.845   8.978  0.1802  1.3707 -1.3625
   59CHL1   C26 6839   6.021   6.667   8.960  0.1090 -0.2911 -0.0736
   59CHL1  H26A 6840   6.045   6.637   8.855  1.2664 -3.1498  0.9122
   59CHL1  H26B 6841   6.084   6.609   9.031 -0.2345  1.3398  1.6440
   59CHL1  H26C 6842   5.913   6.650   8.978 -0.4756  0.6848 -2.2477
   59CHL1   C27 6843   5.977   6.899   8.891  0.4478 -0.2217  0.5382
   59CHL1  H27A 6844   5.978   7.009   8.911  0.3029 -0.3826  1.4643
   59CHL1  H27B 6845   6.013   6.872   8.790  1.1836 -1.0350  1.0108
   59CHL1  H27C 6846   5.868   6.878   8.905  0.1456  0.7034 -0.2770
   60CHL1    C3 6847   4.197   4.115  10.202  0.2769  0.0040  0.1618
   60CHL1    H3 6848   4.278   4.041  10.214 -1.3078 -2.0004 -0.9519
   60CHL1    O3 6849   4.156   4.154  10.330 -0.0530  0.0590  0.6716
   60CHL1   H3' 6850   4.216   4.220  10.365  0.3781  0.8470 -1.4244
   60CHL1    C4 6851   4.265   4.232  10.116 -0.1762 -0.1769  0.1133
   60CHL1   H4A 6852   4.189   4.313  10.113  1.4601  1.4055 -0.8356
   60CHL1   H4B 6853   4.348   4.272  10.178 -0.7880  1.2696  0.0499
   60CHL1    C5 6854   4.301   4.186   9.980  0.4529  0.5374  0.0774
   60CHL1    C6 6855   4.427   4.192   9.929  0.8399  0.0360  0.7933
   60CHL1    H6 6856   4.505   4.232   9.994 -0.5493  1.7697  1.4657
   60CHL1    C7 6857   4.451   4.170   9.781 -0.4180  0.0227  0.4137
   60CHL1   H7A 6858   4.514   4.251   9.740 -3.6182  2.3327 -0.2859
   60CHL1   H7B 6859   4.502   4.071   9.776  1.9126  1.1250  0.9978
   60CHL1    C8 6860   4.326   4.151   9.693  0.1075 -0.9559 -0.3203
   60CHL1    H8 6861   4.278   4.245   9.659  0.3712 -0.3075  1.0443
   60CHL1   C14 6862   4.364   4.081   9.566 -0.2918  1.0213  0.7062
   60CHL1   H14 6863   4.402   3.978   9.588  0.6466  1.5836  1.8533
   60CHL1   C15 6864   4.479   4.137   9.479  0.7065  0.2903 -0.1272
   60CHL1  H15A 6865   4.475   4.247   9.468  2.0099  0.3153 -0.4625
   60CHL1  H15B 6866   4.575   4.098   9.520  0.3229  0.6281  1.1439
   60CHL1   C16 6867   4.458   4.075   9.341  0.1808 -0.0666  0.2489
   60CHL1  H16A 6868   4.465   4.150   9.259  2.8218 -0.1772  0.2647
   60CHL1  H16B 6869   4.529   3.991   9.323  2.1463  1.5911 -0.0994
   60CHL1   C17 6870   4.315   3.997   9.345 -0.5323  0.6106  0.3555
   60CHL1   H17 6871   4.339   3.893   9.375 -0.1711  0.4375 -0.4935
   60CHL1   C13 6872   4.246   4.048   9.479 -0.2147  0.0275 -0.2886
   60CHL1   C18 6873   4.169   4.179   9.441  0.1324 -0.1662 -0.7877
   60CHL1  H18A 6874   4.232   4.236   9.369  0.7535 -1.0627 -0.9713
   60CHL1  H18B 6875   4.077   4.155   9.383 -0.9357 -0.7089  1.0833
   60CHL1  H18C 6876   4.134   4.244   9.524 -0.2438  1.8338 -2.4039
   60CHL1   C12 6877   4.160   3.956   9.554  0.3575 -0.0001 -0.3111
   60CHL1  H12A 6878   4.068   3.943   9.493 -0.1688  0.2445  0.4205
   60CHL1  H12B 6879   4.208   3.858   9.574  2.8740  1.2134  0.0576
   60CHL1   C11 6880   4.101   4.019   9.680  0.2225 -0.7565 -0.3670
   60CHL1  H11A 6881   4.046   4.110   9.649  0.3083 -0.6174 -0.1202
   60CHL1  H11B 6882   4.040   3.945   9.736  2.0266 -1.6912  0.4492
   60CHL1    C9 6883   4.222   4.066   9.767  0.0642  0.7598  0.7535
   60CHL1    H9 6884   4.278   3.974   9.794  0.7344  0.7277 -0.6454
   60CHL1   C10 6885   4.182   4.134   9.900 -0.0280 -0.2720  0.2972
   60CHL1   C19 6886   4.084   4.252   9.878  0.5733 -0.3355  0.1699
   60CHL1  H19A 6887   4.000   4.203   9.824 -1.4484  1.0221  1.9361
   60CHL1  H19B 6888   4.047   4.290   9.975  2.4619  0.0573  0.7823
   60CHL1  H19C 6889   4.109   4.328   9.802 -2.6039  2.2549  1.4825
   60CHL1    C1 6890   4.114   4.027   9.986  0.4524 -0.0144 -0.5021
   60CHL1   H1A 6891   4.021   3.996   9.933 -0.2258  0.6490  0.2666
   60CHL1   H1B 6892   4.175   3.935   9.986  1.2189  0.4823  0.3211
   60CHL1    C2 6893   4.075   4.065  10.130  0.3102 -0.0647  0.4814
   60CHL1   H2A 6894   4.023   3.974  10.168 -0.8314  0.5653  0.4638
   60CHL1   H2B 6895   4.013   4.158  10.128 -0.4316 -0.5322 -1.7681
   60CHL1   C20 6896   4.236   3.998   9.216  0.3049 -0.4191  0.1653
   60CHL1   H20 6897   4.220   4.105   9.191 -1.1507 -0.7766 -0.5440
   60CHL1   C21 6898   4.093   3.934   9.223  0.4760 -0.3441  0.0168
   60CHL1  H21A 6899   4.069   3.906   9.118 -0.8369  3.9800 -1.0617
   60CHL1  H21B 6900   4.020   4.010   9.259  2.8722  1.7569  0.8023
   60CHL1  H21C 6901   4.096   3.844   9.287  1.7737 -0.0507  0.4031
   60CHL1   C22 6902   4.326   3.943   9.099  0.4807  0.0741  0.0800
   60CHL1  H22A 6903   4.277   3.961   9.001  1.9158 -1.9660 -1.0968
   60CHL1  H22B 6904   4.425   3.993   9.086  0.3015 -0.0586 -2.2503
   60CHL1   C23 6905   4.335   3.787   9.104 -0.1291 -0.1732  0.1456
   60CHL1  H23A 6906   4.345   3.746   9.206 -1.2990 -1.3567 -0.1928
   60CHL1  H23B 6907   4.251   3.741   9.048  1.7503 -2.9167 -0.6221
   60CHL1   C24 6908   4.454   3.742   9.020  0.1288 -0.2079 -0.5232
   60CHL1  H24A 6909   4.440   3.780   8.916  1.5128 -1.8364 -1.3625
   60CHL1  H24B 6910   4.544   3.791   9.062  0.4616 -1.3102  0.0906
   60CHL1   C25 6911   4.494   3.590   9.031 -0.4819 -0.3534 -0.2022
   60CHL1   H25 6912   4.486   3.569   9.140 -0.2306  1.7166  0.2732
   60CHL1   C26 6913   4.391   3.500   8.950  0.4569 -0.0200 -0.4046
   60CHL1  H26A 6914   4.430   3.396   8.945  0.0897 -0.2008  0.3786
   60CHL1  H26B 6915   4.295   3.515   9.002  1.6773  0.3852  1.8414
   60CHL1  H26C 6916   4.374   3.535   8.846  0.8530 -0.1889 -0.5317
   60CHL1   C27 6917   4.634   3.562   8.979  0.4367 -0.2102  0.0441
   60CHL1  H27A 6918   4.700   3.592   9.063 -0.4914  0.1684  0.6605
   60CHL1  H27B 6919   4.650   3.454   8.957 -0.7676 -0.8927  2.1701
   60CHL1  H27C 6920   4.648   3.619   8.885 -1.7152  1.0216  0.3898
   61CHL1    C3 6921   0.142   4.164  10.371  0.0826  1.1444 -0.1174
   61CHL1    H3 6922   0.134   4.271  10.341 -1.4578  1.1718  0.3160
   61CHL1    O3 6923   0.163   4.156  10.511 -0.4868 -0.0630  0.0444
   61CHL1   H3' 6924   0.081   4.181  10.554 -0.0583  0.0012  0.8621
   61CHL1    C4 6925   0.017   4.088  10.323  0.1589 -0.1263 -0.1286
   61CHL1   H4A 6926   0.028   3.980  10.343  0.3018 -0.1786 -0.4878
   61CHL1   H4B 6927  -0.071   4.126  10.379 -0.0311 -0.0523 -0.4716
   61CHL1    C5 6928  -0.006   4.086  10.173 -0.1659  0.6534  0.3859
   61CHL1    C6 6929  -0.128   4.127  10.129 -1.0626  0.3774 -0.0973
   61CHL1    H6 6930  -0.204   4.158  10.203  1.4021  0.1436  2.7473
   61CHL1    C7 6931  -0.156   4.128   9.980 -0.5640 -0.9969 -0.2975
   61CHL1   H7A 6932  -0.244   4.071   9.944 -0.5010 -1.5563  0.4143
   61CHL1   H7B 6933  -0.171   4.229   9.936  1.9983 -0.1663  0.5542
   61CHL1    C8 6934  -0.042   4.071   9.887  0.3678 -0.4331 -0.7486
   61CHL1    H8 6935  -0.050   3.960   9.879 -0.7135 -0.3433 -1.1376
   61CHL1   C14 6936  -0.056   4.136   9.745 -0.3803  0.4129  0.1009
   61CHL1   H14 6937  -0.031   4.244   9.753  0.4729  0.1338  1.6461
   61CHL1   C15 6938  -0.194   4.131   9.675 -0.0677  0.7994 -0.6505
   61CHL1  H15A 6939  -0.234   4.028   9.684 -0.1791  0.9293  0.5730
   61CHL1  H15B 6940  -0.259   4.212   9.716  1.4563  2.2326 -0.9526
   61CHL1   C16 6941  -0.161   4.135   9.520 -0.3222 -0.1580  0.2703
   61CHL1  H16A 6942  -0.199   4.044   9.469 -1.1361 -0.3133  1.1146
   61CHL1  H16B 6943  -0.206   4.214   9.457 -0.0011 -1.8482 -2.2220
   61CHL1   C17 6944  -0.004   4.123   9.505 -0.2544 -0.8681  0.7573
   61CHL1   H17 6945   0.034   4.227   9.518 -0.1142 -0.7157 -0.7348
   61CHL1   C13 6946   0.035   4.064   9.643  0.4112  0.0802 -0.4835
   61CHL1   C18 6947   0.013   3.911   9.630  0.5026 -0.0893 -0.3562
   61CHL1  H18A 6948   0.070   3.863   9.548 -0.5123 -1.1688 -0.4608
   61CHL1  H18B 6949   0.047   3.858   9.722 -1.1886 -2.1472 -0.8342
   61CHL1  H18C 6950  -0.095   3.888   9.615 -0.4859  3.2551  0.8379
   61CHL1   C12 6951   0.170   4.089   9.686 -0.1695  0.4051  0.0438
   61CHL1  H12A 6952   0.256   4.052   9.626 -0.7133 -1.1528  0.1831
   61CHL1  H12B 6953   0.187   4.198   9.680 -0.3784  0.3715 -1.5107
   61CHL1   C11 6954   0.201   4.050   9.835  0.1018  0.1865 -0.1562
   61CHL1  H11A 6955   0.201   3.940   9.842 -1.9489  0.0461 -1.4632
   61CHL1  H11B 6956   0.300   4.088   9.869 -0.3540  1.5236 -0.2309
   61CHL1    C9 6957   0.091   4.102   9.938  0.3247 -0.2368 -0.1256
   61CHL1    H9 6958   0.093   4.213   9.934 -1.3862  0.0886  3.7246
   61CHL1   C10 6959   0.116   4.056  10.086 -0.3890 -0.4964  0.3088
   61CHL1   C19 6960   0.135   3.900  10.093 -0.4231 -0.6117 -0.6686
   61CHL1  H19A 6961   0.151   3.855  10.194  1.7384 -0.5577 -0.9418
   61CHL1  H19B 6962   0.039   3.856  10.060 -0.8909  0.0979 -0.2822
   61CHL1  H19C 6963   0.221   3.867  10.031  1.6296  3.1021 -0.0506
   61CHL1    C1 6964   0.247   4.129  10.141 -0.2514  0.1607  0.3860
   61CHL1   H1A 6965   0.339   4.098  10.087 -1.0572 -1.1233 -0.3010
   61CHL1   H1B 6966   0.226   4.236  10.118  1.4104  0.5579  0.6219
   61CHL1    C2 6967   0.263   4.113  10.291  0.4333 -0.7701 -0.1042
   61CHL1   H2A 6968   0.352   4.167  10.330  0.2839  0.2612 -1.1507
   61CHL1   H2B 6969   0.277   4.004  10.311  0.6153 -0.6178  0.6175
   61CHL1   C20 6970   0.041   4.067   9.369  0.1742 -0.9192 -0.0259
   61CHL1   H20 6971   0.017   3.959   9.352  0.3782 -0.6257 -2.7366
   61CHL1   C21 6972   0.197   4.076   9.362  0.3711  0.3624  0.0193
   61CHL1  H21A 6973   0.227   4.049   9.258  0.5117  0.7747 -0.0526
   61CHL1  H21B 6974   0.247   4.006   9.431  0.1665  1.3150  1.1617
   61CHL1  H21C 6975   0.215   4.186   9.371 -1.4434  0.5461  2.3651
   61CHL1   C22 6976  -0.022   4.130   9.243  0.2658  0.3523  0.4229
   61CHL1  H22A 6977   0.017   4.082   9.150  3.8704  1.6811  1.1200
   61CHL1  H22B 6978  -0.131   4.109   9.236  0.3382 -0.3123  1.1600
   61CHL1   C23 6979  -0.009   4.278   9.232 -1.2485 -0.5091 -0.2987
   61CHL1  H23A 6980  -0.047   4.330   9.323  2.5003 -0.7741  1.6077
   61CHL1  H23B 6981   0.099   4.305   9.229 -1.0879 -1.1637 -0.5850
   61CHL1   C24 6982  -0.079   4.339   9.108 -0.0443  0.7253  0.0881
   61CHL1  H24A 6983  -0.039   4.292   9.015 -0.4440 -0.2192  0.3868
   61CHL1  H24B 6984  -0.185   4.312   9.127  0.3911 -1.6020 -0.4611
   61CHL1   C25 6985  -0.066   4.493   9.099  0.6355 -0.3798  0.1257
   61CHL1   H25 6986  -0.078   4.531   9.203  0.8525  0.3948 -0.1246
   61CHL1   C26 6987   0.071   4.539   9.049 -0.1778  0.5189 -0.5754
   61CHL1  H26A 6988   0.098   4.486   8.955 -1.0986 -0.9154 -0.0635
   61CHL1  H26B 6989   0.074   4.648   9.029 -1.6413  0.4781 -1.0805
   61CHL1  H26C 6990   0.155   4.510   9.115 -1.2977  0.0821  0.6894
   61CHL1   C27 6991  -0.183   4.555   9.010 -0.2160 -0.0116 -0.0946
   61CHL1  H27A 6992  -0.179   4.666   9.014 -0.8703  0.0419 -0.6645
   61CHL1  H27B 6993  -0.169   4.519   8.906 -1.1676 -2.7864  0.6631
   61CHL1  H27C 6994  -0.277   4.512   9.050  0.4814 -0.4341  1.1421
   62CHL1    C3 6995   3.937   1.126  10.111 -0.2111  0.4309 -0.0689
   62CHL1    H3 6996   4.046   1.126  10.091 -0.4351  1.4400 -1.3679
   62CHL1    O3 6997   3.908   1.184  10.240 -0.1957  0.1043 -0.2473
   62CHL1   H3' 6998   3.816   1.174  10.266 -0.7010 -1.2287 -2.3322
   62CHL1    C4 6999   3.869   1.207  10.005 -0.4773  0.0110 -0.6021
   62CHL1   H4A 7000   3.764   1.203  10.041  0.6858 -0.8649  3.0760
   62CHL1   H4B 7001   3.902   1.313  10.001 -1.0136  0.2232  0.4011
   62CHL1    C5 7002   3.881   1.150   9.864  0.2561 -0.5817  0.4196
   62CHL1    C6 7003   3.933   1.213   9.758 -0.7361 -1.1293 -0.3620
   62CHL1    H6 7004   3.973   1.315   9.773 -1.3864 -1.0274  0.7468
   62CHL1    C7 7005   3.939   1.158   9.619 -0.9512  0.3072 -0.7184
   62CHL1   H7A 7006   3.904   1.223   9.536  1.6620  2.1081 -0.5610
   62CHL1   H7B 7007   4.047   1.138   9.601 -0.9460  0.6220 -1.0693
   62CHL1    C8 7008   3.864   1.029   9.604  0.0694 -0.0226  0.5913
   62CHL1    H8 7009   3.757   1.059   9.600 -0.0079  0.3438  3.3194
   62CHL1   C14 7010   3.908   0.959   9.477 -0.1713  0.1976  0.2284
   62CHL1   H14 7011   4.012   0.924   9.498 -0.3314 -0.5159 -0.1372
   62CHL1   C15 7012   3.924   1.041   9.349 -0.9899  0.3918  0.1001
   62CHL1  H15A 7013   3.838   1.106   9.321  0.4919  1.8866 -1.2486
   62CHL1  H15B 7014   4.011   1.110   9.357 -0.4037 -0.1692 -1.1482
   62CHL1   C16 7015   3.949   0.928   9.239  0.3580 -0.0003 -0.5150
   62CHL1  H16A 7016   3.894   0.958   9.147  1.0575  2.1146 -0.3116
   62CHL1  H16B 7017   4.055   0.923   9.206 -0.2034 -0.5567 -2.3156
   62CHL1   C17 7018   3.905   0.794   9.305 -0.0333  0.5260 -0.3727
   62CHL1   H17 7019   4.002   0.754   9.343 -1.6452 -1.1651  2.3376
   62CHL1   C13 7020   3.831   0.828   9.438 -0.2749  0.3309 -0.0728
   62CHL1   C18 7021   3.686   0.868   9.408 -0.1022  0.2412 -0.6866
   62CHL1  H18A 7022   3.697   0.949   9.332  1.0566  0.8742  0.1198
   62CHL1  H18B 7023   3.626   0.787   9.362  1.3514 -0.5723 -1.2453
   62CHL1  H18C 7024   3.647   0.919   9.498  1.1077 -0.1630  0.0992
   62CHL1   C12 7025   3.851   0.733   9.558 -0.0243 -0.2363 -1.1079
   62CHL1  H12A 7026   3.789   0.641   9.555 -0.7699  0.0584  1.7690
   62CHL1  H12B 7027   3.961   0.732   9.568  0.0306  1.8091 -0.9968
   62CHL1   C11 7028   3.803   0.798   9.692 -0.0865  0.0671 -0.1438
   62CHL1  H11A 7029   3.692   0.805   9.690 -0.0060  1.3947 -1.6788
   62CHL1  H11B 7030   3.834   0.727   9.772 -0.8645 -0.9752 -0.7389
   62CHL1    C9 7031   3.866   0.938   9.725 -0.4849 -0.1196  1.2566
   62CHL1    H9 7032   3.975   0.918   9.733  0.1466  1.4103 -1.8650
   62CHL1   C10 7033   3.834   1.007   9.859 -0.9354  0.1586 -0.3208
   62CHL1   C19 7034   3.673   1.011   9.870 -0.2522 -0.1121  0.0103
   62CHL1  H19A 7035   3.651   0.903   9.881  1.5161 -0.4877  0.1762
   62CHL1  H19B 7036   3.632   1.053   9.964 -0.5629 -1.0048  0.2820
   62CHL1  H19C 7037   3.627   1.069   9.787 -2.8084 -0.7594  0.8661
   62CHL1    C1 7038   3.883   0.923   9.974 -0.5628  0.3294 -0.1262
   62CHL1   H1A 7039   3.829   0.826   9.971 -0.3622  0.2374 -1.6288
   62CHL1   H1B 7040   3.988   0.902   9.944 -0.6705 -1.1970  0.5008
   62CHL1    C2 7041   3.874   0.988  10.116 -0.0996 -0.1181 -0.2127
   62CHL1   H2A 7042   3.929   0.925  10.189 -2.6177 -2.8587 -0.5257
   62CHL1   H2B 7043   3.771   0.991  10.157 -0.3532  1.5168 -0.8913
   62CHL1   C20 7044   3.840   0.701   9.202  0.4381  0.9605  0.4671
   62CHL1   H20 7045   3.752   0.746   9.152  0.7123  1.0824  0.0883
   62CHL1   C21 7046   3.800   0.567   9.263 -0.7440  0.5398 -0.1699
   62CHL1  H21A 7047   3.900   0.526   9.286 -0.7540 -0.0220 -1.0462
   62CHL1  H21B 7048   3.750   0.503   9.186 -3.4323  2.3694 -0.1147
   62CHL1  H21C 7049   3.728   0.578   9.347 -1.3361  0.3039 -0.6361
   62CHL1   C22 7050   3.934   0.653   9.085  0.5017 -0.7462  0.4330
   62CHL1  H22A 7051   4.002   0.738   9.061  1.9993 -2.1999 -0.7526
   62CHL1  H22B 7052   3.998   0.570   9.122  0.8854 -0.4155  0.5234
   62CHL1   C23 7053   3.851   0.610   8.964 -0.6631 -0.2176  0.6668
   62CHL1  H23A 7054   3.765   0.545   8.988 -0.8280 -0.3340 -0.2022
   62CHL1  H23B 7055   3.814   0.704   8.917  1.8390  1.0359  0.9872
   62CHL1   C24 7056   3.949   0.531   8.863  0.3452 -0.2891  0.0168
   62CHL1  H24A 7057   4.025   0.606   8.830  0.8555  1.1626  4.0148
   62CHL1  H24B 7058   4.000   0.448   8.916 -0.1484 -0.3055  0.4658
   62CHL1   C25 7059   3.875   0.480   8.740  0.3646 -0.0694  0.3226
   62CHL1   H25 7060   3.820   0.564   8.695  0.9735  0.0577 -0.2048
   62CHL1   C26 7061   3.985   0.437   8.633  0.0171  0.8482  0.6323
   62CHL1  H26A 7062   4.053   0.524   8.624 -0.3149  1.1581  1.0908
   62CHL1  H26B 7063   4.038   0.346   8.667  0.4105  1.4299  1.6251
   62CHL1  H26C 7064   3.932   0.399   8.543  1.7930  1.1523 -0.5750
   62CHL1   C27 7065   3.771   0.368   8.769 -0.2223  0.4951  0.0519
   62CHL1  H27A 7066   3.751   0.330   8.666 -2.0463 -3.6418  1.7164
   62CHL1  H27B 7067   3.821   0.287   8.824  1.2180 -0.0198 -1.9021
   62CHL1  H27C 7068   3.682   0.420   8.810 -1.2969 -1.3478  0.1414
   63CHL1    C3 7069   5.981   1.368  10.399 -0.1930 -0.5563 -0.4721
   63CHL1    H3 7070   6.078   1.417  10.421 -0.4699  0.1864 -0.8777
   63CHL1    O3 7071   5.915   1.361  10.520 -0.0727 -0.5974 -0.0626
   63CHL1   H3' 7072   5.849   1.293  10.503 -0.3358 -0.2149 -0.6027
   63CHL1    C4 7073   5.905   1.469  10.311  0.0567  0.4130  0.3208
   63CHL1   H4A 7074   5.801   1.434  10.296  0.0213  0.3602  0.6811
   63CHL1   H4B 7075   5.915   1.568  10.360 -0.2617 -0.7304  2.8347
   63CHL1    C5 7076   5.965   1.478  10.174 -0.1113  0.1848  0.5069
   63CHL1    C6 7077   6.005   1.594  10.121 -0.6275  0.3082 -0.5078
   63CHL1    H6 7078   5.983   1.688  10.175  3.7729  0.8791  0.6188
   63CHL1    C7 7079   6.058   1.627   9.981  0.2253  0.1127 -0.5988
   63CHL1   H7A 7080   5.994   1.702   9.931 -1.6963 -1.2312 -0.2523
   63CHL1   H7B 7081   6.161   1.666   9.995 -0.4527  2.0136 -0.7157
   63CHL1    C8 7082   6.051   1.501   9.900  0.3523  0.0898 -1.3084
   63CHL1    H8 7083   5.952   1.490   9.851  0.3063 -0.6220 -1.0556
   63CHL1   C14 7084   6.144   1.511   9.777  0.2084 -0.1402 -0.8538
   63CHL1   H14 7085   6.246   1.518   9.821  0.7260  0.2248 -2.0740
   63CHL1   C15 7086   6.131   1.637   9.694  0.0812 -0.7676 -0.4505
   63CHL1  H15A 7087   6.022   1.660   9.685  0.2982  1.2830  1.1806
   63CHL1  H15B 7088   6.177   1.726   9.742 -0.4555 -0.7609  0.0695
   63CHL1   C16 7089   6.193   1.600   9.556  0.9275  0.4828  0.3385
   63CHL1  H16A 7090   6.112   1.630   9.487 -2.2553 -2.5855  2.4257
   63CHL1  H16B 7091   6.283   1.659   9.528 -0.0392  0.8926 -2.2065
   63CHL1   C17 7092   6.221   1.449   9.574 -0.2960  0.0832 -0.5775
   63CHL1   H17 7093   6.326   1.442   9.609 -0.7519 -3.3140  0.5451
   63CHL1   C13 7094   6.144   1.387   9.683  0.7644  0.2195 -0.4088
   63CHL1   C18 7095   5.999   1.353   9.638  0.5170 -0.1380  0.3427
   63CHL1  H18A 7096   5.986   1.255   9.586 -1.1951  1.3449 -2.2473
   63CHL1  H18B 7097   5.930   1.342   9.724  0.8872 -0.6184  0.5856
   63CHL1  H18C 7098   5.955   1.425   9.566 -0.8109 -1.5815 -0.3392
   63CHL1   C12 7099   6.204   1.268   9.766 -0.4567 -0.3418 -0.1437
   63CHL1  H12A 7100   6.212   1.169   9.715  1.7244 -0.9738  1.2732
   63CHL1  H12B 7101   6.305   1.305   9.794 -0.5046  1.3139 -1.9403
   63CHL1   C11 7102   6.117   1.246   9.888  0.1574 -0.1109  0.2340
   63CHL1  H11A 7103   6.021   1.211   9.845  1.4386  1.2835 -4.4060
   63CHL1  H11B 7104   6.156   1.168   9.957  1.3237 -1.4030 -1.7954
   63CHL1    C9 7105   6.088   1.373   9.975 -0.6112  0.4742  0.7537
   63CHL1    H9 7106   6.189   1.397  10.015 -0.0391  1.5740 -1.2270
   63CHL1   C10 7107   6.001   1.350  10.100  0.2999  0.2455  0.6412
   63CHL1   C19 7108   5.859   1.298  10.057 -1.0639  0.9110 -0.2749
   63CHL1  H19A 7109   5.875   1.203  10.001 -0.2710  1.7996 -1.6152
   63CHL1  H19B 7110   5.805   1.280  10.153 -1.4091 -0.6373 -0.7199
   63CHL1  H19C 7111   5.793   1.360   9.992 -1.5289 -1.0657 -1.8041
   63CHL1    C1 7112   6.071   1.248  10.201  0.0035 -0.0192 -0.0283
   63CHL1   H1A 7113   6.080   1.143  10.165 -2.0846 -0.4749  0.6082
   63CHL1   H1B 7114   6.172   1.293  10.213  0.2664 -0.5330 -0.3017
   63CHL1    C2 7115   6.004   1.232  10.339 -0.0235 -0.0584  0.9076
   63CHL1   H2A 7116   6.067   1.159  10.395  2.5646  0.8266 -0.6473
   63CHL1   H2B 7117   5.901   1.197  10.316  0.4491  0.2214 -2.0591
   63CHL1   C20 7118   6.210   1.376   9.440  0.1008 -0.6602  0.7191
   63CHL1   H20 7119   6.105   1.379   9.402 -0.0829 -2.5861  1.0068
   63CHL1   C21 7120   6.247   1.222   9.439  0.3138  0.1141  0.3723
   63CHL1  H21A 7121   6.355   1.201   9.457  0.5766  1.1722  0.1398
   63CHL1  H21B 7122   6.220   1.180   9.341  2.5377  0.2931 -0.3699
   63CHL1  H21C 7123   6.174   1.168   9.503  0.7969 -0.3043  0.5772
   63CHL1   C22 7124   6.306   1.435   9.336  0.2805 -0.5858 -0.3500
   63CHL1  H22A 7125   6.292   1.544   9.348 -1.4850 -1.0966  4.4853
   63CHL1  H22B 7126   6.407   1.415   9.377 -0.2350 -1.1009  0.7212
   63CHL1   C23 7127   6.277   1.395   9.199 -0.2793 -0.6543  0.4201
   63CHL1  H23A 7128   6.372   1.407   9.143 -0.2043 -0.2439  0.6338
   63CHL1  H23B 7129   6.263   1.285   9.191 -0.1585 -0.5747 -1.3470
   63CHL1   C24 7130   6.177   1.483   9.130  0.6434  0.8010  0.0970
   63CHL1  H24A 7131   6.076   1.480   9.177 -0.3997  2.6949 -1.8560
   63CHL1  H24B 7132   6.207   1.588   9.151 -2.3080  1.5403  1.2623
   63CHL1   C25 7133   6.179   1.447   8.986  0.5976 -0.2963  0.4107
   63CHL1   H25 7134   6.207   1.342   8.965  2.0453  0.3361 -1.1237
   63CHL1   C26 7135   6.039   1.464   8.920  0.1563  0.2087 -0.5174
   63CHL1  H26A 7136   5.971   1.400   8.981 -0.4161  1.7126  0.5108
   63CHL1  H26B 7137   5.995   1.566   8.924 -1.2712 -0.2784 -2.4320
   63CHL1  H26C 7138   6.022   1.429   8.816  1.4785  1.3727 -1.1551
   63CHL1   C27 7139   6.291   1.524   8.906  0.4416  0.3301 -0.2417
   63CHL1  H27A 7140   6.388   1.527   8.960  0.7087  2.7690 -0.7165
   63CHL1  H27B 7141   6.304   1.485   8.803 -0.1718 -1.3224  0.2893
   63CHL1  H27C 7142   6.247   1.626   8.900 -0.5442 -0.1555 -1.8243
   64CHL1    C3 7143   2.692   3.350  10.083  0.4778  0.0109  0.0467
   64CHL1    H3 7144   2.631   3.265  10.045 -0.5440 -0.1982  2.0572
   64CHL1    O3 7145   2.739   3.324  10.214  0.1582 -0.4931 -0.3569
   64CHL1   H3' 7146   2.764   3.411  10.247 -0.8664 -0.6545  0.9531
   64CHL1    C4 7147   2.811   3.364   9.987 -0.0242  0.0136  0.0353
   64CHL1   H4A 7148   2.870   3.449  10.028  0.9041  0.5853 -2.3019
   64CHL1   H4B 7149   2.872   3.271   9.983 -0.4165 -0.2317 -0.4163
   64CHL1    C5 7150   2.759   3.387   9.848  0.7414 -0.5017  0.3006
   64CHL1    C6 7151   2.776   3.303   9.749 -1.5645 -0.3877  0.2977
   64CHL1    H6 7152   2.831   3.209   9.767  1.4247  0.9526 -1.2277
   64CHL1    C7 7153   2.740   3.327   9.610  0.0021 -0.2421  0.1448
   64CHL1   H7A 7154   2.815   3.300   9.533  0.0255  0.1808  0.0209
   64CHL1   H7B 7155   2.644   3.281   9.577  0.9426 -0.6161 -2.2667
   64CHL1    C8 7156   2.704   3.472   9.593  0.3839 -1.2487  0.0622
   64CHL1    H8 7157   2.800   3.528   9.605  0.2523 -1.3814  2.0589
   64CHL1   C14 7158   2.649   3.500   9.449 -0.0039 -0.7335 -0.1696
   64CHL1   H14 7159   2.560   3.439   9.423 -0.6832  1.1441 -2.5718
   64CHL1   C15 7160   2.744   3.472   9.331  0.5964 -0.8251 -0.0114
   64CHL1  H15A 7161   2.849   3.504   9.348  0.1585  0.9127 -0.3921
   64CHL1  H15B 7162   2.760   3.363   9.313  1.1628 -0.8770  0.7927
   64CHL1   C16 7163   2.675   3.530   9.209 -0.0229  0.0141  0.0244
   64CHL1  H16A 7164   2.752   3.590   9.156 -0.8423  0.5465 -0.5713
   64CHL1  H16B 7165   2.633   3.449   9.146 -1.9968 -0.2267  1.5616
   64CHL1   C17 7166   2.564   3.628   9.267  0.1646 -0.0980  0.1934
   64CHL1   H17 7167   2.474   3.566   9.247  1.5008 -1.3628 -2.3638
   64CHL1   C13 7168   2.602   3.644   9.418 -0.4325 -0.2048 -0.3848
   64CHL1   C18 7169   2.726   3.743   9.428  1.1344 -0.4269 -0.7270
   64CHL1  H18A 7170   2.784   3.726   9.522  0.3965 -1.1624 -0.3922
   64CHL1  H18B 7171   2.801   3.735   9.346  0.7864 -3.6920 -0.8597
   64CHL1  H18C 7172   2.684   3.845   9.427  2.6419  0.2172 -0.4818
   64CHL1   C12 7173   2.483   3.670   9.520 -0.3564 -0.6331 -0.0902
   64CHL1  H12A 7174   2.448   3.775   9.508 -0.7247 -0.7715 -0.2451
   64CHL1  H12B 7175   2.393   3.608   9.499 -0.4160 -1.4610  2.2173
   64CHL1   C11 7176   2.534   3.660   9.668  0.7501 -0.1779  0.2541
   64CHL1  H11A 7177   2.603   3.743   9.692  0.9043 -0.9683  2.8815
   64CHL1  H11B 7178   2.444   3.666   9.733 -1.5985 -3.3656 -2.3137
   64CHL1    C9 7179   2.606   3.519   9.697 -0.2528 -0.6890 -1.1710
   64CHL1    H9 7180   2.522   3.447   9.691 -0.2751 -1.1000  2.1276
   64CHL1   C10 7181   2.667   3.512   9.835 -0.9850  0.5808  0.3506
   64CHL1   C19 7182   2.754   3.631   9.862  0.3837 -0.0275  0.2641
   64CHL1  H19A 7183   2.700   3.720   9.902  0.4141 -0.4561  1.3124
   64CHL1  H19B 7184   2.829   3.617   9.943  0.1469 -0.3580  0.4305
   64CHL1  H19C 7185   2.802   3.661   9.767 -2.0511  1.6906 -0.5432
   64CHL1    C1 7186   2.556   3.500   9.937  0.5563 -0.2184 -0.1490
   64CHL1   H1A 7187   2.494   3.590   9.919  0.9806  0.7120  2.5485
   64CHL1   H1B 7188   2.500   3.406   9.915 -1.2835  0.7532  0.1979
   64CHL1    C2 7189   2.605   3.477  10.085  0.0221  0.3874  0.1516
   64CHL1   H2A 7190   2.519   3.449  10.149  0.7185  2.2917  2.0177
   64CHL1   H2B 7191   2.644   3.573  10.124  1.1029 -0.1890  0.5279
   64CHL1   C20 7192   2.544   3.756   9.181 -0.3984 -0.4307 -0.1785
   64CHL1   H20 7193   2.633   3.817   9.206  1.4152 -3.6642  2.2218
   64CHL1   C21 7194   2.414   3.823   9.223 -0.1588 -0.4958 -1.3769
   64CHL1  H21A 7195   2.382   3.903   9.153 -1.8957 -0.3508 -0.4657
   64CHL1  H21B 7196   2.425   3.875   9.320  0.2248  2.4045 -2.8635
   64CHL1  H21C 7197   2.327   3.753   9.228 -0.5532  0.0691  1.8430
   64CHL1   C22 7198   2.549   3.731   9.028 -0.3488 -0.3130  0.8065
   64CHL1  H22A 7199   2.653   3.697   9.008 -1.3740 -2.9399 -0.5808
   64CHL1  H22B 7200   2.484   3.644   9.005  0.3833 -0.4692 -0.8280
   64CHL1   C23 7201   2.532   3.848   8.929 -0.4002 -0.2550 -0.3146
   64CHL1  H23A 7202   2.425   3.875   8.942 -0.7875 -1.9405  0.2402
   64CHL1  H23B 7203   2.591   3.937   8.961 -0.8404  0.2443 -0.8719
   64CHL1   C24 7204   2.550   3.818   8.783 -0.4897  0.4653 -0.6610
   64CHL1  H24A 7205   2.648   3.767   8.768  0.1456  1.2857  0.4929
   64CHL1  H24B 7206   2.472   3.748   8.749  0.7570 -0.6433 -1.3330
   64CHL1   C25 7207   2.544   3.938   8.692  0.0412  0.3979 -0.1579
   64CHL1   H25 7208   2.463   4.003   8.731 -1.8307 -2.2802  0.7754
   64CHL1   C26 7209   2.674   4.018   8.689  0.3621 -0.5170  0.1783
   64CHL1  H26A 7210   2.706   4.060   8.787  2.1283  0.1574 -0.6298
   64CHL1  H26B 7211   2.755   3.962   8.636 -0.3531 -1.4159  0.0215
   64CHL1  H26C 7212   2.660   4.108   8.624  1.2578 -0.3482  0.2012
   64CHL1   C27 7213   2.523   3.889   8.555 -0.4639 -0.2305  0.7512
   64CHL1  H27A 7214   2.414   3.872   8.544 -0.4217  0.3093 -0.6336
   64CHL1  H27B 7215   2.552   3.960   8.475  1.0539 -3.1636 -1.4873
   64CHL1  H27C 7216   2.581   3.798   8.530  2.9351  1.6036  1.2087
   65CHL1    C3 7217   0.342   0.110  10.203 -0.3998 -0.0218  0.5071
   65CHL1    H3 7218   0.231   0.118  10.199 -0.2271  2.8625 -1.8258
   65CHL1    O3 7219   0.391   0.119  10.336  0.0270  0.2856 -0.3087
   65CHL1   H3' 7220   0.486   0.132  10.326  0.1700 -0.4416  0.0389
   65CHL1    C4 7221   0.384  -0.028  10.145  0.3056 -0.2612  0.2658
   65CHL1   H4A 7222   0.493  -0.046  10.159  0.6636 -0.8456 -2.7296
   65CHL1   H4B 7223   0.334  -0.102  10.211  0.5057  1.3159  2.3042
   65CHL1    C5 7224   0.339  -0.042   9.999  0.5916 -0.1959 -0.6245
   65CHL1    C6 7225   0.265  -0.145   9.956 -1.0089 -0.0755  0.1050
   65CHL1    H6 7226   0.229  -0.227  10.019  1.8677 -3.5038 -2.3387
   65CHL1    C7 7227   0.231  -0.171   9.815  0.0003 -0.3608 -0.0324
   65CHL1   H7A 7228   0.265  -0.273   9.789  1.3548 -0.7498  2.7941
   65CHL1   H7B 7229   0.123  -0.183   9.791 -0.3870 -1.4430  1.9630
   65CHL1    C8 7230   0.308  -0.075   9.714  0.7968  0.7314 -0.1976
   65CHL1    H8 7231   0.414  -0.107   9.705  0.0657 -1.6781 -0.8448
   65CHL1   C14 7232   0.241  -0.086   9.579  0.4779 -0.1527 -0.8481
   65CHL1   H14 7233   0.134  -0.063   9.595  0.5627 -1.1006  1.6496
   65CHL1   C15 7234   0.227  -0.228   9.524 -0.2389 -0.0181  0.1994
   65CHL1  H15A 7235   0.325  -0.281   9.524  0.0015  0.3828  1.5929
   65CHL1  H15B 7236   0.150  -0.286   9.579 -0.5405 -1.1566 -1.3446
   65CHL1   C16 7237   0.186  -0.200   9.383 -0.1225 -0.4404 -0.4122
   65CHL1  H16A 7238   0.265  -0.251   9.323 -0.4873 -0.1854 -1.1114
   65CHL1  H16B 7239   0.082  -0.239   9.372 -0.7993  0.9776  0.6433
   65CHL1   C17 7240   0.197  -0.041   9.358 -0.1261 -0.5605  0.2340
   65CHL1   H17 7241   0.106   0.018   9.384  0.2522  0.8489 -1.4714
   65CHL1   C13 7242   0.290   0.005   9.469 -0.3830 -0.0514 -0.6292
   65CHL1   C18 7243   0.441  -0.026   9.430 -0.2688  0.2444 -0.2179
   65CHL1  H18A 7244   0.442  -0.128   9.386 -0.5937 -0.0263  0.3752
   65CHL1  H18B 7245   0.505   0.051   9.382  3.0083 -1.8582  0.4316
   65CHL1  H18C 7246   0.503  -0.031   9.523  1.4741  2.7746 -1.1346
   65CHL1   C12 7247   0.293   0.152   9.518  0.8831 -0.3102 -0.1969
   65CHL1  H12A 7248   0.343   0.223   9.449  0.5045  0.0164 -0.1377
   65CHL1  H12B 7249   0.189   0.189   9.528 -0.3287 -3.6154  0.9820
   65CHL1   C11 7250   0.368   0.161   9.652 -0.3472 -0.2604  0.1658
   65CHL1  H11A 7251   0.476   0.142   9.642 -0.3065 -0.8563  1.5219
   65CHL1  H11B 7252   0.362   0.267   9.686 -2.4412  0.0211 -0.8699
   65CHL1    C9 7253   0.308   0.067   9.764 -0.2354 -0.4639 -0.2037
   65CHL1    H9 7254   0.205   0.104   9.783  0.0033  0.9560 -1.4283
   65CHL1   C10 7255   0.378   0.080   9.910 -0.2168  0.2034  0.7732
   65CHL1   C19 7256   0.535   0.076   9.889  1.1828  0.0438  0.7513
   65CHL1  H19A 7257   0.568  -0.010   9.827  1.6175  0.8975 -0.2224
   65CHL1  H19B 7258   0.573   0.170   9.845 -0.1649  0.2195 -0.0694
   65CHL1  H19C 7259   0.589   0.070   9.987 -0.0888 -2.5211  1.3986
   65CHL1    C1 7260   0.335   0.214   9.967  0.3723 -0.1300 -0.4062
   65CHL1   H1A 7261   0.358   0.299   9.899 -0.7188 -0.1154 -0.7896
   65CHL1   H1B 7262   0.225   0.223   9.979  0.5937  0.5167  1.3856
   65CHL1    C2 7263   0.395   0.230  10.113 -0.0591  0.2080  0.5694
   65CHL1   H2A 7264   0.363   0.325  10.160 -3.8789 -0.8484  0.4145
   65CHL1   H2B 7265   0.506   0.232  10.107 -0.0711 -0.4440 -0.0581
   65CHL1   C20 7266   0.225  -0.001   9.208  0.3359  0.1522 -0.2188
   65CHL1   H20 7267   0.324  -0.044   9.180  0.3429  1.8899 -3.3881
   65CHL1   C21 7268   0.235   0.154   9.187  0.2704  0.0410 -0.0566
   65CHL1  H21A 7269   0.141   0.200   9.224  0.5395 -0.3866  1.2087
   65CHL1  H21B 7270   0.246   0.187   9.081  0.2017 -1.4673 -0.5516
   65CHL1  H21C 7271   0.323   0.184   9.249  0.8507 -2.3615  0.3798
   65CHL1   C22 7272   0.113  -0.053   9.119  0.2925 -0.2405  0.3032
   65CHL1  H22A 7273   0.101  -0.159   9.151  1.0997  0.0807  1.7297
   65CHL1  H22B 7274   0.015  -0.000   9.126  0.5502  0.4655 -1.0186
   65CHL1   C23 7275   0.149  -0.044   8.968  0.0860  0.5216 -0.1410
   65CHL1  H23A 7276   0.124   0.061   8.939 -1.4485  0.2558  0.1678
   65CHL1  H23B 7277   0.257  -0.067   8.960 -0.4258 -1.7203 -1.4216
   65CHL1   C24 7278   0.072  -0.137   8.876 -0.1222  0.2692 -0.6268
   65CHL1  H24A 7279   0.096  -0.241   8.907 -0.2469  0.0048 -1.3937
   65CHL1  H24B 7280  -0.037  -0.119   8.888  0.3401  2.0433  1.5807
   65CHL1   C25 7281   0.124  -0.140   8.733  0.6223 -0.0106 -0.9910
   65CHL1   H25 7282   0.230  -0.172   8.736  1.0171  1.2966 -0.5370
   65CHL1   C26 7283   0.051  -0.244   8.646  0.1553  0.1543  0.3591
   65CHL1  H26A 7284   0.070  -0.348   8.681 -0.5565 -0.0655  0.1198
   65CHL1  H26B 7285  -0.057  -0.220   8.657 -0.1473 -1.4401  1.2497
   65CHL1  H26C 7286   0.076  -0.238   8.538 -2.5758  1.4067 -0.2889
   65CHL1   C27 7287   0.118   0.002   8.677 -0.2232 -0.7512 -0.1654
   65CHL1  H27A 7288   0.140  -0.003   8.568 -1.0816  0.3221 -0.4196
   65CHL1  H27B 7289   0.019   0.053   8.682  0.0095 -0.3341  0.3413
   65CHL1  H27C 7290   0.190   0.065   8.733 -2.7717  2.1295  0.1440
   66CHL1    C3 7291   3.485   5.349  10.587  0.1613  0.9259 -0.1675
   66CHL1    H3 7292   3.558   5.433  10.584 -0.7021  1.9639  3.5951
   66CHL1    O3 7293   3.428   5.345  10.717  0.3566 -0.3903 -0.2594
   66CHL1   H3' 7294   3.404   5.436  10.731 -1.3779 -0.7225 -0.8454
   66CHL1    C4 7295   3.378   5.381  10.482 -1.1417  0.0435 -0.2125
   66CHL1   H4A 7296   3.292   5.314  10.499 -1.5951  0.4901 -0.7301
   66CHL1   H4B 7297   3.335   5.476  10.519  1.8413  1.3845  0.1061
   66CHL1    C5 7298   3.428   5.388  10.339  0.3911 -0.1819 -0.0339
   66CHL1    C6 7299   3.406   5.503  10.263 -0.3898 -0.1277  0.2964
   66CHL1    H6 7300   3.345   5.584  10.305  0.5687  0.0122  1.4836
   66CHL1    C7 7301   3.457   5.518  10.125  0.1380  0.4750  0.6137
   66CHL1   H7A 7302   3.384   5.560  10.053  0.7236  0.6356  0.1066
   66CHL1   H7B 7303   3.551   5.577  10.122  0.5091 -0.1349 -1.4732
   66CHL1    C8 7304   3.487   5.379  10.066  0.9956  0.3830  0.0416
   66CHL1    H8 7305   3.391   5.323  10.059  1.8446 -1.1801  0.3983
   66CHL1   C14 7306   3.547   5.395   9.926  0.4805 -0.0142 -0.1507
   66CHL1   H14 7307   3.643   5.451   9.932 -0.0823  0.8601  1.2311
   66CHL1   C15 7308   3.470   5.465   9.821  0.0648 -0.4446  0.2734
   66CHL1  H15A 7309   3.364   5.433   9.828 -0.1502  0.4073  1.1057
   66CHL1  H15B 7310   3.466   5.575   9.835  1.0882 -0.3585 -0.0280
   66CHL1   C16 7311   3.536   5.434   9.686 -0.1159  1.0332  0.1891
   66CHL1  H16A 7312   3.468   5.384   9.614 -0.6014  0.2032  1.1969
   66CHL1  H16B 7313   3.590   5.519   9.639 -1.0257  1.1151 -0.7381
   66CHL1   C17 7314   3.648   5.327   9.730 -0.6805 -0.4287 -0.1814
   66CHL1   H17 7315   3.736   5.391   9.749 -0.4577 -0.8103  0.1022
   66CHL1   C13 7316   3.596   5.262   9.857 -0.0961 -0.1602 -0.6488
   66CHL1   C18 7317   3.482   5.171   9.833  0.5388  0.0709  0.6740
   66CHL1  H18A 7318   3.395   5.223   9.786  1.6512  2.6788  1.3425
   66CHL1  H18B 7319   3.519   5.088   9.768  1.2402  0.5787  0.4206
   66CHL1  H18C 7320   3.445   5.108   9.917  1.4750 -0.7987  0.4509
   66CHL1   C12 7321   3.706   5.195   9.957  0.1186 -0.1819  0.2580
   66CHL1  H12A 7322   3.732   5.090   9.931 -0.6762 -0.6325  1.2266
   66CHL1  H12B 7323   3.798   5.256   9.952  1.9277 -2.7035  0.8750
   66CHL1   C11 7324   3.651   5.176  10.100  0.4956  0.0990 -0.4868
   66CHL1  H11A 7325   3.578   5.091  10.095  0.2828  0.1371  1.2890
   66CHL1  H11B 7326   3.738   5.140  10.159 -0.4156 -0.9584  0.2682
   66CHL1    C9 7327   3.577   5.296  10.165 -0.6470  0.5383 -0.3180
   66CHL1    H9 7328   3.658   5.368  10.190 -0.9053  1.0107 -0.8094
   66CHL1   C10 7329   3.512   5.268  10.297  0.1850  0.1147  0.2443
   66CHL1   C19 7330   3.400   5.159  10.284  0.3160 -0.5943  0.6160
   66CHL1  H19A 7331   3.455   5.065  10.263 -1.6468 -1.5479 -0.5686
   66CHL1  H19B 7332   3.338   5.149  10.376 -0.0255 -0.4690  0.4035
   66CHL1  H19C 7333   3.336   5.188  10.198  2.2493  2.7798  0.1434
   66CHL1    C1 7334   3.612   5.232  10.403 -0.4336 -0.6620 -0.1888
   66CHL1   H1A 7335   3.645   5.128  10.380  0.0074 -0.3346 -1.0704
   66CHL1   H1B 7336   3.699   5.301  10.402  0.8435 -2.2206 -0.0292
   66CHL1    C2 7337   3.559   5.221  10.546  0.7230 -1.1937  0.2892
   66CHL1   H2A 7338   3.636   5.191  10.621  1.2463 -0.1202  0.2147
   66CHL1   H2B 7339   3.483   5.141  10.542  0.2195 -0.7088 -0.0132
   66CHL1   C20 7340   3.680   5.244   9.612  0.1463 -0.3484  0.1117
   66CHL1   H20 7341   3.584   5.195   9.585 -1.1764  3.4291 -2.9685
   66CHL1   C21 7342   3.789   5.140   9.643 -0.2852  0.0135  0.0578
   66CHL1  H21A 7343   3.749   5.059   9.708  0.4190 -0.6428 -0.3146
   66CHL1  H21B 7344   3.880   5.182   9.690 -0.2376  0.8873 -0.7963
   66CHL1  H21C 7345   3.822   5.083   9.553  0.6420 -0.3860  0.6436
   66CHL1   C22 7346   3.709   5.323   9.476  0.0694  0.4574 -0.3185
   66CHL1  H22A 7347   3.627   5.395   9.459  0.0160  1.6270  3.8737
   66CHL1  H22B 7348   3.795   5.393   9.493 -1.3163  1.9115  1.0308
   66CHL1   C23 7349   3.725   5.235   9.343 -0.3450 -0.7906 -0.4760
   66CHL1  H23A 7350   3.826   5.188   9.341  0.3070  0.5698 -0.6207
   66CHL1  H23B 7351   3.637   5.167   9.342  0.4953 -1.8956 -1.0264
   66CHL1   C24 7352   3.716   5.318   9.210  0.1920  0.0719 -0.4948
   66CHL1  H24A 7353   3.639   5.398   9.215  1.0277  0.8824  4.2625
   66CHL1  H24B 7354   3.814   5.363   9.186  0.4747  0.0298  0.5477
   66CHL1   C25 7355   3.687   5.232   9.078 -0.1926  0.3828 -0.2403
   66CHL1   H25 7356   3.761   5.149   9.078 -1.3036 -0.6490 -1.0972
   66CHL1   C26 7357   3.548   5.155   9.078  0.0488 -1.1022  0.1860
   66CHL1  H26A 7358   3.466   5.227   9.056  1.1304  0.0545 -0.1706
   66CHL1  H26B 7359   3.557   5.079   8.998 -0.3957  0.0784 -1.0223
   66CHL1  H26C 7360   3.534   5.112   9.180  0.4638 -2.3066 -0.2533
   66CHL1   C27 7361   3.701   5.311   8.953 -0.2722 -0.3256 -0.4299
   66CHL1  H27A 7362   3.803   5.354   8.945  0.4196 -1.7679  0.3258
   66CHL1  H27B 7363   3.673   5.248   8.866  2.0415 -1.4659 -0.4283
   66CHL1  H27C 7364   3.625   5.392   8.962  0.2289  0.3757 -2.0196
   67CHL1    C3 7365   1.072   5.646  10.206 -0.8178 -0.1649  0.1413
   67CHL1    H3 7366   0.999   5.569  10.172 -2.1404  0.2889  1.8149
   67CHL1    O3 7367   1.038   5.681  10.341 -0.7976  0.3611  0.4276
   67CHL1   H3' 7368   1.116   5.718  10.382  0.7804 -1.4261 -0.7716
   67CHL1    C4 7369   1.215   5.587  10.204 -0.2216  0.6110 -0.1874
   67CHL1   H4A 7370   1.285   5.665  10.240  0.0795  0.1379  0.2647
   67CHL1   H4B 7371   1.198   5.503  10.275 -3.3164 -0.0844 -1.5547
   67CHL1    C5 7372   1.246   5.548  10.061 -0.2664 -0.5329 -0.3631
   67CHL1    C6 7373   1.282   5.423  10.032  0.4373 -0.3857  0.3644
   67CHL1    H6 7374   1.305   5.347  10.108 -1.4123 -3.0032 -1.5392
   67CHL1    C7 7375   1.314   5.378   9.891  0.0597  0.3687  0.4240
   67CHL1   H7A 7376   1.398   5.306   9.897 -2.0835 -2.2928  0.8517
   67CHL1   H7B 7377   1.239   5.304   9.856 -0.1218  2.2879 -3.7286
   67CHL1    C8 7378   1.337   5.495   9.790  0.4033  0.7176  0.7535
   67CHL1    H8 7379   1.443   5.528   9.803  1.3682 -1.5232 -0.7131
   67CHL1   C14 7380   1.326   5.440   9.643  0.3803  0.0515 -0.4818
   67CHL1   H14 7381   1.218   5.419   9.627  0.3650  1.6376 -3.0428
   67CHL1   C15 7382   1.414   5.328   9.599  0.1953  0.4556 -0.5149
   67CHL1  H15A 7383   1.523   5.341   9.618  0.6372 -0.1537 -2.4390
   67CHL1  H15B 7384   1.391   5.231   9.646 -0.7130  1.3548  0.9686
   67CHL1   C16 7385   1.405   5.327   9.443 -0.6832 -0.1268  0.1953
   67CHL1  H16A 7386   1.508   5.315   9.405  0.5742  1.2206  2.9105
   67CHL1  H16B 7387   1.348   5.237   9.412 -1.9604  0.4879  0.6850
   67CHL1   C17 7388   1.332   5.467   9.413 -0.1318  0.1084  0.0244
   67CHL1   H17 7389   1.223   5.446   9.412 -0.0942 -0.2007  1.2558
   67CHL1   C13 7390   1.353   5.551   9.535  0.1842  0.7701 -0.3636
   67CHL1   C18 7391   1.493   5.599   9.543  0.1693 -0.1518 -0.1915
   67CHL1  H18A 7392   1.524   5.642   9.641 -0.5277  1.1719 -0.5273
   67CHL1  H18B 7393   1.569   5.519   9.532 -0.5668 -1.5180  3.3909
   67CHL1  H18C 7394   1.516   5.677   9.467 -1.8996  1.0022  0.2835
   67CHL1   C12 7395   1.250   5.667   9.553  0.8084  0.7755  0.0651
   67CHL1  H12A 7396   1.273   5.751   9.484  3.1028  0.7921  0.7463
   67CHL1  H12B 7397   1.154   5.621   9.523  0.9304 -1.6028  2.7912
   67CHL1   C11 7398   1.248   5.726   9.701 -0.0227  0.0682 -0.0803
   67CHL1  H11A 7399   1.338   5.790   9.714 -1.3749  2.1918 -0.6632
   67CHL1  H11B 7400   1.161   5.795   9.703  0.2451  0.4226 -0.5551
   67CHL1    C9 7401   1.236   5.612   9.804 -0.0005 -0.0467 -0.7951
   67CHL1    H9 7402   1.139   5.567   9.772 -0.2425  0.4497 -0.7648
   67CHL1   C10 7403   1.221   5.657   9.952  0.0190  0.4823 -0.2186
   67CHL1   C19 7404   1.336   5.758   9.990  0.3017 -0.2058  0.0976
   67CHL1  H19A 7405   1.434   5.716   9.957  0.4731  0.0056  0.3342
   67CHL1  H19B 7406   1.309   5.854   9.942  2.3365  1.4477  2.0505
   67CHL1  H19C 7407   1.362   5.784  10.095 -0.4156  1.4605 -0.1173
   67CHL1    C1 7408   1.078   5.728   9.971 -0.0035 -0.0308  0.1567
   67CHL1   H1A 7409   1.073   5.821   9.911 -1.3062 -0.2296 -0.0872
   67CHL1   H1B 7410   1.006   5.657   9.924 -1.4446  1.4592  0.0333
   67CHL1    C2 7411   1.044   5.763  10.116 -0.8012 -0.4600  0.5487
   67CHL1   H2A 7412   0.945   5.810  10.133 -0.5115  1.1301 -1.7206
   67CHL1   H2B 7413   1.114   5.838  10.159 -0.2902 -0.9091  0.5115
   67CHL1   C20 7414   1.363   5.539   9.276  0.0376 -0.1456 -0.2622
   67CHL1   H20 7415   1.391   5.640   9.312  0.6531 -1.2487  2.6721
   67CHL1   C21 7416   1.239   5.547   9.184  0.0141  0.2987 -0.2642
   67CHL1  H21A 7417   1.197   5.452   9.144 -1.7117  1.0949 -0.4689
   67CHL1  H21B 7418   1.252   5.617   9.099  0.1940  2.9083  1.7762
   67CHL1  H21C 7419   1.166   5.603   9.248  0.1944  0.8413 -0.5250
   67CHL1   C22 7420   1.472   5.473   9.197  0.0109  0.1868  0.1154
   67CHL1  H22A 7421   1.567   5.477   9.255  0.5721  1.6394 -0.8638
   67CHL1  H22B 7422   1.466   5.362   9.188  1.4809  0.0192  0.8394
   67CHL1   C23 7423   1.509   5.536   9.062  0.6013  0.0863  0.2581
   67CHL1  H23A 7424   1.436   5.523   8.980  2.8535 -0.4670 -1.7899
   67CHL1  H23B 7425   1.529   5.645   9.073  0.0225  0.4435 -1.7987
   67CHL1   C24 7426   1.639   5.464   9.009 -0.0620 -0.1772  0.5968
   67CHL1  H24A 7427   1.715   5.492   9.086  0.3902 -0.4624  0.2566
   67CHL1  H24B 7428   1.618   5.356   9.013 -1.8530  0.1186 -0.1739
   67CHL1   C25 7429   1.687   5.495   8.858  0.3159 -0.0302  0.1105
   67CHL1   H25 7430   1.676   5.602   8.831  1.5747  0.3365  0.9545
   67CHL1   C26 7431   1.839   5.466   8.849  0.2732 -0.3794 -0.3082
   67CHL1  H26A 7432   1.880   5.370   8.887  1.3867  0.9687  2.1537
   67CHL1  H26B 7433   1.872   5.455   8.744  1.9154 -0.1801  0.1506
   67CHL1  H26C 7434   1.896   5.543   8.907 -0.4299 -2.0565  2.8476
   67CHL1   C27 7435   1.605   5.416   8.747 -0.2289 -0.2806 -0.7210
   67CHL1  H27A 7436   1.603   5.307   8.769  2.2485 -0.7245 -2.2559
   67CHL1  H27B 7437   1.497   5.440   8.743 -0.5390 -1.1068  1.2402
   67CHL1  H27C 7438   1.655   5.430   8.649 -1.3322  2.0952 -1.0149
   68CHL1    C3 7439   0.675   6.546  10.247  0.5914  0.4769 -0.5184
   68CHL1    H3 7440   0.580   6.603  10.242  0.4924  0.7996  2.7697
   68CHL1    O3 7441   0.699   6.514  10.379 -0.5171 -0.1542  0.2278
   68CHL1   H3' 7442   0.791   6.487  10.375 -0.4177 -0.0733  1.6589
   68CHL1    C4 7443   0.657   6.409  10.176 -0.8571 -0.2481  0.4390
   68CHL1   H4A 7444   0.745   6.343  10.194 -0.8630 -0.2800  0.3475
   68CHL1   H4B 7445   0.563   6.365  10.216 -0.1772 -1.3553  0.8595
   68CHL1    C5 7446   0.651   6.423  10.022  1.7152  0.5283 -0.7336
   68CHL1    C6 7447   0.556   6.367   9.947 -0.5943  0.4454  0.0016
   68CHL1    H6 7448   0.477   6.313  10.002  0.7015  0.9717  2.5219
   68CHL1    C7 7449   0.544   6.364   9.795 -0.3030 -0.1700  0.3245
   68CHL1   H7A 7450   0.520   6.261   9.760 -2.3994 -0.2616  1.8775
   68CHL1   H7B 7451   0.462   6.433   9.765  0.2144 -0.2015 -1.2513
   68CHL1    C8 7452   0.674   6.419   9.729  0.4652 -0.3632 -1.0310
   68CHL1    H8 7453   0.754   6.342   9.737  0.7110  0.0377  0.6204
   68CHL1   C14 7454   0.642   6.461   9.591 -0.0200 -0.2857 -0.2715
   68CHL1   H14 7455   0.572   6.547   9.593 -1.0749 -1.1086 -0.7164
   68CHL1   C15 7456   0.558   6.359   9.497 -0.0719  0.6065  0.5765
   68CHL1  H15A 7457   0.578   6.251   9.515 -2.3918 -0.4231 -2.2743
   68CHL1  H15B 7458   0.448   6.371   9.508 -0.0885  0.4020  0.6347
   68CHL1   C16 7459   0.611   6.393   9.353 -0.3474 -0.3235  0.5163
   68CHL1  H16A 7460   0.671   6.306   9.319  0.1507  0.8336 -1.7270
   68CHL1  H16B 7461   0.527   6.413   9.283 -0.1557  0.5758  0.5282
   68CHL1   C17 7462   0.706   6.513   9.369 -0.1389 -0.0562  0.3516
   68CHL1   H17 7463   0.664   6.615   9.360  2.7879  1.2347  0.1038
   68CHL1   C13 7464   0.762   6.508   9.516 -0.0868  0.4394 -0.6774
   68CHL1   C18 7465   0.878   6.406   9.509 -0.0500 -0.0191  0.7258
   68CHL1  H18A 7466   0.899   6.364   9.609 -0.5319  0.4664  1.0332
   68CHL1  H18B 7467   0.876   6.322   9.436  0.9682  0.9374 -0.4495
   68CHL1  H18C 7468   0.972   6.460   9.483  0.9858 -0.9440  2.3957
   68CHL1   C12 7469   0.804   6.639   9.587 -0.4100 -0.3222 -0.3838
   68CHL1  H12A 7470   0.890   6.682   9.530  1.3115 -0.4410  1.9595
   68CHL1  H12B 7471   0.716   6.706   9.593 -0.8320 -0.9860  1.6916
   68CHL1   C11 7472   0.845   6.612   9.735  0.0209  0.1027  0.7027
   68CHL1  H11A 7473   0.937   6.550   9.736  0.6928  1.0701  1.7508
   68CHL1  H11B 7474   0.864   6.709   9.785  0.2761  1.3123 -1.5874
   68CHL1    C9 7475   0.735   6.532   9.813  0.1461 -0.3408 -0.5416
   68CHL1    H9 7476   0.652   6.605   9.813 -0.4525 -0.9600  1.1460
   68CHL1   C10 7477   0.765   6.504   9.966  0.7211  0.4712 -0.0366
   68CHL1   C19 7478   0.895   6.422   9.979  0.6292  0.2708  0.0580
   68CHL1  H19A 7479   0.926   6.428  10.086 -0.7452  1.2676  0.4228
   68CHL1  H19B 7480   0.876   6.314   9.957  0.0205  0.7265 -1.7593
   68CHL1  H19C 7481   0.975   6.454   9.909  0.8870  0.1687  0.2977
   68CHL1    C1 7482   0.778   6.638  10.039 -0.4878 -0.0109  0.0394
   68CHL1   H1A 7483   0.874   6.680  10.004  0.1427 -2.4385 -1.3606
   68CHL1   H1B 7484   0.687   6.698  10.017  0.1443  2.0468  2.4315
   68CHL1    C2 7485   0.791   6.624  10.194  0.0602 -0.7812  0.4808
   68CHL1   H2A 7486   0.787   6.731  10.224  0.8475 -0.6424  0.1109
   68CHL1   H2B 7487   0.892   6.584  10.217 -0.3740 -2.8946 -1.0053
   68CHL1   C20 7488   0.804   6.511   9.248 -0.2688 -0.1205 -0.0267
   68CHL1   H20 7489   0.865   6.419   9.247  1.5542  1.0404 -1.4959
   68CHL1   C21 7490   0.910   6.628   9.261 -0.1056 -0.7544 -0.2334
   68CHL1  H21A 7491   0.857   6.725   9.269 -1.4571 -1.4797 -0.0765
   68CHL1  H21B 7492   0.979   6.630   9.174 -0.2078  0.9136 -0.3134
   68CHL1  H21C 7493   0.979   6.614   9.347  0.6229 -1.1787 -0.8771
   68CHL1   C22 7494   0.729   6.524   9.108 -0.0829 -0.3204 -0.3055
   68CHL1  H22A 7495   0.660   6.438   9.096 -0.0530 -0.1813 -1.6134
   68CHL1  H22B 7496   0.670   6.618   9.106  0.4311  0.0200  0.3465
   68CHL1   C23 7497   0.818   6.494   8.984  0.1404  0.6387  0.4153
   68CHL1  H23A 7498   0.749   6.493   8.897 -3.4899  2.2242  3.0065
   68CHL1  H23B 7499   0.899   6.565   8.959 -0.8099  2.1457  1.4414
   68CHL1   C24 7500   0.890   6.356   8.987  0.4002  0.3080  0.5744
   68CHL1  H24A 7501   0.966   6.347   9.067 -0.9075 -0.1077  1.8181
   68CHL1  H24B 7502   0.818   6.272   8.997 -0.0156  0.3794 -1.3202
   68CHL1   C25 7503   0.978   6.349   8.857  0.0579 -0.0612  0.7306
   68CHL1   H25 7504   0.927   6.412   8.781  1.9364 -1.3188 -1.7048
   68CHL1   C26 7505   1.122   6.395   8.866  0.5754  0.5913 -0.6763
   68CHL1  H26A 7506   1.170   6.379   8.767  0.5487 -1.2076 -0.4204
   68CHL1  H26B 7507   1.133   6.502   8.895 -1.2974  0.3336  1.2595
   68CHL1  H26C 7508   1.165   6.328   8.943 -1.1941 -1.9518 -1.7504
   68CHL1   C27 7509   0.977   6.198   8.807 -0.5382 -0.3797 -0.2311
   68CHL1  H27A 7510   1.046   6.197   8.720  1.6743  1.2015  1.3946
   68CHL1  H27B 7511   0.997   6.131   8.894 -0.8277  2.3675  2.1111
   68CHL1  H27C 7512   0.876   6.169   8.770 -0.9331 -1.7276  1.6995
   69CHL1    C3 7513   6.365   5.849   6.882  0.2007 -0.5125  0.2805
   69CHL1    H3 7514   6.460   5.905   6.891 -0.5389  0.7358  0.6259
   69CHL1    O3 7515   6.333   5.832   6.748 -0.0649 -0.1205 -0.3388
   69CHL1   H3' 7516   6.272   5.905   6.732 -0.7783  0.1306  2.9618
   69CHL1    C4 7517   6.380   5.710   6.946 -0.5798 -0.3551 -0.1308
   69CHL1   H4A 7518   6.304   5.634   6.918 -1.2700  0.6329 -0.9846
   69CHL1   H4B 7519   6.473   5.671   6.900 -0.4315 -0.9890  0.6821
   69CHL1    C5 7520   6.394   5.710   7.100  0.5794 -0.5573  0.6766
   69CHL1    C6 7521   6.501   5.659   7.159  0.1972 -0.1305 -0.4084
   69CHL1    H6 7522   6.578   5.612   7.097 -0.2980 -0.1404 -1.0219
   69CHL1    C7 7523   6.511   5.651   7.312 -0.3183  0.9634 -0.4981
   69CHL1   H7A 7524   6.553   5.554   7.348  1.9771  1.8878 -0.4964
   69CHL1   H7B 7525   6.594   5.718   7.343  3.0308 -1.8588 -2.5377
   69CHL1    C8 7526   6.383   5.692   7.388  0.6378 -0.3063 -0.9779
   69CHL1    H8 7527   6.321   5.600   7.390  1.1568 -0.6983  1.9733
   69CHL1   C14 7528   6.410   5.736   7.534 -0.4898  0.1180 -0.7358
   69CHL1   H14 7529   6.481   5.821   7.529 -0.2724  0.0481  0.7798
   69CHL1   C15 7530   6.489   5.626   7.622  0.1198 -0.0819  0.7680
   69CHL1  H15A 7531   6.435   5.530   7.611 -0.8035  0.6584 -2.6013
   69CHL1  H15B 7532   6.596   5.612   7.596 -0.8649 -3.0491 -2.4706
   69CHL1   C16 7533   6.482   5.694   7.754 -0.4163  0.6290  0.1388
   69CHL1  H16A 7534   6.455   5.617   7.829  0.4216  1.6035  1.4860
   69CHL1  H16B 7535   6.578   5.747   7.772  0.0124  0.3476 -1.2029
   69CHL1   C17 7536   6.372   5.807   7.756 -0.0065  0.2343  0.3606
   69CHL1   H17 7537   6.422   5.906   7.748 -1.3689  0.8300 -1.5576
   69CHL1   C13 7538   6.299   5.786   7.619 -0.1504 -0.1583  0.2359
   69CHL1   C18 7539   6.198   5.670   7.641 -0.0010  0.2299  0.8164
   69CHL1  H18A 7540   6.244   5.597   7.711 -0.6254 -0.8697  0.0986
   69CHL1  H18B 7541   6.100   5.703   7.681 -0.6591 -1.0895  0.3683
   69CHL1  H18C 7542   6.179   5.617   7.545 -0.4320  0.2161  0.9079
   69CHL1   C12 7543   6.233   5.903   7.550 -0.1913 -0.1010  0.1964
   69CHL1  H12A 7544   6.145   5.939   7.607 -0.0379  1.0543 -0.2700
   69CHL1  H12B 7545   6.303   5.989   7.545 -1.3610  0.8221 -3.1366
   69CHL1   C11 7546   6.192   5.868   7.404  0.1435  1.1698  0.2613
   69CHL1  H11A 7547   6.115   5.788   7.402  0.3991  0.9325 -1.0486
   69CHL1  H11B 7548   6.156   5.964   7.363  2.3961  2.2470  0.6210
   69CHL1    C9 7549   6.316   5.812   7.324 -0.0953 -0.0115 -0.1217
   69CHL1    H9 7550   6.395   5.889   7.341 -2.0018  1.9258  0.4137
   69CHL1   C10 7551   6.287   5.794   7.177  0.3071 -0.0057  0.3222
   69CHL1   C19 7552   6.161   5.709   7.158  0.0364 -0.5872  0.0154
   69CHL1  H19A 7553   6.083   5.776   7.200 -0.5820 -1.4055  0.1964
   69CHL1  H19B 7554   6.134   5.680   7.054  0.0357 -0.2709 -0.0747
   69CHL1  H19C 7555   6.171   5.613   7.213  1.6615 -0.7085 -0.4262
   69CHL1    C1 7556   6.271   5.929   7.104  0.6024 -0.3869 -0.5858
   69CHL1   H1A 7557   6.176   5.972   7.140  1.2504  1.3195 -0.8288
   69CHL1   H1B 7558   6.360   5.993   7.123  0.8958 -0.5715 -1.2889
   69CHL1    C2 7559   6.248   5.929   6.949  0.0967  0.1413 -0.3694
   69CHL1   H2A 7560   6.223   6.032   6.916 -1.2715  0.3502  1.1666
   69CHL1   H2B 7561   6.150   5.877   6.947  0.5081 -0.7198  0.6997
   69CHL1   C20 7562   6.288   5.808   7.884 -0.3092 -0.7654 -0.9519
   69CHL1   H20 7563   6.234   5.711   7.890 -0.2865 -0.7401 -0.2301
   69CHL1   C21 7564   6.179   5.917   7.878  0.6747  0.2189 -0.4126
   69CHL1  H21A 7565   6.112   5.903   7.790 -0.2710 -1.9418  0.5656
   69CHL1  H21B 7566   6.215   6.019   7.852 -1.6203  0.4919 -3.0425
   69CHL1  H21C 7567   6.103   5.914   7.960  1.9337  2.9809  0.9839
   69CHL1   C22 7568   6.373   5.822   8.017  0.0352  0.1632 -0.4360
   69CHL1  H22A 7569   6.442   5.736   8.028 -0.1416  0.2348  1.7665
   69CHL1  H22B 7570   6.436   5.914   8.016  0.7151 -0.1550  2.7588
   69CHL1   C23 7571   6.288   5.818   8.143 -0.9030  0.8173  0.4968
   69CHL1  H23A 7572   6.216   5.903   8.142 -3.5954 -1.3150 -2.3958
   69CHL1  H23B 7573   6.223   5.729   8.128  0.2958 -0.5187  2.6332
   69CHL1   C24 7574   6.379   5.818   8.267 -0.4473 -0.1793 -0.2227
   69CHL1  H24A 7575   6.437   5.725   8.282 -1.4042 -0.5335  1.5373
   69CHL1  H24B 7576   6.452   5.899   8.245  1.0270 -1.5122 -0.4561
   69CHL1   C25 7577   6.308   5.855   8.404 -0.0344  0.0227 -0.2180
   69CHL1   H25 7578   6.248   5.946   8.384  0.0589  0.0911 -0.1874
   69CHL1   C26 7579   6.209   5.751   8.459  0.5609  0.2713 -0.6832
   69CHL1  H26A 7580   6.272   5.662   8.481  0.3629  0.3947  0.4286
   69CHL1  H26B 7581   6.158   5.790   8.549  0.6834  0.8204 -0.8493
   69CHL1  H26C 7582   6.131   5.715   8.388  0.3020 -0.9267  0.1901
   69CHL1   C27 7583   6.415   5.890   8.509  0.4719  0.4900  0.2732
   69CHL1  H27A 7584   6.366   5.907   8.607 -1.8676  0.5361 -0.8421
   69CHL1  H27B 7585   6.493   5.811   8.512 -1.1642 -1.3926 -2.0905
   69CHL1  H27C 7586   6.468   5.982   8.476 -0.7967  0.3753 -2.3905
   70CHL1    C3 7587   3.734   1.214   7.026 -0.9903 -0.2654 -0.5087
   70CHL1    H3 7588   3.833   1.260   7.007  0.1928 -0.8108  3.3111
   70CHL1    O3 7589   3.650   1.189   6.909 -0.9644 -0.2183  0.3882
   70CHL1   H3' 7590   3.622   1.271   6.868  0.5486  1.3869  2.3327
   70CHL1    C4 7591   3.770   1.079   7.094 -0.0166  0.3060  0.4389
   70CHL1   H4A 7592   3.682   1.013   7.113 -1.2559  0.9116 -2.6881
   70CHL1   H4B 7593   3.834   1.034   7.016  0.8417  1.1371  0.6496
   70CHL1    C5 7594   3.844   1.094   7.224 -0.3582 -0.2704 -0.3736
   70CHL1    C6 7595   3.955   1.027   7.247 -0.8850 -0.4225  0.6132
   70CHL1    H6 7596   3.989   0.955   7.171  1.6042 -0.9791  2.1422
   70CHL1    C7 7597   4.041   1.041   7.372  0.1451  1.1444 -0.2169
   70CHL1   H7A 7598   4.067   0.935   7.396 -0.3378  0.8647 -0.8802
   70CHL1   H7B 7599   4.134   1.098   7.349  1.3481 -0.6721 -0.0814
   70CHL1    C8 7600   3.960   1.110   7.483 -0.0190  1.1183 -0.2187
   70CHL1    H8 7601   3.898   1.030   7.528 -0.4000  1.5012 -0.0555
   70CHL1   C14 7602   4.042   1.152   7.606  0.1567 -0.5495  0.1484
   70CHL1   H14 7603   4.102   1.240   7.574 -1.5362  0.5607 -0.0536
   70CHL1   C15 7604   4.142   1.045   7.655 -0.3598  1.0691 -0.3634
   70CHL1  H15A 7605   4.091   0.948   7.638  0.2727  0.7565 -0.5414
   70CHL1  H15B 7606   4.240   1.042   7.601 -1.0098 -0.4594 -1.5356
   70CHL1   C16 7607   4.155   1.066   7.798 -0.2642  0.1043 -0.6517
   70CHL1  H16A 7608   4.138   0.977   7.863 -0.4615  0.2457 -0.5114
   70CHL1  H16B 7609   4.260   1.094   7.823 -0.5307  0.2038  0.4336
   70CHL1   C17 7610   4.069   1.192   7.833 -0.5418 -0.4182 -0.4071
   70CHL1   H17 7611   4.139   1.277   7.815  1.9750 -2.1469  0.6825
   70CHL1   C13 7612   3.960   1.197   7.724  0.1164  0.3668  0.6554
   70CHL1   C18 7613   3.855   1.092   7.766  0.4661 -0.1814  0.9347
   70CHL1  H18A 7614   3.887   0.991   7.800 -0.9652 -0.5156  1.3481
   70CHL1  H18B 7615   3.801   1.138   7.852 -0.6941 -1.5661  0.9608
   70CHL1  H18C 7616   3.776   1.076   7.691  2.4328  0.0245 -1.2923
   70CHL1   C12 7617   3.898   1.334   7.685  0.5982  0.1219  0.0930
   70CHL1  H12A 7618   3.833   1.377   7.764 -1.3544 -1.1972 -0.7196
   70CHL1  H12B 7619   3.983   1.405   7.671  0.5820  0.0728 -0.2719
   70CHL1   C11 7620   3.820   1.305   7.555 -0.1631 -0.3976 -0.2041
   70CHL1  H11A 7621   3.723   1.261   7.588 -1.5788  1.1135 -2.1471
   70CHL1  H11B 7622   3.796   1.409   7.526  1.4960  0.4885  1.3571
   70CHL1    C9 7623   3.886   1.235   7.439 -0.9226  0.3936 -0.5270
   70CHL1    H9 7624   3.964   1.305   7.401 -2.0071  0.5759 -2.5839
   70CHL1   C10 7625   3.788   1.200   7.321 -0.0983  0.0314 -0.2887
   70CHL1   C19 7626   3.655   1.131   7.372 -0.3966  0.0761  0.0317
   70CHL1  H19A 7627   3.678   1.026   7.400 -0.7266 -0.7534 -2.5894
   70CHL1  H19B 7628   3.594   1.182   7.450  0.1737 -0.6843  0.9951
   70CHL1  H19C 7629   3.582   1.117   7.290 -0.0686 -0.8558 -0.1166
   70CHL1    C1 7630   3.753   1.334   7.244 -0.1791  0.2168  0.5000
   70CHL1   H1A 7631   3.697   1.402   7.311 -0.4945 -0.4602  0.9323
   70CHL1   H1B 7632   3.855   1.374   7.224 -0.3999  1.2959  1.4399
   70CHL1    C2 7633   3.667   1.320   7.119 -0.5305  0.2927  0.1021
   70CHL1   H2A 7634   3.657   1.424   7.081 -1.2483  1.2631  2.6858
   70CHL1   H2B 7635   3.568   1.276   7.144  0.5268 -0.3050  3.8865
   70CHL1   C20 7636   4.035   1.195   7.978  0.3220 -0.3892  0.6126
   70CHL1   H20 7637   3.979   1.103   8.004  0.4376 -1.5300 -2.6882
   70CHL1   C21 7638   3.966   1.321   8.008  0.3789 -0.1030 -0.7971
   70CHL1  H21A 7639   3.865   1.324   7.962  0.1544 -0.2489 -0.3242
   70CHL1  H21B 7640   4.041   1.395   7.972  2.2190 -1.6506 -0.3514
   70CHL1  H21C 7641   3.956   1.320   8.119  4.3364 -1.4214 -0.2634
   70CHL1   C22 7642   4.163   1.172   8.071  0.6528  0.0421 -0.3322
   70CHL1  H22A 7643   4.208   1.073   8.045  0.0083 -0.1527 -0.7229
   70CHL1  H22B 7644   4.229   1.256   8.042 -0.2155  0.5745 -0.7924
   70CHL1   C23 7645   4.133   1.180   8.220 -0.6179 -0.5396  0.6005
   70CHL1  H23A 7646   4.098   1.282   8.249 -0.0824 -0.4917  1.0972
   70CHL1  H23B 7647   4.058   1.101   8.238  0.2850 -0.8953  3.2709
   70CHL1   C24 7648   4.254   1.137   8.302 -1.2887  0.4597  0.1504
   70CHL1  H24A 7649   4.288   1.043   8.253 -2.2312 -0.1212  0.6029
   70CHL1  H24B 7650   4.333   1.216   8.298 -0.2092 -0.6135 -0.5548
   70CHL1   C25 7651   4.220   1.106   8.444 -0.0452  0.2730 -0.0866
   70CHL1   H25 7652   4.137   1.177   8.466  0.5171  1.1504 -0.8017
   70CHL1   C26 7653   4.169   0.962   8.465  0.5319  0.1999  0.1412
   70CHL1  H26A 7654   4.158   0.940   8.573 -0.8831 -3.0188 -0.5289
   70CHL1  H26B 7655   4.078   0.943   8.403  0.2363 -2.4959  1.2644
   70CHL1  H26C 7656   4.237   0.886   8.421 -0.3967 -0.2790 -0.5303
   70CHL1   C27 7657   4.338   1.129   8.533 -0.2481 -0.2165 -0.2877
   70CHL1  H27A 7658   4.425   1.065   8.510  1.3210  1.4325  0.8192
   70CHL1  H27B 7659   4.372   1.234   8.516 -0.2890 -0.2248 -0.4166
   70CHL1  H27C 7660   4.309   1.120   8.640  1.5445 -1.7982  0.1198
   71CHL1    C3 7661   4.795   4.877   7.051 -0.0894  0.8980 -0.0320
   71CHL1    H3 7662   4.873   4.798   7.061 -0.5197  0.6573  1.8331
   71CHL1    O3 7663   4.808   4.930   6.927  0.4705  0.4886 -0.1029
   71CHL1   H3' 7664   4.724   4.976   6.919 -0.0772 -0.5782 -0.6848
   71CHL1    C4 7665   4.645   4.825   7.081 -0.2362  0.1341  0.6496
   71CHL1   H4A 7666   4.571   4.900   7.044  1.3959  1.1163 -0.7730
   71CHL1   H4B 7667   4.631   4.735   7.017 -1.3786 -0.7766  2.0910
   71CHL1    C5 7668   4.607   4.793   7.224 -0.3935  0.0142 -0.2057
   71CHL1    C6 7669   4.543   4.680   7.252 -0.0641  0.4258  0.1187
   71CHL1    H6 7670   4.508   4.620   7.166 -2.5778  2.7989 -0.6501
   71CHL1    C7 7671   4.505   4.641   7.391 -0.1220 -0.0322  0.1873
   71CHL1   H7A 7672   4.395   4.622   7.385 -0.3149  0.4272  1.8241
   71CHL1   H7B 7673   4.556   4.547   7.421  1.7430  0.3766 -1.5221
   71CHL1    C8 7674   4.529   4.751   7.498  0.0443  0.2845 -0.4017
   71CHL1    H8 7675   4.442   4.820   7.503 -0.0219  0.1208  1.3207
   71CHL1   C14 7676   4.533   4.692   7.638 -0.0725  0.0555 -0.1551
   71CHL1   H14 7677   4.620   4.623   7.636  0.8010  1.1348 -0.6598
   71CHL1   C15 7678   4.416   4.613   7.684  0.3991  0.5550  0.5851
   71CHL1  H15A 7679   4.321   4.657   7.647  0.1903 -0.6251 -0.3329
   71CHL1  H15B 7680   4.422   4.510   7.644 -0.6411  0.3176  1.0010
   71CHL1   C16 7681   4.416   4.617   7.836  0.0396 -0.6404  0.4957
   71CHL1  H16A 7682   4.322   4.670   7.862 -0.8436 -1.3593 -1.1326
   71CHL1  H16B 7683   4.408   4.523   7.893 -3.5979  0.1687  1.5738
   71CHL1   C17 7684   4.547   4.692   7.877 -0.0565 -0.2043  0.1188
   71CHL1   H17 7685   4.634   4.622   7.883  0.6343  0.6667  0.5061
   71CHL1   C13 7686   4.561   4.789   7.756  0.7019 -0.1512  0.0237
   71CHL1   C18 7687   4.453   4.900   7.755 -0.0266 -0.4409 -0.0971
   71CHL1  H18A 7688   4.353   4.867   7.789 -0.4816  1.0814  0.1087
   71CHL1  H18B 7689   4.493   4.977   7.824 -1.9929  0.7479 -0.1979
   71CHL1  H18C 7690   4.447   4.942   7.652 -0.2361 -0.7774 -0.2209
   71CHL1   C12 7691   4.695   4.847   7.733 -0.0795 -0.3537 -0.8194
   71CHL1  H12A 7692   4.715   4.919   7.815 -0.0889 -2.5908  1.2726
   71CHL1  H12B 7693   4.771   4.769   7.754 -1.1292 -0.5868  2.7509
   71CHL1   C11 7694   4.707   4.915   7.595  0.3247  0.5192 -0.4984
   71CHL1  H11A 7695   4.639   5.003   7.590 -1.3773 -0.7997 -1.4072
   71CHL1  H11B 7696   4.814   4.942   7.580  0.0945  0.4558 -2.4967
   71CHL1    C9 7697   4.659   4.827   7.475  0.2582  0.2447  0.2846
   71CHL1    H9 7698   4.733   4.744   7.475  1.5156  1.3031 -1.4303
   71CHL1   C10 7699   4.661   4.895   7.332 -0.2560 -0.1890  0.2793
   71CHL1   C19 7700   4.575   5.026   7.333 -0.5780  0.8130  0.1810
   71CHL1  H19A 7701   4.629   5.106   7.389  0.0102 -0.7065  1.8983
   71CHL1  H19B 7702   4.566   5.065   7.230  2.8448  0.1088 -0.5163
   71CHL1  H19C 7703   4.473   5.022   7.377 -1.1721  1.6345 -1.0638
   71CHL1    C1 7704   4.810   4.937   7.297  0.8908  0.4064  0.6833
   71CHL1   H1A 7705   4.828   5.028   7.359  0.4486  1.0429 -0.1149
   71CHL1   H1B 7706   4.874   4.848   7.315 -0.3708 -0.9417 -1.1978
   71CHL1    C2 7707   4.832   4.984   7.155 -0.1214 -0.0892 -0.0983
   71CHL1   H2A 7708   4.939   5.013   7.154  0.1685 -1.0204  1.6132
   71CHL1   H2B 7709   4.756   5.064   7.139  0.4141  0.5304  0.4303
   71CHL1   C20 7710   4.551   4.756   8.020  0.3004 -0.6969  0.5158
   71CHL1   H20 7711   4.517   4.861   8.017 -0.4762 -0.9437 -2.0121
   71CHL1   C21 7712   4.705   4.758   8.059  0.7640  0.8066  0.4863
   71CHL1  H21A 7713   4.767   4.805   7.980  2.1796 -1.7005 -0.0073
   71CHL1  H21B 7714   4.744   4.656   8.080  1.1838  0.3715 -2.1080
   71CHL1  H21C 7715   4.709   4.810   8.157 -0.3027  1.0257  0.4270
   71CHL1   C22 7716   4.472   4.676   8.120  0.2080  0.0421  0.4372
   71CHL1  H22A 7717   4.364   4.669   8.095  0.4898 -0.5046 -0.6866
   71CHL1  H22B 7718   4.508   4.571   8.122  1.3976  0.3525  4.3587
   71CHL1   C23 7719   4.468   4.744   8.260  0.5942  0.3867  0.4738
   71CHL1  H23A 7720   4.568   4.769   8.299  0.8089 -0.8094  0.7209
   71CHL1  H23B 7721   4.418   4.842   8.245 -0.1062 -0.0632 -0.2305
   71CHL1   C24 7722   4.378   4.657   8.353  0.3024 -0.2653  0.1252
   71CHL1  H24A 7723   4.382   4.701   8.456  2.3292  0.0203 -0.0361
   71CHL1  H24B 7724   4.276   4.651   8.311 -0.0757 -0.3483  1.0223
   71CHL1   C25 7725   4.433   4.508   8.382 -0.1807 -0.1155  0.8230
   71CHL1   H25 7726   4.443   4.458   8.284 -3.5826 -1.0624  0.8475
   71CHL1   C26 7727   4.564   4.508   8.456  0.0495 -0.6720 -0.3779
   71CHL1  H26A 7728   4.554   4.551   8.558  3.9073  0.9639 -0.5109
   71CHL1  H26B 7729   4.610   4.407   8.461 -0.6920 -1.1278 -1.9490
   71CHL1  H26C 7730   4.637   4.576   8.406 -0.0368  1.4887  2.2464
   71CHL1   C27 7731   4.324   4.426   8.451 -0.5617 -0.3962 -0.2610
   71CHL1  H27A 7732   4.245   4.405   8.375 -0.0743  0.1088 -0.9135
   71CHL1  H27B 7733   4.368   4.333   8.493  0.5514  0.6598  1.0038
   71CHL1  H27C 7734   4.287   4.485   8.538 -0.6162  0.3456 -0.7818
   72CHL1    C3 7735   3.955   1.693   7.169  0.5095 -0.5705 -0.0010
   72CHL1    H3 7736   3.853   1.673   7.206  0.1888 -0.1242 -0.6249
   72CHL1    O3 7737   3.944   1.693   7.025  0.2190  0.0395 -0.4825
   72CHL1   H3' 7738   3.858   1.729   7.002  0.3418 -0.7073 -2.2654
   72CHL1    C4 7739   4.003   1.831   7.211 -0.4433 -0.4283  0.2459
   72CHL1   H4A 7740   4.097   1.844   7.151 -1.3219  0.7692 -0.9376
   72CHL1   H4B 7741   3.930   1.903   7.169  1.9968  0.2557 -3.3115
   72CHL1    C5 7742   4.036   1.837   7.361 -0.7920  0.4157  0.1240
   72CHL1    C6 7743   3.977   1.928   7.435  0.3734  0.5037  0.0207
   72CHL1    H6 7744   3.919   2.005   7.382 -2.2102 -0.1618  1.7064
   72CHL1    C7 7745   4.004   1.945   7.585  0.6814  0.4193  0.7065
   72CHL1   H7A 7746   4.005   2.052   7.615 -0.9475  0.9562 -0.9389
   72CHL1   H7B 7747   3.912   1.914   7.638 -0.0446  1.9447  0.4077
   72CHL1    C8 7748   4.111   1.864   7.649  0.2512  0.3444  0.4119
   72CHL1    H8 7749   4.215   1.896   7.627  1.1898 -2.5253  0.2525
   72CHL1   C14 7750   4.106   1.856   7.802 -0.4016  0.5955 -0.2090
   72CHL1   H14 7751   4.001   1.824   7.822  0.0163  0.8861  2.9938
   72CHL1   C15 7752   4.106   1.982   7.887 -0.2736  0.1205 -0.3715
   72CHL1  H15A 7753   4.181   2.055   7.849  1.5640 -0.7513  1.3774
   72CHL1  H15B 7754   3.999   2.013   7.883 -0.1443  0.4323 -2.9858
   72CHL1   C16 7755   4.134   1.921   8.031 -0.2665  0.1966  0.0582
   72CHL1  H16A 7756   4.221   1.976   8.073  0.0616 -1.0091  0.9963
   72CHL1  H16B 7757   4.039   1.938   8.086 -0.7799  0.2466 -0.8297
   72CHL1   C17 7758   4.163   1.767   8.014 -1.2884  0.1645 -1.0294
   72CHL1   H17 7759   4.065   1.718   8.035 -1.4270  1.2717  1.0670
   72CHL1   C13 7760   4.199   1.750   7.868 -0.6413 -0.1577  0.3137
   72CHL1   C18 7761   4.351   1.790   7.851 -0.6266  0.2188 -0.4346
   72CHL1  H18A 7762   4.376   1.882   7.908 -1.6298  0.0510  0.3012
   72CHL1  H18B 7763   4.415   1.707   7.888 -1.2450 -0.8700 -1.7421
   72CHL1  H18C 7764   4.375   1.810   7.744  4.2542 -1.0629  0.1871
   72CHL1   C12 7765   4.164   1.616   7.799  0.1634  0.0493 -0.1473
   72CHL1  H12A 7766   4.232   1.536   7.836  2.7738  2.3624  0.3228
   72CHL1  H12B 7767   4.056   1.590   7.808  0.2859 -1.3747 -2.1871
   72CHL1   C11 7768   4.197   1.618   7.645 -0.2781  0.1205 -0.2863
   72CHL1  H11A 7769   4.304   1.645   7.634 -0.3580  0.1250 -1.1013
   72CHL1  H11B 7770   4.170   1.518   7.604 -0.6356 -0.8748  2.1700
   72CHL1    C9 7771   4.105   1.725   7.579  0.4189 -0.0207  0.5249
   72CHL1    H9 7772   4.002   1.688   7.598  0.2393 -0.2763 -0.8418
   72CHL1   C10 7773   4.120   1.721   7.422  1.0690  0.1487  0.1387
   72CHL1   C19 7774   4.274   1.745   7.393 -0.5594 -0.0474  0.5716
   72CHL1  H19A 7775   4.327   1.815   7.461  1.9062 -2.0187  0.8370
   72CHL1  H19B 7776   4.327   1.647   7.400 -0.5682 -0.3297 -2.3118
   72CHL1  H19C 7777   4.288   1.782   7.289  1.5600 -2.6407 -0.1917
   72CHL1    C1 7778   4.075   1.588   7.359  0.2612 -0.1773  0.6633
   72CHL1   H1A 7779   4.151   1.507   7.368  0.0298 -0.4529  0.1481
   72CHL1   H1B 7780   3.982   1.558   7.411 -0.6047  1.6387  0.2373
   72CHL1    C2 7781   4.057   1.588   7.208  0.2159 -0.2028  0.2150
   72CHL1   H2A 7782   4.029   1.489   7.164  0.1484 -0.3442  0.5717
   72CHL1   H2B 7783   4.156   1.614   7.167 -0.4400  0.7794 -0.8008
   72CHL1   C20 7784   4.258   1.710   8.128  0.2178 -0.4286  0.8388
   72CHL1   H20 7785   4.353   1.767   8.129 -0.1376  0.2308 -0.7763
   72CHL1   C21 7786   4.285   1.560   8.098 -0.3494 -0.3461 -0.2412
   72CHL1  H21A 7787   4.332   1.550   7.998  1.6368  0.6164  0.5383
   72CHL1  H21B 7788   4.194   1.498   8.083 -0.3645 -0.1122 -1.1502
   72CHL1  H21C 7789   4.356   1.525   8.176  0.0576  1.9740  0.5183
   72CHL1   C22 7790   4.193   1.707   8.270 -0.2480  0.0033  0.1948
   72CHL1  H22A 7791   4.138   1.801   8.292  1.8714  1.0723  1.2425
   72CHL1  H22B 7792   4.114   1.630   8.259  0.1234 -0.1630 -1.8594
   72CHL1   C23 7793   4.272   1.682   8.397 -0.8153  0.6618 -0.2060
   72CHL1  H23A 7794   4.208   1.686   8.487  2.6773  2.6643  2.4355
   72CHL1  H23B 7795   4.314   1.579   8.401 -3.5265 -0.5027  1.5805
   72CHL1   C24 7796   4.356   1.803   8.432 -0.0785 -0.1329 -0.2263
   72CHL1  H24A 7797   4.432   1.831   8.356  0.2452 -0.2145  0.0600
   72CHL1  H24B 7798   4.280   1.883   8.428  0.0358  0.0556  0.8938
   72CHL1   C25 7799   4.421   1.785   8.574 -0.1097 -0.0340  0.1161
   72CHL1   H25 7800   4.345   1.763   8.653  0.0196  1.6011  0.7284
   72CHL1   C26 7801   4.531   1.674   8.587 -0.2203 -0.5299 -0.5848
   72CHL1  H26A 7802   4.588   1.679   8.683  1.2526  2.3741 -1.4842
   72CHL1  H26B 7803   4.500   1.568   8.584  1.5677 -1.0619 -1.1434
   72CHL1  H26C 7804   4.598   1.678   8.498  0.7003 -1.1494  0.0669
   72CHL1   C27 7805   4.492   1.922   8.604  0.4013  0.0000 -0.2119
   72CHL1  H27A 7806   4.510   1.934   8.713  2.3302  1.7507 -0.6602
   72CHL1  H27B 7807   4.588   1.939   8.551  0.3454  0.6037 -0.1302
   72CHL1  H27C 7808   4.420   2.006   8.587  0.1528 -0.0146  0.7128
   73CHL1    C3 7809   5.779   6.728   6.880  0.0157 -0.3979 -0.8620
   73CHL1    H3 7810   5.824   6.627   6.883 -1.5033 -1.1043 -0.9901
   73CHL1    O3 7811   5.766   6.764   6.738  0.3135 -0.1026 -0.3316
   73CHL1   H3' 7812   5.707   6.839   6.741  0.6591  0.1764 -0.4267
   73CHL1    C4 7813   5.643   6.705   6.946  0.0097  0.4943 -0.7012
   73CHL1   H4A 7814   5.571   6.786   6.923 -0.6224 -0.8285 -4.0852
   73CHL1   H4B 7815   5.603   6.616   6.893 -1.1012  1.5503 -1.6898
   73CHL1    C5 7816   5.643   6.690   7.100  0.0166  0.3769  0.6198
   73CHL1    C6 7817   5.598   6.576   7.159 -0.2092 -0.5439 -1.0618
   73CHL1    H6 7818   5.545   6.501   7.098 -0.2116 -1.1257 -0.3463
   73CHL1    C7 7819   5.600   6.560   7.309 -0.0428 -1.0160 -0.4537
   73CHL1   H7A 7820   5.506   6.517   7.352 -1.7515  1.6083 -1.3252
   73CHL1   H7B 7821   5.673   6.481   7.336 -1.2956 -1.9342  0.3420
   73CHL1    C8 7822   5.633   6.691   7.386 -0.4876  0.7219 -0.1945
   73CHL1    H8 7823   5.546   6.760   7.399 -1.5885 -0.7053  0.2459
   73CHL1   C14 7824   5.678   6.653   7.529  0.1029 -0.0979  0.8047
   73CHL1   H14 7825   5.770   6.591   7.517  1.5583  2.1851 -0.8233
   73CHL1   C15 7826   5.593   6.562   7.617  0.0363  0.3331 -0.7756
   73CHL1  H15A 7827   5.488   6.599   7.623  0.3569  1.0761  2.5491
   73CHL1  H15B 7828   5.590   6.454   7.593  1.3637 -0.0673  0.7183
   73CHL1   C16 7829   5.668   6.577   7.761  0.3735 -0.1186  0.3177
   73CHL1  H16A 7830   5.582   6.589   7.831  0.8232  0.6225  0.7500
   73CHL1  H16B 7831   5.724   6.486   7.792 -1.6932 -1.6962 -0.3234
   73CHL1   C17 7832   5.761   6.704   7.753  0.0350 -0.3615 -0.3607
   73CHL1   H17 7833   5.862   6.665   7.731  0.1371 -0.2629 -0.0660
   73CHL1   C13 7834   5.724   6.772   7.624  0.2027 -0.5404  0.6017
   73CHL1   C18 7835   5.588   6.855   7.653  0.4004 -0.8868  0.3344
   73CHL1  H18A 7836   5.542   6.912   7.569  0.2358 -0.0054  1.0090
   73CHL1  H18B 7837   5.514   6.802   7.717  0.8114 -0.9296  0.7720
   73CHL1  H18C 7838   5.630   6.945   7.701  1.4020  0.3148 -2.5683
   73CHL1   C12 7839   5.837   6.850   7.548  0.5719 -0.0445 -0.1160
   73CHL1  H12A 7840   5.858   6.944   7.603 -1.7322  0.8973 -0.7155
   73CHL1  H12B 7841   5.928   6.788   7.537  1.1160  0.3919  1.6395
   73CHL1   C11 7842   5.790   6.893   7.409 -0.0949 -0.5717 -0.1454
   73CHL1  H11A 7843   5.701   6.957   7.429 -1.4498 -2.2568 -0.5592
   73CHL1  H11B 7844   5.868   6.956   7.363 -0.7070  0.1499 -0.2156
   73CHL1    C9 7845   5.747   6.772   7.318  0.4639  0.3469 -0.0448
   73CHL1    H9 7846   5.826   6.694   7.318  0.8938  0.7642 -1.3008
   73CHL1   C10 7847   5.724   6.804   7.170  0.4870 -0.1290 -0.5658
   73CHL1   C19 7848   5.641   6.936   7.152  0.8148  0.3683 -0.7794
   73CHL1  H19A 7849   5.541   6.906   7.190  0.5646 -1.0758 -2.4343
   73CHL1  H19B 7850   5.690   7.022   7.202 -0.8006  1.0898 -0.3654
   73CHL1  H19C 7851   5.635   6.962   7.044  0.0172  4.2802  0.0504
   73CHL1    C1 7852   5.864   6.822   7.105 -0.5606  0.3557 -0.3501
   73CHL1   H1A 7853   5.913   6.913   7.146  0.8661 -1.3341  1.9360
   73CHL1   H1B 7854   5.941   6.750   7.139 -1.5336 -0.7582 -0.4506
   73CHL1    C2 7855   5.862   6.837   6.950  0.3408  0.1293  0.0219
   73CHL1   H2A 7856   5.960   6.845   6.899 -0.6827  4.7383 -1.7915
   73CHL1   H2B 7857   5.813   6.933   6.920  1.2545  0.8749  0.8461
   73CHL1   C20 7858   5.766   6.791   7.886 -0.3997  0.1129 -0.1547
   73CHL1   H20 7859   5.669   6.835   7.919 -0.0737  0.4573  0.3605
   73CHL1   C21 7860   5.862   6.916   7.862  0.1171  0.2860 -0.1561
   73CHL1  H21A 7861   5.890   6.974   7.952 -2.0332 -0.1612  0.8437
   73CHL1  H21B 7862   5.803   6.992   7.807 -0.7797  1.0974  1.8389
   73CHL1  H21C 7863   5.958   6.891   7.811  1.0931 -0.0836  1.7781
   73CHL1   C22 7864   5.822   6.702   8.002 -0.7066  0.4383  1.3191
   73CHL1  H22A 7865   5.744   6.625   8.018 -1.3641  0.6134 -0.8151
   73CHL1  H22B 7866   5.920   6.659   7.972  0.0834  1.9147  1.6781
   73CHL1   C23 7867   5.837   6.768   8.144  0.3201  0.4187  0.1668
   73CHL1  H23A 7868   5.917   6.845   8.142  1.0325 -0.3052  0.0739
   73CHL1  H23B 7869   5.750   6.834   8.163 -0.3391  0.8239 -3.5152
   73CHL1   C24 7870   5.876   6.678   8.267  0.4534  0.0396  0.0779
   73CHL1  H24A 7871   5.811   6.588   8.266 -0.6685  0.8240  0.7782
   73CHL1  H24B 7872   5.976   6.632   8.252 -0.4654 -1.8264 -0.5554
   73CHL1   C25 7873   5.884   6.745   8.403  0.3232  0.8139  0.6389
   73CHL1   H25 7874   5.947   6.834   8.379  3.2570 -1.1298  0.6444
   73CHL1   C26 7875   5.744   6.784   8.451 -0.2505 -0.5803 -0.1235
   73CHL1  H26A 7876   5.709   6.876   8.399  1.7746  1.5370  2.0147
   73CHL1  H26B 7877   5.673   6.700   8.436 -0.9001 -0.1436  0.4123
   73CHL1  H26C 7878   5.751   6.810   8.559  2.2486  0.4219 -0.4693
   73CHL1   C27 7879   5.951   6.651   8.498 -0.2271 -0.1951 -0.8355
   73CHL1  H27A 7880   6.042   6.617   8.443  0.4892 -1.4540  1.0364
   73CHL1  H27B 7881   5.984   6.709   8.586  1.6568  0.8730 -2.1762
   73CHL1  H27C 7882   5.881   6.567   8.520  0.1831 -0.1460  0.7343
   74CHL1    C3 7883   4.041   4.859   7.048 -0.0332  0.8152  0.0339
   74CHL1    H3 7884   3.988   4.957   7.046 -0.9686  0.3052 -1.6021
   74CHL1    O3 7885   4.067   4.810   6.922  0.0440  0.2907  0.8570
   74CHL1   H3' 7886   4.098   4.723   6.946 -0.6452 -0.2539 -0.1796
   74CHL1    C4 7887   4.169   4.879   7.144  0.4853 -0.2853  0.6212
   74CHL1   H4A 7888   4.238   4.792   7.144  0.6026 -0.2567 -1.4752
   74CHL1   H4B 7889   4.228   4.962   7.098 -0.7785  0.6973  0.7007
   74CHL1    C5 7890   4.130   4.899   7.287 -0.4540  0.2856  0.4641
   74CHL1    C6 7891   4.181   5.004   7.351 -0.1473 -0.2199 -0.3630
   74CHL1    H6 7892   4.235   5.080   7.292 -3.2186  1.8235 -0.8127
   74CHL1    C7 7893   4.149   5.033   7.496  0.1654 -0.2230  0.2470
   74CHL1   H7A 7894   4.237   5.051   7.561  1.2316 -1.5567 -0.7526
   74CHL1   H7B 7895   4.076   5.116   7.498  1.3743  0.8718  0.4261
   74CHL1    C8 7896   4.075   4.910   7.571 -0.3156  0.0469  0.1080
   74CHL1    H8 7897   4.153   4.837   7.600 -0.1388 -0.1733 -0.8859
   74CHL1   C14 7898   4.010   4.975   7.695  0.0521 -0.5803  0.0358
   74CHL1   H14 7899   3.942   5.053   7.654  0.1232 -1.1447 -1.2008
   74CHL1   C15 7900   4.100   5.058   7.790  0.6441  0.1332 -0.4153
   74CHL1  H15A 7901   4.189   5.004   7.828  0.0676 -0.1200  0.6120
   74CHL1  H15B 7902   4.139   5.157   7.758  0.0539  0.2494 -0.7931
   74CHL1   C16 7903   4.009   5.081   7.910  0.4946 -0.1564 -0.5506
   74CHL1  H16A 7904   4.060   5.045   8.002 -1.2435  2.2885  1.5071
   74CHL1  H16B 7905   3.983   5.186   7.936 -1.7778 -1.1498  1.5681
   74CHL1   C17 7906   3.879   4.995   7.885  0.3365 -0.0468 -0.8153
   74CHL1   H17 7907   3.812   5.055   7.820  1.0146 -0.3680 -1.8309
   74CHL1   C13 7908   3.925   4.892   7.787 -0.0267  0.4295  0.1321
   74CHL1   C18 7909   4.003   4.782   7.859  0.5357 -0.4245 -0.0786
   74CHL1  H18A 7910   3.933   4.718   7.917  0.3506  1.5821  2.0534
   74CHL1  H18B 7911   4.058   4.717   7.788  0.8847 -0.3053  0.0775
   74CHL1  H18C 7912   4.080   4.829   7.925  0.9587  1.0293 -1.5547
   74CHL1   C12 7913   3.819   4.823   7.693 -0.5359  0.7110  0.0143
   74CHL1  H12A 7914   3.765   4.745   7.751 -0.4077  1.1571  0.7457
   74CHL1  H12B 7915   3.742   4.897   7.661 -1.8956 -0.2545  0.9701
   74CHL1   C11 7916   3.878   4.755   7.568 -0.7125 -0.3276  0.2912
   74CHL1  H11A 7917   3.949   4.672   7.590  0.5915  1.0008  1.3711
   74CHL1  H11B 7918   3.804   4.723   7.491  1.0342  0.1633 -1.6942
   74CHL1    C9 7919   3.973   4.854   7.482  0.7647  0.5789 -0.2335
   74CHL1    H9 7920   3.913   4.940   7.445 -1.2556  0.0014  1.4480
   74CHL1   C10 7921   4.030   4.797   7.353  0.1051 -0.0284  0.1292
   74CHL1   C19 7922   4.109   4.663   7.374 -0.2224  0.3089 -0.4963
   74CHL1  H19A 7923   4.043   4.576   7.389  0.9954 -0.2681  1.9657
   74CHL1  H19B 7924   4.176   4.634   7.291  0.6325 -0.0209  0.2922
   74CHL1  H19C 7925   4.167   4.675   7.468 -1.2809  1.8738  0.0006
   74CHL1    C1 7926   3.913   4.777   7.256 -0.4196 -0.0285  0.1297
   74CHL1   H1A 7927   3.858   4.687   7.290  1.0592 -0.7588  0.6594
   74CHL1   H1B 7928   3.848   4.868   7.250 -1.3615 -0.6723  0.3409
   74CHL1    C2 7929   3.951   4.751   7.106  0.0017  0.3735 -0.2953
   74CHL1   H2A 7930   3.865   4.721   7.043 -0.1655 -2.3250  1.0562
   74CHL1   H2B 7931   4.014   4.659   7.106  1.8380  1.5818 -0.7008
   74CHL1   C20 7932   3.817   4.949   8.023  0.1784 -0.3111 -0.1632
   74CHL1   H20 7933   3.891   4.887   8.077  0.2416  0.2132  0.3603
   74CHL1   C21 7934   3.685   4.870   8.000 -0.3403  0.1529 -0.5232
   74CHL1  H21A 7935   3.626   4.847   8.091 -0.7593  0.1991 -0.7837
   74CHL1  H21B 7936   3.718   4.774   7.957  0.2651  0.7688 -1.4675
   74CHL1  H21C 7937   3.624   4.927   7.927  1.4235  2.2392 -0.4913
   74CHL1   C22 7938   3.788   5.075   8.109 -0.0757  0.1319  0.2365
   74CHL1  H22A 7939   3.882   5.134   8.113  0.3737 -0.5463 -0.0857
   74CHL1  H22B 7940   3.714   5.139   8.056 -0.4845 -0.0877  0.5371
   74CHL1   C23 7941   3.730   5.038   8.253 -0.1262 -0.7661  0.2211
   74CHL1  H23A 7942   3.621   5.019   8.245 -0.7612  2.4311 -0.0932
   74CHL1  H23B 7943   3.780   4.948   8.295  1.9474  0.7241  1.1304
   74CHL1   C24 7944   3.750   5.152   8.356 -0.5029  0.9197  0.6241
   74CHL1  H24A 7945   3.857   5.182   8.363  0.3842 -0.7539 -3.0245
   74CHL1  H24B 7946   3.706   5.247   8.319  1.5566  0.5771 -3.2815
   74CHL1   C25 7947   3.693   5.122   8.490 -0.1988  0.4288 -0.6355
   74CHL1   H25 7948   3.585   5.101   8.478 -0.6218  3.2816 -2.7303
   74CHL1   C26 7949   3.756   4.996   8.558 -0.8534  0.8703  0.5937
   74CHL1  H26A 7950   3.708   4.963   8.653 -0.8133  0.0458  0.3359
   74CHL1  H26B 7951   3.756   4.902   8.500 -2.4531  0.0170  1.8669
   74CHL1  H26C 7952   3.862   5.025   8.573 -0.5114  0.4408 -0.9038
   74CHL1   C27 7953   3.710   5.240   8.591 -0.1512 -0.2468  0.4843
   74CHL1  H27A 7954   3.677   5.338   8.551  0.0489 -1.3355 -2.6994
   74CHL1  H27B 7955   3.636   5.211   8.668 -0.8412  0.6974  0.1895
   74CHL1  H27C 7956   3.811   5.250   8.637  0.1609 -0.4579 -0.1379
   75CHL1    C3 7957   1.078   5.082   6.560 -0.1925  0.2836  0.1684
   75CHL1    H3 7958   1.065   4.973   6.576  1.8850  0.0880  0.8454
   75CHL1    O3 7959   1.098   5.110   6.423  0.1597 -0.3662  0.6164
   75CHL1   H3' 7960   1.188   5.078   6.414  0.4433 -1.1559  4.5239
   75CHL1    C4 7961   0.956   5.164   6.607  0.1369 -0.2986  0.8337
   75CHL1   H4A 7962   0.973   5.272   6.585  0.5016 -0.4682  0.2604
   75CHL1   H4B 7963   0.869   5.132   6.546 -0.4482 -0.1023  1.5631
   75CHL1    C5 7964   0.943   5.160   6.753 -0.4774 -0.3576  0.1845
   75CHL1    C6 7965   0.832   5.114   6.816  0.1191 -0.0547 -0.0285
   75CHL1    H6 7966   0.746   5.079   6.756  0.6775 -2.1719  0.3300
   75CHL1    C7 7967   0.804   5.117   6.963  0.2818 -0.6450 -0.1646
   75CHL1   H7A 7968   0.711   5.176   6.981  1.2732  0.3446  2.0072
   75CHL1   H7B 7969   0.781   5.018   7.008 -2.0703 -0.0195  0.1391
   75CHL1    C8 7970   0.908   5.206   7.035 -0.0644  0.4283 -0.0549
   75CHL1    H8 7971   0.882   5.313   7.019 -3.0453  0.2139  2.5045
   75CHL1   C14 7972   0.901   5.170   7.189 -0.0232 -0.2411  0.1398
   75CHL1   H14 7973   0.924   5.062   7.200  0.0815 -0.2624 -0.2505
   75CHL1   C15 7974   0.768   5.193   7.268 -0.6689  0.3194  0.2596
   75CHL1  H15A 7975   0.728   5.288   7.227 -0.2600 -0.8470 -3.1301
   75CHL1  H15B 7976   0.701   5.105   7.256 -2.0451  1.0018  2.4051
   75CHL1   C16 7977   0.809   5.208   7.418 -0.4976  0.1414  0.2972
   75CHL1  H16A 7978   0.771   5.303   7.462  3.7001  2.4719 -0.5563
   75CHL1  H16B 7979   0.768   5.122   7.476 -2.8937  0.8907 -0.1627
   75CHL1   C17 7980   0.955   5.201   7.415 -0.7631 -0.8435  0.0776
   75CHL1   H17 7981   0.971   5.092   7.423 -3.0011 -1.1421  1.4550
   75CHL1   C13 7982   1.001   5.254   7.273 -0.3444  0.5631  0.2623
   75CHL1   C18 7983   0.985   5.410   7.272  0.1380 -0.1829  0.5161
   75CHL1  H18A 7984   0.973   5.441   7.166  2.9374 -1.3704 -0.2566
   75CHL1  H18B 7985   0.897   5.449   7.327 -2.0592 -1.1536 -2.1388
   75CHL1  H18C 7986   1.079   5.455   7.312  1.6639 -0.5021 -2.4452
   75CHL1   C12 7987   1.147   5.223   7.219 -0.1240 -0.5471  0.2555
   75CHL1  H12A 7988   1.221   5.296   7.259  1.3223 -0.7429 -1.8968
   75CHL1  H12B 7989   1.167   5.119   7.253  2.2383 -0.5475 -0.9042
   75CHL1   C11 7990   1.161   5.243   7.071 -0.2793 -0.1189 -0.7256
   75CHL1  H11A 7991   1.159   5.354   7.063 -1.2038  0.1902  2.4394
   75CHL1  H11B 7992   1.261   5.207   7.039 -0.9970 -2.0059 -1.0116
   75CHL1    C9 7993   1.048   5.179   6.988 -0.6952 -0.2007 -0.1977
   75CHL1    H9 7994   1.070   5.071   7.003  3.2822 -0.1988 -4.2303
   75CHL1   C10 7995   1.068   5.196   6.834  0.6999 -0.4941  0.2018
   75CHL1   C19 7996   1.094   5.346   6.804 -0.2050  0.3129  0.3164
   75CHL1  H19A 7997   1.177   5.397   6.858  0.5692  0.8371 -1.2881
   75CHL1  H19B 7998   1.119   5.369   6.698  0.0522 -0.7858  0.1275
   75CHL1  H19C 7999   1.000   5.402   6.820 -0.1166  0.2357  1.1201
   75CHL1    C1 8000   1.194   5.118   6.789  0.1379 -0.6123 -0.2251
   75CHL1   H1A 8001   1.291   5.155   6.830 -0.2383  0.6339 -0.4370
   75CHL1   H1B 8002   1.187   5.015   6.831  0.9393 -0.7247 -0.3529
   75CHL1    C2 8003   1.206   5.125   6.633 -0.4012 -0.4021 -0.2387
   75CHL1   H2A 8004   1.284   5.051   6.604 -0.3564 -1.4550  2.3010
   75CHL1   H2B 8005   1.230   5.230   6.606 -0.1785  0.6912  3.5861
   75CHL1   C20 8006   1.025   5.261   7.540 -0.8480 -0.0219 -0.2909
   75CHL1   H20 8007   1.004   5.370   7.549 -0.5198 -0.1711  3.8654
   75CHL1   C21 8008   1.177   5.230   7.539 -0.4158 -0.4606  0.1724
   75CHL1  H21A 8009   1.225   5.240   7.639  1.6465 -1.6861 -0.6264
   75CHL1  H21B 8010   1.230   5.311   7.484 -1.7617 -0.3005 -0.9457
   75CHL1  H21C 8011   1.214   5.132   7.503  1.3751 -0.0051  0.6543
   75CHL1   C22 8012   0.971   5.206   7.672  0.0546  1.2249  0.2428
   75CHL1  H22A 8013   0.866   5.172   7.653 -0.7932  3.2636  1.0286
   75CHL1  H22B 8014   1.030   5.116   7.701  1.0078  1.4409 -0.9494
   75CHL1   C23 8015   0.981   5.308   7.784 -0.2471  0.1406 -0.2629
   75CHL1  H23A 8016   1.084   5.347   7.795 -1.2480  2.7475  0.4576
   75CHL1  H23B 8017   0.915   5.395   7.765 -0.8042 -0.2145  0.0269
   75CHL1   C24 8018   0.926   5.255   7.917  0.5728  0.3107  0.7201
   75CHL1  H24A 8019   0.819   5.230   7.901  1.0697 -2.3684  1.0576
   75CHL1  H24B 8020   0.971   5.158   7.950 -5.8837 -3.2960  0.5133
   75CHL1   C25 8021   0.943   5.347   8.037  0.5542 -0.1573 -0.7627
   75CHL1   H25 8022   0.913   5.445   7.994 -0.1884  0.2385  0.5891
   75CHL1   C26 8023   0.834   5.325   8.156 -0.0572  0.1745 -0.1157
   75CHL1  H26A 8024   0.855   5.402   8.234 -1.3369 -1.7411  2.2248
   75CHL1  H26B 8025   0.729   5.333   8.123  0.2644  3.0627 -0.7134
   75CHL1  H26C 8026   0.839   5.221   8.195  1.4956  0.7267  1.2447
   75CHL1   C27 8027   1.086   5.338   8.085 -0.0451  0.3552 -0.4668
   75CHL1  H27A 8028   1.160   5.313   8.006  1.7459 -0.6888  1.4312
   75CHL1  H27B 8029   1.108   5.424   8.151  1.0444 -1.1417  1.1885
   75CHL1  H27C 8030   1.090   5.254   8.157  0.2194 -0.9317 -1.9299
   76CHL1    C3 8031   5.907   0.657   7.408  0.1108 -0.1752  0.0495
   76CHL1    H3 8032   5.800   0.664   7.436 -0.3230  0.8671 -1.6474
   76CHL1    O3 8033   5.910   0.668   7.271  0.4675  0.6097 -0.9071
   76CHL1   H3' 8034   5.894   0.576   7.247 -0.7100  0.4447  0.3708
   76CHL1    C4 8035   6.006   0.751   7.478 -0.3111 -0.5930 -0.5080
   76CHL1   H4A 8036   6.110   0.724   7.451 -0.3829 -0.0424 -1.3434
   76CHL1   H4B 8037   5.986   0.855   7.447 -0.6877 -0.9310 -1.4372
   76CHL1    C5 8038   5.985   0.736   7.630 -0.6724 -0.3486  0.1671
   76CHL1    C6 8039   5.949   0.841   7.706  0.7198  0.1283 -0.1377
   76CHL1    H6 8040   5.950   0.939   7.657  1.7260  0.8565  1.2384
   76CHL1    C7 8041   5.940   0.842   7.853  0.1064 -0.0279 -0.1106
   76CHL1   H7A 8042   6.000   0.918   7.907 -0.1765  0.0805  0.0523
   76CHL1   H7B 8043   5.832   0.851   7.879  0.2842  0.2930  0.5446
   76CHL1    C8 8044   5.989   0.711   7.919  0.0184  0.0572 -0.2148
   76CHL1    H8 8045   6.100   0.711   7.926 -0.0680 -0.5440  1.6955
   76CHL1   C14 8046   5.936   0.686   8.052  0.0768 -0.4383 -0.2354
   76CHL1   H14 8047   5.825   0.689   8.046 -0.1225  2.3841  2.2150
   76CHL1   C15 8048   5.952   0.789   8.165 -0.1795  0.1361 -0.1563
   76CHL1  H15A 8049   6.063   0.798   8.175 -0.2625 -1.2785  4.1850
   76CHL1  H15B 8050   5.908   0.889   8.149 -1.3794 -0.4767 -0.7822
   76CHL1   C16 8051   5.903   0.719   8.295 -1.0362 -0.4464 -0.5654
   76CHL1  H16A 8052   5.968   0.744   8.382 -0.7829  0.5907 -1.0316
   76CHL1  H16B 8053   5.798   0.750   8.316 -1.0707 -1.8253  1.5526
   76CHL1   C17 8054   5.901   0.566   8.254  0.4714  0.5735 -0.8597
   76CHL1   H17 8055   5.792   0.549   8.240  0.6239  0.1741 -1.5995
   76CHL1   C13 8056   5.973   0.551   8.120  0.0743  0.3945  0.1050
   76CHL1   C18 8057   6.131   0.545   8.148 -0.6953 -0.4653  0.0172
   76CHL1  H18A 8058   6.161   0.618   8.225 -1.1060  1.5292 -1.6097
   76CHL1  H18B 8059   6.174   0.448   8.180 -0.2807  0.0826  1.1331
   76CHL1  H18C 8060   6.191   0.578   8.060 -0.7335 -1.3286 -0.3463
   76CHL1   C12 8061   5.915   0.438   8.036  0.5676  0.3866 -0.0849
   76CHL1  H12A 8062   5.941   0.339   8.081 -0.3558 -0.2438 -0.8958
   76CHL1  H12B 8063   5.806   0.450   8.023  0.7503 -0.2979 -2.9468
   76CHL1   C11 8064   5.972   0.452   7.898  0.2574 -0.7881  0.1265
   76CHL1  H11A 8065   6.080   0.426   7.901  0.1483 -1.3668  3.9320
   76CHL1  H11B 8066   5.935   0.369   7.834  0.7578 -1.4575  0.6918
   76CHL1    C9 8067   5.951   0.591   7.829 -0.2523  0.3997 -0.5546
   76CHL1    H9 8068   5.841   0.604   7.822 -0.0653  3.9426  1.1861
   76CHL1   C10 8069   6.005   0.595   7.684  0.1940  0.0909 -0.5161
   76CHL1   C19 8070   6.162   0.565   7.679  0.5848 -0.0696  0.0161
   76CHL1  H19A 8071   6.204   0.583   7.578  1.5073  3.1057  0.8487
   76CHL1  H19B 8072   6.220   0.639   7.738 -0.6319  1.5909 -0.7641
   76CHL1  H19C 8073   6.191   0.462   7.707  2.4727  0.5242  0.3770
   76CHL1    C1 8074   5.928   0.495   7.594 -1.0371  0.1540  0.6989
   76CHL1   H1A 8075   5.971   0.394   7.612  3.6306  1.2341 -2.5257
   76CHL1   H1B 8076   5.818   0.492   7.610 -1.1840 -2.1936 -0.3368
   76CHL1    C2 8077   5.950   0.520   7.446  0.2945  0.8514  0.2153
   76CHL1   H2A 8078   5.892   0.445   7.388  2.0832  0.3473 -0.9997
   76CHL1   H2B 8079   6.059   0.507   7.426  0.1063  1.3678 -1.2943
   76CHL1   C20 8080   5.960   0.492   8.378  0.9807  0.1332 -0.3457
   76CHL1   H20 8081   6.063   0.531   8.393  0.4069  2.0881 -1.2565
   76CHL1   C21 8082   5.954   0.339   8.367 -0.3526 -0.4378 -0.3547
   76CHL1  H21A 8083   6.005   0.296   8.278  0.9734 -0.1673  0.2586
   76CHL1  H21B 8084   5.854   0.290   8.359 -0.8676  0.3044  1.1901
   76CHL1  H21C 8085   6.007   0.292   8.452  0.4916 -1.7571 -1.5591
   76CHL1   C22 8086   5.899   0.531   8.520  0.2562  0.0408 -0.8386
   76CHL1  H22A 8087   5.961   0.477   8.595 -0.5858 -0.8104 -0.7457
   76CHL1  H22B 8088   5.921   0.632   8.560 -1.0262  1.1136 -2.6868
   76CHL1   C23 8089   5.755   0.499   8.542  0.1998 -0.5163  0.2277
   76CHL1  H23A 8090   5.710   0.573   8.472  1.6859  1.0597  0.8568
   76CHL1  H23B 8091   5.724   0.397   8.511  2.2455 -0.4786 -2.3040
   76CHL1   C24 8092   5.708   0.548   8.682 -0.4694 -0.9838  0.3095
   76CHL1  H24A 8093   5.773   0.636   8.702 -2.0553 -0.1097  1.9303
   76CHL1  H24B 8094   5.603   0.584   8.682 -0.5005 -1.0599 -0.6656
   76CHL1   C25 8095   5.744   0.462   8.801 -0.0423  1.0269  0.2228
   76CHL1   H25 8096   5.853   0.449   8.818 -0.5446 -0.1738  3.0671
   76CHL1   C26 8097   5.698   0.538   8.933 -0.0281  0.9583  0.2937
   76CHL1  H26A 8098   5.714   0.487   9.030 -1.1102 -0.6437 -0.3172
   76CHL1  H26B 8099   5.759   0.630   8.937  1.3111  0.2344 -1.6813
   76CHL1  H26C 8100   5.589   0.560   8.933 -0.7573 -2.2023  0.8793
   76CHL1   C27 8101   5.666   0.325   8.781 -0.1925  0.2373 -0.1064
   76CHL1  H27A 8102   5.674   0.268   8.876  4.1273 -1.7846 -1.4287
   76CHL1  H27B 8103   5.559   0.339   8.758 -0.2484  0.5526  0.3222
   76CHL1  H27C 8104   5.719   0.263   8.706 -0.9515  1.1510 -1.4405
   77CHL1    C3 8105   3.894   5.990   6.878 -0.4231 -0.2823  0.4383
   77CHL1    H3 8106   3.816   6.054   6.925 -1.2055 -0.7745 -0.1489
   77CHL1    O3 8107   3.874   5.991   6.735 -0.7798  0.2845 -0.0456
   77CHL1   H3' 8108   3.914   5.906   6.713  0.5071  0.3363  1.8588
   77CHL1    C4 8109   4.040   6.040   6.900  0.9931  1.3368 -0.5548
   77CHL1   H4A 8110   4.109   5.976   6.841 -0.9740 -1.8469  0.3703
   77CHL1   H4B 8111   4.042   6.139   6.849 -2.0773  1.1367 -1.2386
   77CHL1    C5 8112   4.086   6.039   7.043 -0.5389  0.4578  0.3344
   77CHL1    C6 8113   4.137   6.153   7.103  0.4181 -0.0386 -0.0076
   77CHL1    H6 8114   4.156   6.238   7.036 -0.9339 -0.6070 -1.1551
   77CHL1    C7 8115   4.168   6.166   7.247 -0.0820  0.1203 -0.5746
   77CHL1   H7A 8116   4.262   6.224   7.261 -0.4673  0.0961  2.7955
   77CHL1   H7B 8117   4.081   6.222   7.288 -1.3925 -0.5924 -2.2312
   77CHL1    C8 8118   4.181   6.024   7.301  0.0042 -0.3290 -0.6914
   77CHL1    H8 8119   4.273   5.975   7.262  1.9915  1.8225  0.9607
   77CHL1   C14 8120   4.209   6.033   7.452  0.0909 -0.5174 -0.8542
   77CHL1   H14 8121   4.122   6.086   7.496  0.8528 -0.1387  0.2483
   77CHL1   C15 8122   4.336   6.114   7.495  0.0149  0.4301  0.4851
   77CHL1  H15A 8123   4.412   6.077   7.424  1.8639  2.1703  1.4754
   77CHL1  H15B 8124   4.324   6.223   7.479 -1.1452 -0.0065 -2.1562
   77CHL1   C16 8125   4.361   6.062   7.640 -0.0083  0.3683 -0.1118
   77CHL1  H16A 8126   4.465   6.025   7.650  0.8505  2.5577 -0.3227
   77CHL1  H16B 8127   4.341   6.144   7.712 -2.3649 -0.7687  0.6529
   77CHL1   C17 8128   4.276   5.936   7.662  0.2478 -0.3500 -0.7990
   77CHL1   H17 8129   4.182   5.979   7.704 -0.4968 -1.9086 -0.8148
   77CHL1   C13 8130   4.229   5.893   7.521  1.4656 -0.2538  0.2035
   77CHL1   C18 8131   4.341   5.810   7.462 -0.6747  0.7789 -0.9200
   77CHL1  H18A 8132   4.354   5.715   7.518  1.9014  1.7820  0.3949
   77CHL1  H18B 8133   4.334   5.787   7.353  0.3890 -0.7838 -0.6920
   77CHL1  H18C 8134   4.442   5.855   7.474 -0.7295  1.1652 -1.8381
   77CHL1   C12 8135   4.086   5.829   7.512  0.1478 -0.4737 -0.8788
   77CHL1  H12A 8136   4.091   5.729   7.562 -3.2268 -0.2856  0.0697
   77CHL1  H12B 8137   3.999   5.885   7.552 -0.2064 -1.0600 -0.8125
   77CHL1   C11 8138   4.048   5.804   7.360 -0.2562  0.5458  0.1973
   77CHL1  H11A 8139   4.130   5.733   7.334 -1.0832 -0.8862  1.3324
   77CHL1  H11B 8140   3.946   5.761   7.356  0.6175 -1.6632  0.2173
   77CHL1    C9 8141   4.058   5.933   7.272  0.4082  0.1321 -0.4074
   77CHL1    H9 8142   3.970   5.993   7.304 -0.0739 -0.3897 -0.7455
   77CHL1   C10 8143   4.047   5.904   7.122  0.1305 -0.4161  1.1052
   77CHL1   C19 8144   4.152   5.799   7.067 -0.5319  0.1199  0.4340
   77CHL1  H19A 8145   4.150   5.798   6.956  1.9959 -0.6962  0.3376
   77CHL1  H19B 8146   4.256   5.831   7.091 -0.1995  0.8316 -1.7393
   77CHL1  H19C 8147   4.127   5.697   7.103 -2.5048  0.8419  1.2219
   77CHL1    C1 8148   3.905   5.856   7.087  0.3286  0.1021 -0.9631
   77CHL1   H1A 8149   3.891   5.757   7.135 -1.3923  1.1583  0.8673
   77CHL1   H1B 8150   3.834   5.930   7.130 -0.5161 -0.8558 -0.6601
   77CHL1    C2 8151   3.872   5.845   6.934  0.4200  0.3557  0.0327
   77CHL1   H2A 8152   3.765   5.817   6.924  0.5422 -0.4629  0.8091
   77CHL1   H2B 8153   3.929   5.762   6.888 -0.6081 -2.0111  2.7070
   77CHL1   C20 8154   4.327   5.835   7.767  0.3691 -0.1076 -0.5803
   77CHL1   H20 8155   4.420   5.788   7.727  1.4920  1.8581 -0.4092
   77CHL1   C21 8156   4.214   5.736   7.805 -0.6970 -1.0237 -0.4728
   77CHL1  H21A 8157   4.129   5.804   7.827  0.4619  0.5732 -0.7627
   77CHL1  H21B 8158   4.247   5.675   7.891 -0.5476 -2.7227 -1.7004
   77CHL1  H21C 8159   4.196   5.670   7.717 -1.8374 -1.0106 -0.2645
   77CHL1   C22 8160   4.359   5.912   7.899 -0.3888  0.4123  0.0665
   77CHL1  H22A 8161   4.397   5.829   7.962  0.3583  1.1909  0.6565
   77CHL1  H22B 8162   4.438   5.987   7.876 -0.0341 -0.3194 -1.1908
   77CHL1   C23 8163   4.245   5.994   7.966 -0.9856  0.4330 -0.8724
   77CHL1  H23A 8164   4.195   6.069   7.901 -0.4987  0.1400 -1.6007
   77CHL1  H23B 8165   4.168   5.921   7.999  1.1154 -2.6881 -2.3282
   77CHL1   C24 8166   4.299   6.065   8.094  0.0101 -0.2292  0.6466
   77CHL1  H24A 8167   4.345   5.984   8.154 -1.6644 -1.0067  0.9379
   77CHL1  H24B 8168   4.365   6.152   8.073 -0.0197  0.0740  1.7820
   77CHL1   C25 8169   4.182   6.137   8.174 -0.1542 -0.3880 -0.0825
   77CHL1   H25 8170   4.149   6.219   8.107  1.8458  0.5360 -0.0099
   77CHL1   C26 8171   4.088   6.042   8.242  0.2605  0.0155 -0.3331
   77CHL1  H26A 8172   4.149   5.980   8.311 -0.9227  0.6451  1.3476
   77CHL1  H26B 8173   4.012   6.093   8.305 -1.7249  0.8015 -3.1561
   77CHL1  H26C 8174   4.030   5.981   8.169  0.7636  0.1463 -0.8525
   77CHL1   C27 8175   4.254   6.210   8.285 -0.2213 -0.1466 -0.1872
   77CHL1  H27A 8176   4.184   6.256   8.359 -0.1959 -1.9615  1.0138
   77CHL1  H27B 8177   4.311   6.134   8.342  0.2146  0.2523 -0.0886
   77CHL1  H27C 8178   4.332   6.278   8.245  0.8976 -1.3989 -0.1610
   78CHL1    C3 8179   0.956   1.253   6.822 -0.1829  0.1272  0.2860
   78CHL1    H3 8180   1.016   1.160   6.810 -1.6968 -1.2067  2.4126
   78CHL1    O3 8181   0.956   1.314   6.694  0.3744  0.0428 -0.0988
   78CHL1   H3' 8182   0.920   1.403   6.693 -0.6665 -0.3704 -1.0175
   78CHL1    C4 8183   0.809   1.226   6.859 -0.0164  0.0416 -0.2606
   78CHL1   H4A 8184   0.758   1.324   6.845 -0.0707 -0.0770 -0.9381
   78CHL1   H4B 8185   0.769   1.169   6.772  0.3559 -0.0526 -0.3719
   78CHL1    C5 8186   0.783   1.161   6.994  0.3143 -0.1931  0.2462
   78CHL1    C6 8187   0.710   1.044   7.005 -0.2828 -0.0466 -0.6208
   78CHL1    H6 8188   0.670   0.995   6.915 -0.3589  0.7108 -1.0064
   78CHL1    C7 8189   0.689   0.971   7.137  0.0092  0.4031 -0.1826
   78CHL1   H7A 8190   0.581   0.944   7.143  0.4489 -1.5205 -0.4110
   78CHL1   H7B 8191   0.754   0.881   7.142  0.5671  0.7616 -0.9193
   78CHL1    C8 8192   0.723   1.064   7.258  0.6800 -0.5224 -0.1473
   78CHL1    H8 8193   0.647   1.144   7.257 -0.4541 -1.5574 -1.1770
   78CHL1   C14 8194   0.725   0.983   7.385  0.4244 -0.4592 -0.0290
   78CHL1   H14 8195   0.802   0.903   7.371 -1.9472 -2.6593 -1.3366
   78CHL1   C15 8196   0.597   0.908   7.434 -0.8830  0.1837 -0.5886
   78CHL1  H15A 8197   0.511   0.978   7.437 -1.1532 -0.1445 -0.6968
   78CHL1  H15B 8198   0.581   0.818   7.372  0.1317 -0.8212  0.5565
   78CHL1   C16 8199   0.642   0.862   7.576  0.5854  0.1259  0.4424
   78CHL1  H16A 8200   0.553   0.861   7.642  0.1474 -2.7385 -0.0312
   78CHL1  H16B 8201   0.685   0.760   7.559  1.2776  0.6254 -0.9634
   78CHL1   C17 8202   0.766   0.952   7.618  0.3913 -0.3376 -0.1640
   78CHL1   H17 8203   0.858   0.892   7.600 -1.4489 -3.2041 -0.5229
   78CHL1   C13 8204   0.763   1.062   7.511  0.0284 -0.4212  0.7116
   78CHL1   C18 8205   0.663   1.175   7.540  0.5853  0.2867 -0.0823
   78CHL1  H18A 8206   0.694   1.249   7.617 -1.1408 -0.0159  0.9648
   78CHL1  H18B 8207   0.634   1.244   7.458 -2.5839 -0.2721  0.4123
   78CHL1  H18C 8208   0.572   1.136   7.590 -0.2402  2.4394  0.2099
   78CHL1   C12 8209   0.903   1.123   7.484 -0.0147 -0.3072 -0.4399
   78CHL1  H12A 8210   0.937   1.172   7.579 -1.4207  0.1122 -0.1328
   78CHL1  H12B 8211   0.970   1.036   7.467  2.3696  1.1503  0.8673
   78CHL1   C11 8212   0.901   1.215   7.359  0.4234 -0.0412 -0.8552
   78CHL1  H11A 8213   0.840   1.301   7.390  0.7671 -0.3599  0.7952
   78CHL1  H11B 8214   1.004   1.251   7.337  1.2085 -2.0299 -0.7256
   78CHL1    C9 8215   0.855   1.140   7.229 -0.1030  0.0938 -0.4847
   78CHL1    H9 8216   0.930   1.058   7.219 -1.7538 -1.4822 -0.5572
   78CHL1   C10 8217   0.855   1.233   7.110  0.0526  0.0746 -0.1060
   78CHL1   C19 8218   0.787   1.363   7.151 -0.4558 -0.0054 -0.2538
   78CHL1  H19A 8219   0.758   1.415   7.057  1.5272 -0.3974 -1.1466
   78CHL1  H19B 8220   0.692   1.355   7.207 -0.4556  0.2504 -0.2174
   78CHL1  H19C 8221   0.857   1.424   7.211  0.4976 -0.1553 -1.1747
   78CHL1    C1 8222   1.003   1.267   7.065  0.9536 -1.0495 -0.2100
   78CHL1   H1A 8223   1.055   1.336   7.134 -0.9787 -0.2244  0.4998
   78CHL1   H1B 8224   1.056   1.170   7.057  0.6977 -1.1436 -0.8974
   78CHL1    C2 8225   1.016   1.345   6.926  0.0993 -0.0760 -0.1718
   78CHL1   H2A 8226   1.125   1.361   6.911  0.1129 -0.5662 -0.6021
   78CHL1   H2B 8227   0.968   1.445   6.927  1.5165  0.6356 -0.1895
   78CHL1   C20 8228   0.762   0.987   7.762  0.3548  0.1826  0.5113
   78CHL1   H20 8229   0.681   1.060   7.784  1.9239  1.6875  1.5317
   78CHL1   C21 8230   0.894   1.042   7.830  0.5666 -0.1591  0.2897
   78CHL1  H21A 8231   0.899   1.149   7.801  0.9180 -0.8466 -2.4697
   78CHL1  H21B 8232   0.976   0.986   7.780  0.3608 -1.3220  1.2030
   78CHL1  H21C 8233   0.894   1.041   7.941 -0.7483  0.1884  0.2998
   78CHL1   C22 8234   0.730   0.856   7.853 -0.2469 -0.2225  0.3174
   78CHL1  H22A 8235   0.721   0.895   7.957 -2.0261  1.6042 -0.4533
   78CHL1  H22B 8236   0.636   0.803   7.829  0.9818 -2.7690  0.7979
   78CHL1   C23 8237   0.843   0.758   7.867  0.0114  0.3103 -0.6802
   78CHL1  H23A 8238   0.887   0.745   7.766  1.8052 -0.2955  0.1407
   78CHL1  H23B 8239   0.922   0.800   7.932 -1.9951  3.4735 -0.0679
   78CHL1   C24 8240   0.801   0.617   7.915  0.0951 -0.4830  0.5589
   78CHL1  H24A 8241   0.747   0.641   8.009 -2.3782  0.6761 -1.0492
   78CHL1  H24B 8242   0.735   0.566   7.842  0.3267 -0.3231  0.2352
   78CHL1   C25 8243   0.914   0.519   7.951  0.9161 -0.6366  0.2908
   78CHL1   H25 8244   0.980   0.579   8.017 -0.6288  1.1884  0.2572
   78CHL1   C26 8245   0.868   0.407   8.039 -0.4430 -0.5561  0.3702
   78CHL1  H26A 8246   0.792   0.358   7.975  0.3523  2.6681 -3.4017
   78CHL1  H26B 8247   0.951   0.338   8.066 -0.6186 -1.8564 -2.1322
   78CHL1  H26C 8248   0.821   0.451   8.130  3.8478  1.2810  1.9629
   78CHL1   C27 8249   0.993   0.482   7.824 -0.4861  0.9264 -0.5690
   78CHL1  H27A 8250   1.000   0.566   7.751  1.5410  0.1412 -1.3506
   78CHL1  H27B 8251   1.092   0.444   7.859 -0.6899  1.0891  0.1807
   78CHL1  H27C 8252   0.937   0.404   7.768  1.0227  1.9021 -3.6905
   79CHL1    C3 8253   6.442   1.134   7.096  0.1421 -0.1547 -0.1767
   79CHL1    H3 8254   6.524   1.208   7.105 -0.6136  0.6963 -0.1918
   79CHL1    O3 8255   6.416   1.113   6.955 -0.0047 -0.1131  1.0390
   79CHL1   H3' 8256   6.443   1.023   6.935  3.1610  0.8030  0.6846
   79CHL1    C4 8257   6.494   0.993   7.150  0.4623  0.6137 -0.0870
   79CHL1   H4A 8258   6.427   0.911   7.118  0.6711  0.3418  0.1672
   79CHL1   H4B 8259   6.583   0.965   7.089  0.2476 -1.5808  0.5300
   79CHL1    C5 8260   6.522   0.997   7.298 -0.3255  0.6146 -0.3251
   79CHL1    C6 8261   6.646   0.963   7.349 -0.1894 -1.0373  0.3057
   79CHL1    H6 8262   6.717   0.910   7.283  2.1356 -1.6105  3.0542
   79CHL1    C7 8263   6.676   0.979   7.497 -0.3028  0.6200 -0.4598
   79CHL1   H7A 8264   6.728   0.886   7.529 -1.9862 -0.0894  0.3506
   79CHL1   H7B 8265   6.740   1.067   7.518  1.5525 -0.8111  0.1946
   79CHL1    C8 8266   6.549   0.974   7.583 -0.0345 -0.4356  0.1652
   79CHL1    H8 8267   6.499   0.875   7.596 -0.5099  0.0018  1.8890
   79CHL1   C14 8268   6.583   1.018   7.723 -0.2563  0.4020  0.4881
   79CHL1   H14 8269   6.608   1.126   7.723 -1.7087  0.7664  1.8105
   79CHL1   C15 8270   6.712   0.958   7.784  0.4750 -0.2304 -0.1900
   79CHL1  H15A 8271   6.725   0.850   7.759 -0.5953 -1.0103  2.3372
   79CHL1  H15B 8272   6.800   1.019   7.755 -0.6256 -0.1725 -4.0265
   79CHL1   C16 8273   6.686   0.960   7.936  0.5956 -0.3536  0.6882
   79CHL1  H16A 8274   6.669   0.856   7.971  0.8330 -0.4919  0.3908
   79CHL1  H16B 8275   6.760   1.021   7.992 -0.8933  2.3878 -0.1507
   79CHL1   C17 8276   6.545   1.045   7.953  0.3310 -0.2727  0.5500
   79CHL1   H17 8277   6.571   1.152   7.944  0.6967 -0.2924  1.3161
   79CHL1   C13 8278   6.466   1.012   7.823 -0.2943 -0.3814  0.3604
   79CHL1   C18 8279   6.412   0.865   7.838  0.2970 -0.9270  0.4653
   79CHL1  H18A 8280   6.334   0.871   7.917 -0.1675 -3.8748  0.3533
   79CHL1  H18B 8281   6.360   0.843   7.742  1.4791  0.9600 -0.6707
   79CHL1  H18C 8282   6.487   0.790   7.870 -0.3413 -1.3858  0.9206
   79CHL1   C12 8283   6.362   1.110   7.770  0.2020 -0.2890  0.5338
   79CHL1  H12A 8284   6.270   1.111   7.832 -0.3103 -1.5430 -0.1497
   79CHL1  H12B 8285   6.408   1.211   7.777  0.8810 -0.3085 -2.2778
   79CHL1   C11 8286   6.320   1.101   7.620 -0.1544  0.5371 -0.8716
   79CHL1  H11A 8287   6.253   1.014   7.609  1.8948 -0.9978 -1.9475
   79CHL1  H11B 8288   6.262   1.192   7.592 -2.6800 -0.1735  1.5820
   79CHL1    C9 8289   6.447   1.079   7.526  0.2751 -0.0963  0.5801
   79CHL1    H9 8290   6.500   1.177   7.529  2.4380 -1.2007  0.2785
   79CHL1   C10 8291   6.405   1.061   7.375 -0.5173  0.7626 -0.2634
   79CHL1   C19 8292   6.302   0.947   7.378 -0.0566 -0.0579 -0.5933
   79CHL1  H19A 8293   6.273   0.911   7.277 -1.2994  0.9094 -0.5953
   79CHL1  H19B 8294   6.339   0.869   7.448 -0.3191  2.4781  2.6140
   79CHL1  H19C 8295   6.202   0.980   7.414 -0.2204 -0.4107 -0.7205
   79CHL1    C1 8296   6.344   1.188   7.321  0.6340 -0.2391  0.1887
   79CHL1   H1A 8297   6.255   1.222   7.376  2.0071  0.0790  2.3181
   79CHL1   H1B 8298   6.418   1.270   7.334 -0.7215  0.9063  0.7760
   79CHL1    C2 8299   6.314   1.170   7.170 -0.5179  0.3379 -0.4661
   79CHL1   H2A 8300   6.272   1.268   7.137 -0.7086 -0.2126 -1.9113
   79CHL1   H2B 8301   6.240   1.089   7.154 -0.4167 -0.4210  2.2666
   79CHL1   C20 8302   6.487   1.028   8.090  0.7875 -0.2758 -0.0486
   79CHL1   H20 8303   6.457   0.925   8.120 -0.4915 -0.7012 -2.5607
   79CHL1   C21 8304   6.354   1.119   8.098  0.0103 -0.1048  0.4646
   79CHL1  H21A 8305   6.317   1.152   8.197 -1.9061  0.9632 -0.5522
   79CHL1  H21B 8306   6.271   1.064   8.048  0.3440 -0.5003  0.3450
   79CHL1  H21C 8307   6.382   1.203   8.030  3.8628 -0.8121  0.9522
   79CHL1   C22 8308   6.582   1.079   8.193 -0.5201 -0.2326 -0.0645
   79CHL1  H22A 8309   6.550   1.049   8.295  1.1875 -0.1779  0.5105
   79CHL1  H22B 8310   6.677   1.023   8.177 -1.0454 -1.7960  1.8729
   79CHL1   C23 8311   6.616   1.230   8.185 -0.4448 -0.2046  0.1355
   79CHL1  H23A 8312   6.637   1.265   8.081 -0.0707 -1.2187 -0.1400
   79CHL1  H23B 8313   6.535   1.290   8.232 -0.1176  0.6483 -0.3667
   79CHL1   C24 8314   6.737   1.273   8.268 -1.0058  0.0057 -0.8359
   79CHL1  H24A 8315   6.819   1.207   8.234  1.3389  1.4986  1.5248
   79CHL1  H24B 8316   6.762   1.381   8.259  0.4452 -0.2640 -0.3455
   79CHL1   C25 8317   6.714   1.243   8.418  0.1561  0.6364 -0.5300
   79CHL1   H25 8318   6.690   1.136   8.441 -0.1348  0.9755  0.8402
   79CHL1   C26 8319   6.830   1.278   8.510 -0.5997 -0.1119 -0.4254
   79CHL1  H26A 8320   6.917   1.223   8.469 -0.4520 -1.4461  1.5069
   79CHL1  H26B 8321   6.849   1.386   8.527  3.0253 -0.6150 -0.4062
   79CHL1  H26C 8322   6.804   1.242   8.612 -2.5533  1.1807 -0.4114
   79CHL1   C27 8323   6.590   1.317   8.476 -0.0268 -0.7225 -0.4302
   79CHL1  H27A 8324   6.567   1.304   8.584  1.4406 -0.1125 -0.0213
   79CHL1  H27B 8325   6.600   1.426   8.461 -0.4793 -0.9928 -3.1888
   79CHL1  H27C 8326   6.496   1.285   8.428 -1.2652 -1.7703  2.4507
   80CHL1    C3 8327   3.439   5.379   7.126 -0.6677  0.0530  0.1416
   80CHL1    H3 8328   3.521   5.442   7.165  1.9535 -2.6685 -0.5994
   80CHL1    O3 8329   3.464   5.369   6.988  0.4273 -0.1003  0.0182
   80CHL1   H3' 8330   3.407   5.300   6.954  1.4621 -1.5956  1.1916
   80CHL1    C4 8331   3.456   5.244   7.189 -0.2693 -0.2739  0.8709
   80CHL1   H4A 8332   3.394   5.167   7.138  0.8801 -0.5757 -0.1306
   80CHL1   H4B 8333   3.561   5.208   7.176 -0.8903 -1.7623 -0.3239
   80CHL1    C5 8334   3.417   5.256   7.334  0.5252  0.0489  0.3544
   80CHL1    C6 8335   3.501   5.222   7.429  0.0263  0.0783 -0.5106
   80CHL1    H6 8336   3.593   5.168   7.402  1.5495  1.2715  1.9995
   80CHL1    C7 8337   3.477   5.230   7.578 -0.3671 -0.3612  0.0085
   80CHL1   H7A 8338   3.529   5.147   7.630  2.6019  0.7905 -0.9218
   80CHL1   H7B 8339   3.524   5.321   7.621 -0.4175  0.9501 -2.5436
   80CHL1    C8 8340   3.328   5.241   7.611 -1.3055 -0.2005  0.3312
   80CHL1    H8 8341   3.275   5.144   7.595  0.5403 -1.5331  1.7976
   80CHL1   C14 8342   3.324   5.271   7.758  0.1101  0.0328 -0.3328
   80CHL1   H14 8343   3.374   5.370   7.751  0.6433 -0.3063 -1.6577
   80CHL1   C15 8344   3.402   5.183   7.863 -0.5732 -0.9736  0.1238
   80CHL1  H15A 8345   3.381   5.074   7.857 -0.0475 -1.4092  3.8311
   80CHL1  H15B 8346   3.510   5.206   7.860 -1.1922  2.3122 -0.4229
   80CHL1   C16 8347   3.344   5.219   7.996  0.4239 -0.6173 -0.0329
   80CHL1  H16A 8348   3.324   5.133   8.063 -1.1586 -2.0263 -2.1843
   80CHL1  H16B 8349   3.414   5.288   8.048  2.1477 -1.8068 -0.6932
   80CHL1   C17 8350   3.222   5.313   7.968  0.4860  0.2346 -0.4063
   80CHL1   H17 8351   3.254   5.418   7.979 -1.7831  1.3838 -3.5455
   80CHL1   C13 8352   3.180   5.291   7.817 -0.9680  0.1019 -0.2335
   80CHL1   C18 8353   3.094   5.166   7.805  0.4304  0.3956  0.1168
   80CHL1  H18A 8354   2.996   5.185   7.855 -0.3735  0.6394 -1.4779
   80CHL1  H18B 8355   3.075   5.153   7.697 -2.1974  1.3754  0.3782
   80CHL1  H18C 8356   3.134   5.076   7.855 -0.4319 -1.5833 -2.5312
   80CHL1   C12 8357   3.112   5.404   7.725  0.4912  0.0676 -0.7823
   80CHL1  H12A 8358   3.004   5.409   7.748  1.2275  2.3132  2.9809
   80CHL1  H12B 8359   3.162   5.497   7.760  1.1027 -1.2732  2.1966
   80CHL1   C11 8360   3.118   5.384   7.569  0.0842  0.2033 -0.2783
   80CHL1  H11A 8361   3.044   5.309   7.535  0.4106 -1.3813  2.1700
   80CHL1  H11B 8362   3.088   5.480   7.523 -4.2511 -0.7302  0.2311
   80CHL1    C9 8363   3.262   5.341   7.523  0.5613 -0.3155  0.6000
   80CHL1    H9 8364   3.316   5.435   7.545 -2.7557  1.7383  0.7145
   80CHL1   C10 8365   3.278   5.315   7.371  0.0649 -0.7466  0.3960
   80CHL1   C19 8366   3.163   5.216   7.325  0.9199 -0.1298  0.3298
   80CHL1  H19A 8367   3.158   5.114   7.371 -1.2893 -1.0141 -1.6480
   80CHL1  H19B 8368   3.064   5.266   7.327  1.9396  1.9545  0.7319
   80CHL1  H19C 8369   3.176   5.195   7.217  0.3293  2.4193 -0.2882
   80CHL1    C1 8370   3.269   5.452   7.293  0.5955  0.4579 -0.2410
   80CHL1   H1A 8371   3.162   5.482   7.297  0.6759  0.7239 -0.0562
   80CHL1   H1B 8372   3.334   5.533   7.334  1.3259  1.0192 -2.3837
   80CHL1    C2 8373   3.301   5.435   7.140 -0.4429 -0.1933 -0.0807
   80CHL1   H2A 8374   3.292   5.538   7.098 -3.6115 -0.6563 -0.7903
   80CHL1   H2B 8375   3.229   5.369   7.088 -1.1225  0.3263  0.1917
   80CHL1   C20 8376   3.109   5.304   8.071  0.5621  0.0573  0.5289
   80CHL1   H20 8377   3.060   5.206   8.053  1.6200 -0.4577  0.3658
   80CHL1   C21 8378   2.995   5.401   8.048 -0.0705 -0.6841  0.3503
   80CHL1  H21A 8379   3.040   5.502   8.061  0.4488 -1.1499  2.5191
   80CHL1  H21B 8380   2.924   5.382   8.131  1.1128 -0.1498  1.5419
   80CHL1  H21C 8381   2.959   5.400   7.943  1.4160  1.6584 -0.2560
   80CHL1   C22 8382   3.154   5.304   8.220  0.7027 -0.7823  0.4685
   80CHL1  H22A 8383   3.064   5.255   8.265  0.4450 -1.9658 -1.2443
   80CHL1  H22B 8384   3.236   5.232   8.240  1.5026  0.7320  3.1732
   80CHL1   C23 8385   3.196   5.431   8.287 -0.5608 -0.2022 -0.5674
   80CHL1  H23A 8386   3.292   5.463   8.239 -1.5553  0.6691 -2.0812
   80CHL1  H23B 8387   3.132   5.518   8.262 -0.9833  0.1130  1.4546
   80CHL1   C24 8388   3.212   5.423   8.435  0.2122 -0.1011  0.0389
   80CHL1  H24A 8389   3.113   5.429   8.485  0.1334 -0.5670 -0.0547
   80CHL1  H24B 8390   3.241   5.318   8.456 -2.1204 -0.7463  0.3336
   80CHL1   C25 8391   3.307   5.525   8.497  0.8664  0.0236  0.5477
   80CHL1   H25 8392   3.393   5.543   8.429 -0.5897  1.2920 -1.0883
   80CHL1   C26 8393   3.241   5.664   8.495  0.0084 -0.4590 -0.2827
   80CHL1  H26A 8394   3.157   5.664   8.568  1.0522 -0.4999  0.9450
   80CHL1  H26B 8395   3.316   5.739   8.527 -0.4110 -0.8308  1.7017
   80CHL1  H26C 8396   3.206   5.690   8.392  0.5596  0.8622 -0.1515
   80CHL1   C27 8397   3.347   5.492   8.641 -0.0276  0.6581  0.6549
   80CHL1  H27A 8398   3.376   5.386   8.650  0.1462  0.6057 -0.4782
   80CHL1  H27B 8399   3.429   5.555   8.681  2.5649 -2.2887  0.3757
   80CHL1  H27C 8400   3.255   5.508   8.702 -1.7415 -0.1550 -1.5917
   81CHL1    C3 8401   3.246   4.201   6.877 -0.9836  0.7333  0.2008
   81CHL1    H3 8402   3.189   4.106   6.871  1.1107 -0.7228  1.8133
   81CHL1    O3 8403   3.304   4.232   6.752 -0.4520  0.8890  0.1026
   81CHL1   H3' 8404   3.366   4.304   6.767  0.1313  0.3095  0.5591
   81CHL1    C4 8405   3.143   4.316   6.906 -0.2925 -0.0658 -0.2894
   81CHL1   H4A 8406   3.204   4.408   6.896 -1.0510  0.8110  2.3549
   81CHL1   H4B 8407   3.062   4.333   6.832 -0.3116  1.8448  0.1123
   81CHL1    C5 8408   3.096   4.292   7.054  0.1215 -0.2724  0.5069
   81CHL1    C6 8409   2.965   4.282   7.079 -0.3020 -0.9691  0.9172
   81CHL1    H6 8410   2.896   4.310   6.998 -0.8065 -2.4907  0.7753
   81CHL1    C7 8411   2.905   4.283   7.218  0.1788  0.0856  0.2302
   81CHL1   H7A 8412   2.830   4.364   7.236 -0.8177 -1.3335  2.9414
   81CHL1   H7B 8413   2.864   4.182   7.240 -0.2972  0.5890  1.8259
   81CHL1    C8 8414   3.013   4.310   7.324 -0.7974 -0.3031  0.6221
   81CHL1    H8 8415   3.034   4.419   7.317 -0.9930 -0.3558 -1.5276
   81CHL1   C14 8416   2.966   4.284   7.460  0.6691  0.4985 -0.0097
   81CHL1   H14 8417   2.950   4.175   7.448  0.5333  0.7777 -3.3556
   81CHL1   C15 8418   2.832   4.334   7.515  0.7253  0.0520 -0.8499
   81CHL1  H15A 8419   2.827   4.442   7.490 -1.4086 -0.3417 -2.4554
   81CHL1  H15B 8420   2.754   4.279   7.459 -0.0900  1.5545 -1.2522
   81CHL1   C16 8421   2.843   4.321   7.668 -0.3767 -0.2342 -0.4363
   81CHL1  H16A 8422   2.844   4.424   7.708  0.2454 -0.3030 -0.2570
   81CHL1  H16B 8423   2.765   4.259   7.717  0.6599 -1.2702 -0.0423
   81CHL1   C17 8424   2.980   4.243   7.690 -0.2895 -0.8505 -0.4932
   81CHL1   H17 8425   2.960   4.136   7.670 -0.5372 -0.5287 -2.0304
   81CHL1   C13 8426   3.067   4.293   7.576 -0.0568 -0.1221 -0.2163
   81CHL1   C18 8427   3.094   4.449   7.591  0.1028 -0.1124 -0.0298
   81CHL1  H18A 8428   3.138   4.493   7.498 -1.0584 -1.3851 -1.2145
   81CHL1  H18B 8429   3.000   4.508   7.595  0.6005  0.6582  0.9007
   81CHL1  H18C 8430   3.163   4.472   7.676 -0.3650  1.5142 -0.0599
   81CHL1   C12 8431   3.187   4.214   7.545  0.2654  0.9821 -0.5501
   81CHL1  H12A 8432   3.261   4.236   7.624  0.0678  2.6683 -0.8029
   81CHL1  H12B 8433   3.168   4.105   7.545  1.9169  0.6439 -2.3644
   81CHL1   C11 8434   3.250   4.251   7.414  0.5045 -0.8097 -0.0182
   81CHL1  H11A 8435   3.291   4.354   7.412 -0.2703 -0.4848  0.6870
   81CHL1  H11B 8436   3.333   4.182   7.386  2.9216  2.1362 -0.7174
   81CHL1    C9 8437   3.149   4.237   7.299  0.1788 -0.2242 -0.1683
   81CHL1    H9 8438   3.133   4.127   7.303 -0.2336 -0.1260  1.2602
   81CHL1   C10 8439   3.211   4.265   7.160  0.2569 -0.7118  0.8447
   81CHL1   C19 8440   3.286   4.400   7.171  0.3176 -0.4244  0.0787
   81CHL1  H19A 8441   3.319   4.450   7.078 -0.6016  1.3015  0.6457
   81CHL1  H19B 8442   3.237   4.476   7.235  0.1673 -2.1057  2.0721
   81CHL1  H19C 8443   3.378   4.374   7.228 -0.1722 -0.7206  0.7492
   81CHL1    C1 8444   3.313   4.153   7.117  0.6583  0.2613  0.2185
   81CHL1   H1A 8445   3.392   4.138   7.193 -0.4968 -0.7712  1.2699
   81CHL1   H1B 8446   3.263   4.055   7.107  0.5697  0.4373 -1.3155
   81CHL1    C2 8447   3.369   4.184   6.975 -0.1536  0.0659  0.4892
   81CHL1   H2A 8448   3.424   4.092   6.949  0.1834  0.3034  0.3596
   81CHL1   H2B 8449   3.441   4.269   6.972  1.5686 -1.3754 -1.3907
   81CHL1   C20 8450   3.031   4.269   7.844 -0.1269 -0.6338  0.2883
   81CHL1   H20 8451   3.052   4.378   7.848  1.2802 -0.9213  2.1146
   81CHL1   C21 8452   3.166   4.208   7.879  1.0709 -0.2210  0.0614
   81CHL1  H21A 8453   3.178   4.107   7.833  0.7328 -0.3350  0.2193
   81CHL1  H21B 8454   3.171   4.192   7.989 -0.1716  1.0406  0.3213
   81CHL1  H21C 8455   3.243   4.282   7.850  0.1485  0.7458  0.0294
   81CHL1   C22 8456   2.929   4.247   7.956 -0.7161 -0.0822 -0.4958
   81CHL1  H22A 8457   2.978   4.280   8.050 -1.2161  0.6994 -0.5029
   81CHL1  H22B 8458   2.842   4.309   7.926 -0.1115  1.7288  1.2694
   81CHL1   C23 8459   2.889   4.105   7.971  0.1813  0.3971  0.0222
   81CHL1  H23A 8460   2.840   4.078   7.874  0.6070 -0.0955 -0.0574
   81CHL1  H23B 8461   2.976   4.037   7.977  0.9519  1.2527 -1.0779
   81CHL1   C24 8462   2.779   4.077   8.069  0.1600 -0.4110 -0.0765
   81CHL1  H24A 8463   2.807   4.109   8.171 -0.3265 -0.2617  0.0141
   81CHL1  H24B 8464   2.680   4.120   8.043 -0.1515  0.0058  1.6612
   81CHL1   C25 8465   2.726   3.930   8.071 -0.1434 -0.3415 -0.5040
   81CHL1   H25 8466   2.688   3.895   7.973  2.1945 -2.0637 -0.8804
   81CHL1   C26 8467   2.837   3.834   8.100 -0.8296  0.2993 -0.2381
   81CHL1  H26A 8468   2.800   3.732   8.123  0.0884 -0.0156 -0.1004
   81CHL1  H26B 8469   2.893   3.825   8.005  0.3981 -1.4767  0.6041
   81CHL1  H26C 8470   2.901   3.865   8.186 -0.3461 -1.3596  0.0401
   81CHL1   C27 8471   2.620   3.921   8.181 -0.2441  0.5017  0.0481
   81CHL1  H27A 8472   2.519   3.958   8.154 -0.3196 -0.4836 -1.0860
   81CHL1  H27B 8473   2.593   3.817   8.209 -1.0894  0.9839  1.1255
   81CHL1  H27C 8474   2.659   3.970   8.273 -2.0875 -0.4006  1.3669
   82CHL1    C3 8475   2.651   5.138   7.077  1.4348 -0.1642 -0.4620
   82CHL1    H3 8476   2.582   5.055   7.105 -0.7941  1.6076 -0.4575
   82CHL1    O3 8477   2.658   5.137   6.939  0.7067 -0.2511  0.1503
   82CHL1   H3' 8478   2.752   5.130   6.916  0.9127  0.1028  0.8634
   82CHL1    C4 8479   2.586   5.274   7.110 -0.2146 -0.0900  0.2660
   82CHL1   H4A 8480   2.652   5.356   7.075  1.3773 -1.8605 -1.1090
   82CHL1   H4B 8481   2.491   5.286   7.055 -1.5933  0.9634  2.7189
   82CHL1    C5 8482   2.572   5.281   7.256  0.5219 -0.0163 -0.2016
   82CHL1    C6 8483   2.447   5.305   7.308  0.3109 -0.1083  0.6000
   82CHL1    H6 8484   2.361   5.309   7.239  1.5301 -3.1619 -1.3306
   82CHL1    C7 8485   2.418   5.318   7.453  0.0026 -0.1956  0.7122
   82CHL1   H7A 8486   2.356   5.407   7.478  1.2097  1.2724 -1.2297
   82CHL1   H7B 8487   2.368   5.223   7.483 -0.5216  0.3808  1.7344
   82CHL1    C8 8488   2.549   5.319   7.541  0.5650 -0.2029  0.3185
   82CHL1    H8 8489   2.585   5.424   7.544  1.0214 -0.3436 -0.0409
   82CHL1   C14 8490   2.503   5.276   7.679 -1.1243 -0.5312  0.0435
   82CHL1   H14 8491   2.474   5.169   7.674 -0.2973 -0.8688  1.8106
   82CHL1   C15 8492   2.387   5.352   7.746 -0.1608  0.3409 -0.2882
   82CHL1  H15A 8493   2.370   5.458   7.719  3.6766  1.4272  0.9399
   82CHL1  H15B 8494   2.295   5.295   7.719 -0.9283  1.4451 -0.0542
   82CHL1   C16 8495   2.412   5.332   7.896 -0.4327 -0.3744 -0.1563
   82CHL1  H16A 8496   2.431   5.435   7.931 -1.9315 -0.0294 -0.2710
   82CHL1  H16B 8497   2.318   5.305   7.949 -0.3392  0.3859  0.4081
   82CHL1   C17 8498   2.531   5.239   7.914  0.0613  0.1411  0.2652
   82CHL1   H17 8499   2.497   5.134   7.899 -0.8299  0.3493  0.7267
   82CHL1   C13 8500   2.615   5.269   7.787  0.2135 -0.6695  0.2096
   82CHL1   C18 8501   2.689   5.409   7.800  0.5857 -0.3425  0.1164
   82CHL1  H18A 8502   2.739   5.440   7.705 -1.3380 -2.5875 -1.7794
   82CHL1  H18B 8503   2.627   5.490   7.842 -0.8292 -0.4273 -1.6508
   82CHL1  H18C 8504   2.771   5.388   7.872  0.3944  2.4536  1.2811
   82CHL1   C12 8505   2.719   5.171   7.736  0.8127 -0.2464 -0.0151
   82CHL1  H12A 8506   2.812   5.170   7.796  1.9054  1.1344 -1.5619
   82CHL1  H12B 8507   2.669   5.072   7.739  0.0067  0.1756  0.9701
   82CHL1   C11 8508   2.761   5.205   7.591 -0.0018 -0.2814  0.6787
   82CHL1  H11A 8509   2.829   5.293   7.597 -0.5235  0.1720  0.0670
   82CHL1  H11B 8510   2.828   5.119   7.567 -1.6811 -1.9215  1.6406
   82CHL1    C9 8511   2.654   5.216   7.488 -0.8146  0.3384 -0.5960
   82CHL1    H9 8512   2.606   5.116   7.490  2.1586 -1.3318 -3.0587
   82CHL1   C10 8513   2.700   5.251   7.340 -0.7152  0.5937 -0.5882
   82CHL1   C19 8514   2.784   5.377   7.348  0.2222 -0.3166  0.3609
   82CHL1  H19A 8515   2.713   5.458   7.375 -1.0067 -0.9203 -0.9398
   82CHL1  H19B 8516   2.878   5.365   7.406 -0.2250 -2.6871  0.6673
   82CHL1  H19C 8517   2.817   5.404   7.245 -0.6459  2.1618  0.6610
   82CHL1    C1 8518   2.776   5.124   7.296 -0.2731 -0.4610 -0.5600
   82CHL1   H1A 8519   2.875   5.116   7.346  0.3934 -0.3874 -1.8166
   82CHL1   H1B 8520   2.715   5.036   7.327 -2.1079  0.5113 -1.2544
   82CHL1    C2 8521   2.791   5.111   7.145  0.6598  0.4838  0.2975
   82CHL1   H2A 8522   2.816   5.008   7.113 -4.3167 -1.1787  0.8439
   82CHL1   H2B 8523   2.867   5.184   7.109 -0.2724  1.7708  0.8418
   82CHL1   C20 8524   2.600   5.246   8.050 -0.0042  1.4037 -0.2675
   82CHL1   H20 8525   2.654   5.342   8.058  1.2519  0.6988  0.0715
   82CHL1   C21 8526   2.699   5.127   8.074  0.9062  0.4130 -0.3968
   82CHL1  H21A 8527   2.647   5.046   8.129  0.5773  0.6644 -0.3360
   82CHL1  H21B 8528   2.784   5.159   8.137  0.2835  1.3643 -0.0180
   82CHL1  H21C 8529   2.740   5.082   7.981  0.5880  0.5653 -0.6128
   82CHL1   C22 8530   2.485   5.257   8.159  0.4599  0.0424  0.2021
   82CHL1  H22A 8531   2.414   5.340   8.138  1.2562  0.6394 -0.2380
   82CHL1  H22B 8532   2.431   5.162   8.144  1.4613 -0.4858 -0.1444
   82CHL1   C23 8533   2.532   5.284   8.302  0.4356  0.0032 -0.4035
   82CHL1  H23A 8534   2.443   5.269   8.367 -0.8881  0.7267 -1.9795
   82CHL1  H23B 8535   2.611   5.211   8.329  0.4094  0.4088  0.8285
   82CHL1   C24 8536   2.596   5.420   8.325 -0.5070  0.4700  0.2788
   82CHL1  H24A 8537   2.680   5.444   8.257  0.1727 -0.0083  0.9240
   82CHL1  H24B 8538   2.524   5.501   8.301  0.2691  0.7413 -1.2319
   82CHL1   C25 8539   2.638   5.452   8.469 -0.3464  0.4113 -0.4871
   82CHL1   H25 8540   2.541   5.487   8.511 -0.5631  2.8386 -2.7681
   82CHL1   C26 8541   2.704   5.340   8.551  0.3205 -0.2759 -0.7571
   82CHL1  H26A 8542   2.806   5.342   8.509  0.2087  1.3519 -0.9913
   82CHL1  H26B 8543   2.696   5.347   8.662  2.1251  1.3756 -0.6904
   82CHL1  H26C 8544   2.660   5.240   8.529 -1.5566  0.7144 -1.8332
   82CHL1   C27 8545   2.729   5.576   8.468 -0.3236 -0.5984  0.0402
   82CHL1  H27A 8546   2.755   5.607   8.571 -2.5203  0.4917  0.3380
   82CHL1  H27B 8547   2.820   5.554   8.409  0.0157 -1.4815  0.8798
   82CHL1  H27C 8548   2.687   5.667   8.419  2.5054  1.8433  1.8253
   83CHL1    C3 8549   5.792   6.135   6.991  0.0198  0.6134  0.1046
   83CHL1    H3 8550   5.890   6.082   6.990 -0.3791 -0.1596 -1.2541
   83CHL1    O3 8551   5.765   6.188   6.859  0.2393  0.1217  0.1070
   83CHL1   H3' 8552   5.709   6.264   6.875 -0.7202 -1.1643  3.8038
   83CHL1    C4 8553   5.684   6.038   7.029  0.4762 -0.3691  0.3910
   83CHL1   H4A 8554   5.583   6.083   7.013 -0.1635 -1.7199  0.5075
   83CHL1   H4B 8555   5.699   5.956   6.956 -0.8160 -0.3102  0.0238
   83CHL1    C5 8556   5.702   5.991   7.173 -0.4596  0.3758  0.1040
   83CHL1    C6 8557   5.720   5.857   7.204 -0.2035 -0.0236 -0.5279
   83CHL1    H6 8558   5.721   5.784   7.122 -1.7396 -1.3688  0.5913
   83CHL1    C7 8559   5.743   5.810   7.343  0.3976  0.4376 -0.0966
   83CHL1   H7A 8560   5.684   5.719   7.361 -0.2154  1.0932  1.3248
   83CHL1   H7B 8561   5.850   5.782   7.356  0.8432  1.5823 -1.0126
   83CHL1    C8 8562   5.708   5.909   7.450 -0.2800 -0.3411  0.0052
   83CHL1    H8 8563   5.597   5.899   7.448 -0.1089 -2.7229 -0.1650
   83CHL1   C14 8564   5.769   5.871   7.588 -0.4158 -0.2967  0.2857
   83CHL1   H14 8565   5.879   5.881   7.587 -0.3261 -0.8401  2.2013
   83CHL1   C15 8566   5.743   5.720   7.627  0.7361 -0.2007 -0.6482
   83CHL1  H15A 8567   5.639   5.688   7.604  0.6618 -1.3144  0.9776
   83CHL1  H15B 8568   5.818   5.656   7.576 -1.8043 -1.5964 -2.8661
   83CHL1   C16 8569   5.756   5.724   7.775  0.3169  0.2649  0.3891
   83CHL1  H16A 8570   5.667   5.676   7.821  0.1060 -1.4527 -1.6750
   83CHL1  H16B 8571   5.846   5.665   7.803 -0.1740 -0.6578  0.0502
   83CHL1   C17 8572   5.770   5.875   7.823 -0.0001  0.4443  0.8444
   83CHL1   H17 8573   5.880   5.895   7.828  0.3470 -1.3992  1.2001
   83CHL1   C13 8574   5.710   5.952   7.703 -0.8269  0.5980 -0.3979
   83CHL1   C18 8575   5.553   5.945   7.715  0.1812 -0.1531 -0.6614
   83CHL1  H18A 8576   5.501   5.990   7.627  2.3625 -0.3627 -2.1375
   83CHL1  H18B 8577   5.509   5.843   7.717  1.2837 -0.6289 -0.1627
   83CHL1  H18C 8578   5.530   5.994   7.812  0.3680 -3.6055  1.2618
   83CHL1   C12 8579   5.760   6.094   7.682  0.3380 -0.1986  0.5082
   83CHL1  H12A 8580   5.730   6.159   7.767 -0.7819  0.0517 -0.0649
   83CHL1  H12B 8581   5.871   6.092   7.676  0.4184 -2.3975  1.9293
   83CHL1   C11 8582   5.720   6.150   7.540 -0.4484 -0.1164 -0.8627
   83CHL1  H11A 8583   5.611   6.166   7.554 -0.3907 -0.0770 -0.4552
   83CHL1  H11B 8584   5.781   6.242   7.526 -1.5467  0.5780 -1.1451
   83CHL1    C9 8585   5.754   6.054   7.418  0.0346  0.2407  0.9852
   83CHL1    H9 8586   5.865   6.051   7.421  0.0229 -0.6823  0.5129
   83CHL1   C10 8587   5.708   6.104   7.278  0.0770  0.7860 -0.7275
   83CHL1   C19 8588   5.571   6.163   7.304  0.3884 -0.1243  0.0879
   83CHL1  H19A 8589   5.567   6.244   7.379  0.0158  1.2047 -1.3221
   83CHL1  H19B 8590   5.533   6.203   7.208  0.2814  2.9118  1.2811
   83CHL1  H19C 8591   5.504   6.080   7.336 -1.2460  1.0556 -0.1601
   83CHL1    C1 8592   5.811   6.207   7.229 -0.2776  0.0984  0.3847
   83CHL1   H1A 8593   5.826   6.294   7.297  0.0588  0.1484  0.2429
   83CHL1   H1B 8594   5.911   6.161   7.235 -0.4436 -0.2155  0.8475
   83CHL1    C2 8595   5.787   6.253   7.085 -0.1785  0.0006 -0.1993
   83CHL1   H2A 8596   5.875   6.315   7.058  1.0330 -1.4684  0.2888
   83CHL1   H2B 8597   5.690   6.307   7.076 -0.2241  0.0283  0.4570
   83CHL1   C20 8598   5.721   5.891   7.972 -0.0595 -0.2305 -0.5019
   83CHL1   H20 8599   5.610   5.884   7.966  0.0107 -0.4518 -2.0814
   83CHL1   C21 8600   5.735   6.031   8.031  0.7032  0.1366  0.0330
   83CHL1  H21A 8601   5.687   6.036   8.131  3.0471  1.3353  1.1750
   83CHL1  H21B 8602   5.681   6.104   7.967 -0.8843 -1.9107 -1.0803
   83CHL1  H21C 8603   5.842   6.060   8.032  0.2351  1.9754  1.0696
   83CHL1   C22 8604   5.772   5.780   8.068 -0.2747  0.7544 -0.3570
   83CHL1  H22A 8605   5.732   5.678   8.046 -1.3507  0.4818  2.4787
   83CHL1  H22B 8606   5.882   5.780   8.057 -0.4157  0.2264 -2.1478
   83CHL1   C23 8607   5.733   5.791   8.213  0.3004  0.3005 -0.5294
   83CHL1  H23A 8608   5.768   5.893   8.242 -0.4079  0.3706  0.1009
   83CHL1  H23B 8609   5.622   5.790   8.213  0.2616 -0.3432  1.2460
   83CHL1   C24 8610   5.784   5.691   8.322 -0.0483  0.1865  0.9402
   83CHL1  H24A 8611   5.736   5.597   8.287  1.9571 -0.2657 -0.8132
   83CHL1  H24B 8612   5.895   5.683   8.311 -0.3560 -2.1112 -1.6385
   83CHL1   C25 8613   5.742   5.721   8.467  0.5865  0.0782  0.2491
   83CHL1   H25 8614   5.789   5.817   8.498  2.5397 -0.5477 -0.5970
   83CHL1   C26 8615   5.592   5.728   8.494 -0.2979 -0.0995  0.7484
   83CHL1  H26A 8616   5.567   5.742   8.601 -1.7841 -0.1268  0.4261
   83CHL1  H26B 8617   5.554   5.820   8.445 -1.1453 -1.1001 -0.5544
   83CHL1  H26C 8618   5.534   5.644   8.450 -1.7384  0.5152  1.4271
   83CHL1   C27 8619   5.816   5.616   8.556  0.2010 -0.2809 -0.7755
   83CHL1  H27A 8620   5.926   5.636   8.557  0.1367  0.0850  0.5565
   83CHL1  H27B 8621   5.792   5.632   8.663  0.0515  1.6663 -1.0575
   83CHL1  H27C 8622   5.806   5.511   8.521  1.7573 -0.6280 -0.2824
   84CHL1    C3 8623   0.236   2.506   7.114 -0.1465  0.4498 -0.2881
   84CHL1    H3 8624   0.129   2.538   7.118 -0.1624  0.7722 -2.2440
   84CHL1    O3 8625   0.268   2.476   6.978  0.2020 -0.4407 -0.1925
   84CHL1   H3' 8626   0.290   2.383   6.978  0.5927 -0.4199  2.1817
   84CHL1    C4 8627   0.320   2.628   7.163 -0.2712  0.7986  0.2964
   84CHL1   H4A 8628   0.429   2.615   7.151 -0.0464  2.3979  0.3714
   84CHL1   H4B 8629   0.294   2.711   7.094 -0.8318 -1.2390 -2.0947
   84CHL1    C5 8630   0.289   2.674   7.301 -0.1500 -0.1173 -0.1070
   84CHL1    C6 8631   0.257   2.803   7.324  0.5594 -0.2221 -0.3572
   84CHL1    H6 8632   0.250   2.874   7.240 -1.4665 -3.1138 -2.8694
   84CHL1    C7 8633   0.224   2.858   7.462 -0.5640 -0.4223  0.2808
   84CHL1   H7A 8634   0.285   2.950   7.475  0.8761 -1.0002 -1.8995
   84CHL1   H7B 8635   0.122   2.903   7.458 -0.6404 -0.6765 -0.9100
   84CHL1    C8 8636   0.259   2.757   7.573  0.0053  0.0811 -0.1502
   84CHL1    H8 8637   0.369   2.772   7.580  0.1182 -0.8054  0.1406
   84CHL1   C14 8638   0.196   2.792   7.715 -0.0546  0.4215  0.0316
   84CHL1   H14 8639   0.089   2.763   7.701 -1.5960  3.9563  2.6955
   84CHL1   C15 8640   0.205   2.939   7.766  0.4549  0.2786  0.8187
   84CHL1  H15A 8641   0.302   2.982   7.730  1.3741 -0.5528  2.2153
   84CHL1  H15B 8642   0.124   2.996   7.717  0.6900 -0.6244 -0.6807
   84CHL1   C16 8643   0.195   2.936   7.919  0.2962 -0.2976 -0.3331
   84CHL1  H16A 8644   0.287   2.978   7.962 -0.4792 -0.4811  1.5868
   84CHL1  H16B 8645   0.100   2.989   7.941 -1.6330 -2.4860 -2.7034
   84CHL1   C17 8646   0.193   2.783   7.957 -0.0682  0.2610  0.3513
   84CHL1   H17 8647   0.083   2.766   7.961  0.1462 -1.0542  0.7457
   84CHL1   C13 8648   0.255   2.714   7.830  1.0593  0.0400 -0.7297
   84CHL1   C18 8649   0.408   2.730   7.844 -0.1411  0.1779 -0.4036
   84CHL1  H18A 8650   0.461   2.699   7.751  1.4034  2.1978 -0.2592
   84CHL1  H18B 8651   0.442   2.831   7.873  2.3563 -0.6673 -0.1629
   84CHL1  H18C 8652   0.431   2.653   7.921  0.1781  0.1079 -0.5651
   84CHL1   C12 8653   0.210   2.567   7.803 -0.0353  0.6180  0.6027
   84CHL1  H12A 8654   0.237   2.489   7.878 -0.6002 -0.9948 -0.8121
   84CHL1  H12B 8655   0.101   2.563   7.825  0.1183  0.1528  1.3309
   84CHL1   C11 8656   0.257   2.517   7.659 -0.4797  0.7539 -0.2248
   84CHL1  H11A 8657   0.367   2.507   7.665 -0.0828  2.6442 -2.7020
   84CHL1  H11B 8658   0.218   2.416   7.636 -2.1500  1.6621 -1.6810
   84CHL1    C9 8659   0.231   2.614   7.539  0.4352 -0.1455  0.5387
   84CHL1    H9 8660   0.121   2.598   7.529  0.8655 -3.7183  0.1985
   84CHL1   C10 8661   0.294   2.563   7.404  0.3556  0.0562  0.0510
   84CHL1   C19 8662   0.446   2.535   7.426  0.4641 -0.5802  0.4600
   84CHL1  H19A 8663   0.484   2.502   7.327 -0.9172 -4.3705  1.0072
   84CHL1  H19B 8664   0.501   2.623   7.466 -0.5255  0.4017 -0.3150
   84CHL1  H19C 8665   0.459   2.450   7.497 -1.7816  0.0630  1.7294
   84CHL1    C1 8666   0.221   2.434   7.355  0.0528 -0.3652  0.3231
   84CHL1   H1A 8667   0.244   2.353   7.427  3.8636 -1.2063 -1.5860
   84CHL1   H1B 8668   0.112   2.455   7.353  0.2028  0.3786 -0.3661
   84CHL1    C2 8669   0.267   2.398   7.210  0.0852 -0.2912  0.0038
   84CHL1   H2A 8670   0.211   2.304   7.189 -0.3184  0.0264 -0.3524
   84CHL1   H2B 8671   0.375   2.372   7.200 -0.2201 -0.9388 -2.3390
   84CHL1   C20 8672   0.234   2.750   8.099 -0.3758  0.2898  0.1521
   84CHL1   H20 8673   0.344   2.763   8.107 -0.1833 -0.6872 -0.7076
   84CHL1   C21 8674   0.207   2.600   8.125 -0.4245  0.6581 -0.8389
   84CHL1  H21A 8675   0.272   2.537   8.061 -0.9897 -1.3417  0.4700
   84CHL1  H21B 8676   0.103   2.562   8.117  0.5169 -2.3969  0.1914
   84CHL1  H21C 8677   0.251   2.568   8.222 -1.8379  0.3872 -0.2708
   84CHL1   C22 8678   0.158   2.842   8.195  0.1818 -0.0408 -0.0820
   84CHL1  H22A 8679   0.179   2.948   8.169 -1.1984  0.0330 -0.9852
   84CHL1  H22B 8680   0.049   2.822   8.185  0.7914 -3.4598 -1.0723
   84CHL1   C23 8681   0.197   2.825   8.343 -0.6043  0.0760  0.5673
   84CHL1  H23A 8682   0.166   2.727   8.385 -1.0458  0.6941  1.7625
   84CHL1  H23B 8683   0.308   2.824   8.348 -0.4582  0.5572 -1.6859
   84CHL1   C24 8684   0.133   2.935   8.436  0.0564 -0.2817 -0.1940
   84CHL1  H24A 8685   0.157   3.039   8.406  0.6564 -1.1185 -2.8687
   84CHL1  H24B 8686   0.023   2.927   8.443 -0.1908  1.3318 -1.6915
   84CHL1   C25 8687   0.205   2.925   8.578 -0.2482  0.4264 -0.0860
   84CHL1   H25 8688   0.208   2.816   8.603  0.9216  0.3303 -0.5726
   84CHL1   C26 8689   0.355   2.966   8.570 -0.8024  0.1337 -0.3774
   84CHL1  H26A 8690   0.400   2.955   8.671 -2.1750 -1.1694  0.1390
   84CHL1  H26B 8691   0.415   2.886   8.522  2.2067  2.3564 -0.5872
   84CHL1  H26C 8692   0.377   3.065   8.525  0.1058  0.1013 -0.0230
   84CHL1   C27 8693   0.128   2.997   8.681  0.6392 -0.0006 -0.0264
   84CHL1  H27A 8694   0.025   2.957   8.691  1.0623 -0.9242  0.7265
   84CHL1  H27B 8695   0.176   2.985   8.780  1.9523  0.2956 -0.6062
   84CHL1  H27C 8696   0.124   3.107   8.666 -0.8963 -0.1577 -1.0326
   85CHL1    C3 8697   0.423   6.733   6.787  0.5697  0.0871  0.5874
   85CHL1    H3 8698   0.478   6.636   6.790  1.3752  0.5113 -0.1894
   85CHL1    O3 8699   0.370   6.763   6.657 -0.2255  0.1391 -0.0741
   85CHL1   H3' 8700   0.319   6.843   6.670  2.6736  2.2248 -0.3977
   85CHL1    C4 8701   0.308   6.723   6.890  0.5413  0.7954 -0.8199
   85CHL1   H4A 8702   0.241   6.812   6.887 -0.0566  0.3359 -1.6474
   85CHL1   H4B 8703   0.242   6.640   6.857  1.8007  0.4905 -2.7620
   85CHL1    C5 8704   0.353   6.701   7.034 -0.2835 -0.1088 -0.3011
   85CHL1    C6 8705   0.314   6.596   7.108 -0.5318  0.2633  0.2086
   85CHL1    H6 8706   0.245   6.522   7.063 -0.1961 -0.0728  0.2460
   85CHL1    C7 8707   0.370   6.575   7.246 -0.3263 -0.3486 -0.2191
   85CHL1   H7A 8708   0.287   6.539   7.311  0.4648  1.1502  1.7374
   85CHL1   H7B 8709   0.444   6.493   7.245 -0.4959 -0.5282 -2.0396
   85CHL1    C8 8710   0.428   6.705   7.310  0.1577  0.2248  0.4079
   85CHL1    H8 8711   0.344   6.774   7.337 -0.0651  0.9705 -1.9496
   85CHL1   C14 8712   0.498   6.667   7.444 -0.4924  0.1169 -0.2665
   85CHL1   H14 8713   0.579   6.595   7.419 -0.1095  0.1884  0.7179
   85CHL1   C15 8714   0.427   6.585   7.549 -0.6363 -0.0624  0.0002
   85CHL1  H15A 8715   0.326   6.629   7.566  0.5210  2.5900  0.5525
   85CHL1  H15B 8716   0.432   6.484   7.504  1.3778 -1.0976  2.3183
   85CHL1   C16 8717   0.511   6.597   7.673  0.4026  0.2591  0.0483
   85CHL1  H16A 8718   0.460   6.627   7.767  0.0417  0.2399 -0.1369
   85CHL1  H16B 8719   0.550   6.494   7.685 -1.2093 -0.5355 -1.1495
   85CHL1   C17 8720   0.624   6.706   7.643  0.9677  0.1460  0.2268
   85CHL1   H17 8721   0.703   6.638   7.606  0.2300  0.0605 -1.2475
   85CHL1   C13 8722   0.570   6.779   7.516  0.0256 -0.8951  0.3405
   85CHL1   C18 8723   0.479   6.891   7.561  0.1376  0.0197 -0.4849
   85CHL1  H18A 8724   0.410   6.922   7.479  0.5190  2.7921  0.1201
   85CHL1  H18B 8725   0.413   6.847   7.638  1.1583 -0.1862  0.2877
   85CHL1  H18C 8726   0.530   6.977   7.609 -0.3098  0.4164 -0.7115
   85CHL1   C12 8727   0.683   6.832   7.414 -0.7261  0.1613 -1.0705
   85CHL1  H12A 8728   0.737   6.920   7.455 -2.8364  0.0884  2.2788
   85CHL1  H12B 8729   0.751   6.745   7.401 -0.3660  0.4891 -1.4200
   85CHL1   C11 8730   0.611   6.880   7.287 -0.2221  0.0480  0.1167
   85CHL1  H11A 8731   0.540   6.963   7.308  1.5434  1.9156 -0.8841
   85CHL1  H11B 8732   0.678   6.934   7.217  0.5221 -1.3250 -0.2792
   85CHL1    C9 8733   0.527   6.771   7.223 -0.5968 -0.1034  0.5042
   85CHL1    H9 8734   0.608   6.698   7.205 -1.6710 -1.3816  0.7483
   85CHL1   C10 8735   0.461   6.799   7.084  0.0632 -0.1638  0.4284
   85CHL1   C19 8736   0.386   6.936   7.098  0.2146  0.5048  0.2944
   85CHL1  H19A 8737   0.298   6.924   7.164 -0.4202  2.3558 -0.1642
   85CHL1  H19B 8738   0.457   7.012   7.137 -0.8066  0.7484  1.7690
   85CHL1  H19C 8739   0.354   6.979   7.001  2.0599 -1.4547 -1.2960
   85CHL1    C1 8740   0.568   6.820   6.977 -0.1094  0.4955  0.6036
   85CHL1   H1A 8741   0.637   6.903   6.998  1.1861 -0.4392  0.1575
   85CHL1   H1B 8742   0.626   6.725   6.973 -0.8671 -0.0074  1.0175
   85CHL1    C2 8743   0.507   6.843   6.835  0.2256 -0.4980 -0.7515
   85CHL1   H2A 8744   0.592   6.854   6.764  0.9257 -0.6260  0.0478
   85CHL1   H2B 8745   0.448   6.937   6.837 -0.4304 -0.7173  4.0728
   85CHL1   C20 8746   0.674   6.791   7.766  0.0356 -0.1368 -0.0895
   85CHL1   H20 8747   0.592   6.857   7.802 -1.2447 -1.9391  0.4297
   85CHL1   C21 8748   0.800   6.871   7.737  0.7972  0.1438 -0.2747
   85CHL1  H21A 8749   0.783   6.931   7.645 -0.0652 -0.7585 -0.7281
   85CHL1  H21B 8750   0.882   6.799   7.712 -0.6830 -1.4330 -0.7547
   85CHL1  H21C 8751   0.830   6.940   7.819 -2.2224  1.1806  0.0529
   85CHL1   C22 8752   0.701   6.714   7.894  0.0254  0.0074 -0.5909
   85CHL1  H22A 8753   0.611   6.651   7.912 -1.4015  1.7068 -1.4048
   85CHL1  H22B 8754   0.777   6.636   7.875  1.0029  0.4804  1.1463
   85CHL1   C23 8755   0.753   6.794   8.017 -0.9103 -0.4636  0.2079
   85CHL1  H23A 8756   0.848   6.844   7.990 -0.9932 -1.0541 -1.2956
   85CHL1  H23B 8757   0.679   6.864   8.061  0.6172  1.3450  0.0403
   85CHL1   C24 8758   0.791   6.694   8.127 -0.7296  0.1293  0.1804
   85CHL1  H24A 8759   0.709   6.622   8.143  0.3749 -0.9985  0.8986
   85CHL1  H24B 8760   0.880   6.633   8.100 -0.2060  0.9652 -0.0530
   85CHL1   C25 8761   0.828   6.764   8.259  0.6860  0.1866 -0.3612
   85CHL1   H25 8762   0.739   6.825   8.283  0.5330  0.5373 -1.7223
   85CHL1   C26 8763   0.861   6.667   8.377  0.3028  0.4861 -0.5680
   85CHL1  H26A 8764   0.959   6.618   8.360  0.3793  0.4615 -0.0682
   85CHL1  H26B 8765   0.857   6.725   8.471  0.3882  0.7095 -0.7014
   85CHL1  H26C 8766   0.784   6.587   8.379 -1.0727  1.7638 -0.6846
   85CHL1   C27 8767   0.943   6.863   8.248  0.1847 -0.4529 -0.0643
   85CHL1  H27A 8768   1.033   6.814   8.206  0.5743 -1.3571  1.7111
   85CHL1  H27B 8769   0.923   6.960   8.196  1.1315 -0.0049  0.3749
   85CHL1  H27C 8770   0.963   6.902   8.350 -2.0122  1.5783 -0.3221
   86CHL1    C3 8771   3.630   3.597   7.101 -0.5428 -0.0070 -0.3675
   86CHL1    H3 8772   3.721   3.566   7.155 -0.8953 -1.4558 -0.5702
   86CHL1    O3 8773   3.654   3.573   6.966  0.3769  0.1856 -0.3926
   86CHL1   H3' 8774   3.572   3.605   6.927  0.4520  0.8442 -0.0265
   86CHL1    C4 8775   3.492   3.540   7.142  0.3303  0.1372  0.1325
   86CHL1   H4A 8776   3.414   3.593   7.082 -0.0472  0.7949  1.1608
   86CHL1   H4B 8777   3.492   3.431   7.121  3.1681 -0.1206  1.1192
   86CHL1    C5 8778   3.457   3.563   7.292 -0.2609  0.1886 -0.5967
   86CHL1    C6 8779   3.442   3.459   7.381  0.1686 -0.2089  0.1410
   86CHL1    H6 8780   3.453   3.353   7.352  0.1093 -0.9337  2.5559
   86CHL1    C7 8781   3.424   3.487   7.527 -0.3068  0.3519 -0.3581
   86CHL1   H7A 8782   3.342   3.422   7.565  1.5006 -1.2585  1.0377
   86CHL1   H7B 8783   3.526   3.460   7.562 -0.3811 -0.6400 -0.8786
   86CHL1    C8 8784   3.388   3.633   7.561  0.1437  0.0135 -0.0783
   86CHL1    H8 8785   3.282   3.650   7.531  0.2312 -0.1435 -0.4856
   86CHL1   C14 8786   3.402   3.653   7.713 -0.1279  0.5324  0.2091
   86CHL1   H14 8787   3.511   3.654   7.734  0.3352  1.5513 -1.9393
   86CHL1   C15 8788   3.332   3.545   7.804 -0.4103  0.4145  0.0518
   86CHL1  H15A 8789   3.233   3.521   7.761 -0.4151  1.6254 -0.6531
   86CHL1  H15B 8790   3.382   3.448   7.822 -1.4380 -0.4523 -1.6441
   86CHL1   C16 8791   3.298   3.633   7.933 -0.2761 -0.0386  0.0016
   86CHL1  H16A 8792   3.187   3.637   7.931 -0.4773 -2.8516 -2.9972
   86CHL1  H16B 8793   3.334   3.591   8.029  1.1122  2.9032  0.9096
   86CHL1   C17 8794   3.353   3.773   7.908 -0.8994  0.2809 -0.3004
   86CHL1   H17 8795   3.461   3.766   7.931 -0.4751 -0.9057 -2.4258
   86CHL1   C13 8796   3.352   3.799   7.755  0.1073  0.1515 -1.0512
   86CHL1   C18 8797   3.204   3.828   7.718  0.6027  0.5114  0.3141
   86CHL1  H18A 8798   3.187   3.938   7.722 -3.1463  0.1426 -1.7934
   86CHL1  H18B 8799   3.178   3.804   7.613 -1.2524  1.5521  0.5022
   86CHL1  H18C 8800   3.129   3.777   7.781 -0.9082  2.1272 -0.1178
   86CHL1   C12 8801   3.457   3.895   7.692  0.3439  0.0536  0.1495
   86CHL1  H12A 8802   3.412   3.994   7.713 -1.8677 -0.3516 -2.2017
   86CHL1  H12B 8803   3.558   3.873   7.732 -0.8913 -1.7054  2.5498
   86CHL1   C11 8804   3.453   3.887   7.537 -0.2719  0.1682 -0.4721
   86CHL1  H11A 8805   3.355   3.926   7.503 -1.2490 -0.8317  1.0686
   86CHL1  H11B 8806   3.537   3.951   7.501  1.2621 -1.0196  0.8472
   86CHL1    C9 8807   3.474   3.732   7.490 -0.3354 -0.2321 -0.3802
   86CHL1    H9 8808   3.574   3.702   7.528 -0.9143 -1.4851  0.2140
   86CHL1   C10 8809   3.458   3.717   7.335 -0.7880  0.7305  0.4719
   86CHL1   C19 8810   3.327   3.773   7.279  0.3712  0.2102 -0.1019
   86CHL1  H19A 8811   3.246   3.697   7.291  0.3108  0.2811 -0.0558
   86CHL1  H19B 8812   3.294   3.875   7.311 -1.6991  0.3759 -2.4124
   86CHL1  H19C 8813   3.338   3.785   7.169  0.9132  1.7951  0.0934
   86CHL1    C1 8814   3.583   3.791   7.275  0.3151 -0.9906 -0.6446
   86CHL1   H1A 8815   3.568   3.901   7.278 -1.0638 -1.1488 -0.9707
   86CHL1   H1B 8816   3.671   3.765   7.338  0.3129 -2.1820 -1.1033
   86CHL1    C2 8817   3.622   3.752   7.132  0.3325 -0.1336 -0.8225
   86CHL1   H2A 8818   3.708   3.812   7.094  0.4214  0.3641  0.1495
   86CHL1   H2B 8819   3.534   3.793   7.078 -1.3188 -2.4175 -0.0002
   86CHL1   C20 8820   3.290   3.873   8.003  0.9237  0.7417 -0.8085
   86CHL1   H20 8821   3.189   3.906   7.971  0.1962 -0.1689  0.4591
   86CHL1   C21 8822   3.387   3.990   8.015 -0.0117 -0.0877 -0.7590
   86CHL1  H21A 8823   3.449   4.017   7.926  1.4852  1.7522  0.7522
   86CHL1  H21B 8824   3.464   3.968   8.091 -0.8636  1.1705  0.5401
   86CHL1  H21C 8825   3.337   4.084   8.046 -0.0693 -0.6672  0.9898
   86CHL1   C22 8826   3.265   3.812   8.140 -0.0223 -0.1792 -0.2084
   86CHL1  H22A 8827   3.197   3.724   8.131 -1.0917  0.6889 -0.8024
   86CHL1  H22B 8828   3.366   3.778   8.173  0.9658  1.7072 -1.1574
   86CHL1   C23 8829   3.200   3.910   8.242 -0.4561  0.3726  1.3593
   86CHL1  H23A 8830   3.267   3.996   8.261  0.7585 -0.4987  1.1407
   86CHL1  H23B 8831   3.117   3.941   8.176  0.5623  0.5991  0.1458
   86CHL1   C24 8832   3.153   3.833   8.369 -0.0322 -0.0339  0.4940
   86CHL1  H24A 8833   3.073   3.757   8.363  0.9775 -1.0240 -2.1404
   86CHL1  H24B 8834   3.252   3.793   8.400  0.4616  1.6976  1.2819
   86CHL1   C25 8835   3.101   3.940   8.474 -0.7861 -0.7465 -0.8643
   86CHL1   H25 8836   3.177   4.017   8.500 -1.7264 -0.3520  0.8615
   86CHL1   C26 8837   2.981   4.015   8.424 -0.2162 -0.1872 -0.4125
   86CHL1  H26A 8838   2.907   3.934   8.411  0.4696 -0.6340 -1.7290
   86CHL1  H26B 8839   2.949   4.089   8.500 -0.4268 -2.5709  1.9456
   86CHL1  H26C 8840   2.990   4.073   8.329  1.6312 -0.3418 -0.3668
   86CHL1   C27 8841   3.069   3.877   8.609 -0.8357 -0.7681 -0.4842
   86CHL1  H27A 8842   3.150   3.808   8.642  0.3488  1.5097  1.8228
   86CHL1  H27B 8843   3.072   3.948   8.695  1.1927 -1.1472 -0.1713
   86CHL1  H27C 8844   2.968   3.832   8.607 -2.6072  2.8180 -3.2644
   87CHL1    C3 8845   1.870   3.238   7.165  0.6338 -0.7017 -0.1760
   87CHL1    H3 8846   1.951   3.170   7.200 -0.5836 -0.8252  2.6241
   87CHL1    O3 8847   1.893   3.280   7.030  0.0516  0.2041  0.1055
   87CHL1   H3' 8848   1.987   3.295   7.022  0.0670  0.2401  0.3658
   87CHL1    C4 8849   1.738   3.162   7.155  0.4069  0.2828 -0.0723
   87CHL1   H4A 8850   1.661   3.235   7.121  1.8107  1.5944 -0.5816
   87CHL1   H4B 8851   1.738   3.081   7.080  2.8336 -3.2855  3.3853
   87CHL1    C5 8852   1.698   3.113   7.290 -0.1242  0.2220 -0.0000
   87CHL1    C6 8853   1.685   2.980   7.311  0.2466  0.2066 -0.2778
   87CHL1    H6 8854   1.709   2.917   7.225  0.6751 -0.1466  0.0974
   87CHL1    C7 8855   1.663   2.920   7.447  0.1023  0.2479 -0.3543
   87CHL1   H7A 8856   1.587   2.839   7.444 -0.1477  0.3496  1.8172
   87CHL1   H7B 8857   1.757   2.873   7.484 -0.5774  0.1027  1.2769
   87CHL1    C8 8858   1.603   3.018   7.550 -0.7313 -0.0843 -0.5497
   87CHL1    H8 8859   1.499   3.043   7.518 -0.3727  2.3286 -0.0426
   87CHL1   C14 8860   1.601   2.961   7.689 -0.2641  0.3656 -0.8154
   87CHL1   H14 8861   1.706   2.943   7.719 -1.0078 -0.4909  1.4082
   87CHL1   C15 8862   1.529   2.823   7.709 -0.7832 -0.1025  0.0116
   87CHL1  H15A 8863   1.433   2.823   7.653 -0.5258 -4.0605 -0.6768
   87CHL1  H15B 8864   1.597   2.744   7.670 -1.8426 -0.5433 -1.0073
   87CHL1   C16 8865   1.489   2.823   7.858 -0.7036  0.4851 -0.1021
   87CHL1  H16A 8866   1.379   2.810   7.870 -0.4885 -1.4307  0.1545
   87CHL1  H16B 8867   1.530   2.733   7.909 -3.2033  0.4689  2.1107
   87CHL1   C17 8868   1.551   2.948   7.921  0.1059 -0.0147  0.0119
   87CHL1   H17 8869   1.659   2.929   7.940  0.2759  0.1442 -0.7686
   87CHL1   C13 8870   1.546   3.054   7.798  0.4091  0.2504 -0.4299
   87CHL1   C18 8871   1.395   3.088   7.774 -0.2854  0.3850  0.7532
   87CHL1  H18A 8872   1.335   2.996   7.760 -0.6229  0.7200 -0.0954
   87CHL1  H18B 8873   1.357   3.153   7.855 -1.1311  1.7010 -0.6552
   87CHL1  H18C 8874   1.374   3.147   7.682 -5.3424 -0.1753  1.2732
   87CHL1   C12 8875   1.640   3.173   7.802 -0.1089  0.0187 -0.0372
   87CHL1  H12A 8876   1.614   3.238   7.888 -0.2118  0.0701 -0.1066
   87CHL1  H12B 8877   1.741   3.134   7.826  1.1843  2.4646 -1.0932
   87CHL1   C11 8878   1.645   3.244   7.661  0.2640  0.2703 -0.3674
   87CHL1  H11A 8879   1.542   3.284   7.653  0.1287  0.7183  2.4963
   87CHL1  H11B 8880   1.717   3.329   7.670 -1.1057  2.0207 -3.7982
   87CHL1    C9 8881   1.680   3.151   7.546 -0.3570 -0.0033 -0.5187
   87CHL1    H9 8882   1.784   3.117   7.566  0.1738  0.4423 -2.3667
   87CHL1   C10 8883   1.684   3.215   7.405  0.4719 -0.8937  0.1851
   87CHL1   C19 8884   1.546   3.283   7.382 -0.1034  0.4681  0.4757
   87CHL1  H19A 8885   1.524   3.366   7.452  0.2007  0.2830  0.7916
   87CHL1  H19B 8886   1.537   3.329   7.281  0.3246  0.8294  0.6010
   87CHL1  H19C 8887   1.463   3.210   7.389  0.5600 -0.3336  0.1571
   87CHL1    C1 8888   1.796   3.324   7.404  0.3458  0.2406 -0.3373
   87CHL1   H1A 8889   1.766   3.412   7.465  1.8388  0.2634  0.4242
   87CHL1   H1B 8890   1.880   3.293   7.471 -1.5450 -2.0642  1.1211
   87CHL1    C2 8891   1.843   3.364   7.261 -0.4287  0.3447 -0.2326
   87CHL1   H2A 8892   1.937   3.424   7.258  1.1414 -1.9784 -2.8739
   87CHL1   H2B 8893   1.765   3.427   7.214  0.4856  1.8241  0.1793
   87CHL1   C20 8894   1.482   2.989   8.056 -0.4014 -0.9471  0.4875
   87CHL1   H20 8895   1.379   3.024   8.033 -0.5251  1.3481  3.7329
   87CHL1   C21 8896   1.561   3.108   8.118  0.1051  0.9590 -0.2552
   87CHL1  H21A 8897   1.552   3.112   8.229 -3.0758  2.5445 -0.4549
   87CHL1  H21B 8898   1.519   3.205   8.084 -1.8605  0.0190 -0.6457
   87CHL1  H21C 8899   1.666   3.099   8.084 -0.4286  0.2966 -1.7728
   87CHL1   C22 8900   1.460   2.875   8.160  0.4195  0.3899 -0.6765
   87CHL1  H22A 8901   1.418   2.919   8.253 -0.8982  1.4406 -1.7226
   87CHL1  H22B 8902   1.381   2.805   8.126 -0.0309  0.0116  1.0811
   87CHL1   C23 8903   1.589   2.797   8.186 -0.1825 -0.6715  0.8933
   87CHL1  H23A 8904   1.626   2.766   8.085 -0.6110  2.2526 -0.2708
   87CHL1  H23B 8905   1.663   2.868   8.228  1.2255 -2.1860  1.0807
   87CHL1   C24 8906   1.557   2.675   8.268  0.0577  0.1451  0.6441
   87CHL1  H24A 8907   1.516   2.721   8.360 -3.2788 -0.4714 -0.3777
   87CHL1  H24B 8908   1.464   2.627   8.229  0.6360 -1.2530  0.9171
   87CHL1   C25 8909   1.668   2.574   8.292 -0.6836  0.0457 -0.1865
   87CHL1   H25 8910   1.695   2.541   8.189 -1.5807 -1.8692  0.1393
   87CHL1   C26 8911   1.771   2.659   8.366 -0.2033  0.6495  0.2352
   87CHL1  H26A 8912   1.823   2.736   8.307  1.1879  1.0391  1.9071
   87CHL1  H26B 8913   1.729   2.705   8.458  2.2638 -1.1914  2.4459
   87CHL1  H26C 8914   1.853   2.589   8.392 -1.1356 -0.8819 -0.7644
   87CHL1   C27 8915   1.629   2.444   8.361  0.5057  0.0361  0.1225
   87CHL1  H27A 8916   1.578   2.371   8.294 -0.7205  1.6967 -0.8160
   87CHL1  H27B 8917   1.717   2.388   8.400  0.9594  0.5063 -0.2204
   87CHL1  H27C 8918   1.560   2.474   8.443 -0.3485 -1.0144 -0.1828
   88CHL1    C3 8919   5.194   1.831   6.995  0.5882  0.1786 -0.4277
   88CHL1    H3 8920   5.182   1.746   7.065 -1.1518  0.5641 -0.1990
   88CHL1    O3 8921   5.153   1.784   6.866 -0.8687  0.3101  0.3479
   88CHL1   H3' 8922   5.070   1.826   6.844 -1.2206 -0.6999 -0.2922
   88CHL1    C4 8923   5.108   1.948   7.044  0.2512  0.3620  0.8471
   88CHL1   H4A 8924   5.130   2.020   6.963 -1.9880 -2.1940 -2.3245
   88CHL1   H4B 8925   5.004   1.909   7.040  0.4884 -0.2398  0.5519
   88CHL1    C5 8926   5.147   1.998   7.184 -0.0444  0.2802  0.5409
   88CHL1    C6 8927   5.068   2.015   7.283 -0.0789  1.1293  0.4566
   88CHL1    H6 8928   4.962   1.986   7.277  0.0970 -0.0342  2.1738
   88CHL1    C7 8929   5.102   2.063   7.418  0.5028 -0.1285  0.2889
   88CHL1   H7A 8930   5.024   2.141   7.435  0.6667 -0.1176  1.0234
   88CHL1   H7B 8931   5.086   1.983   7.494 -2.2408 -1.0654 -1.1228
   88CHL1    C8 8932   5.239   2.131   7.421 -0.2820  0.3239  0.0608
   88CHL1    H8 8933   5.218   2.230   7.377 -1.8449 -0.3998 -0.9263
   88CHL1   C14 8934   5.285   2.140   7.571 -0.5610 -0.4423 -0.0151
   88CHL1   H14 8935   5.281   2.033   7.602  1.0359 -0.4124  0.3503
   88CHL1   C15 8936   5.193   2.212   7.662  0.4611 -0.1353  0.3557
   88CHL1  H15A 8937   5.172   2.314   7.622  1.5419 -0.5276 -1.2898
   88CHL1  H15B 8938   5.104   2.152   7.692 -0.1669  1.1541  1.1972
   88CHL1   C16 8939   5.275   2.213   7.791  0.2900 -0.0536 -0.2677
   88CHL1  H16A 8940   5.257   2.306   7.848 -1.6204  1.4435 -3.0902
   88CHL1  H16B 8941   5.241   2.130   7.857  1.2775 -1.8692 -1.8984
   88CHL1   C17 8942   5.422   2.195   7.743  0.4584 -0.2389  0.2845
   88CHL1   H17 8943   5.447   2.089   7.766  1.5388 -0.2738 -0.9327
   88CHL1   C13 8944   5.426   2.195   7.588  0.2683 -0.2426  0.2362
   88CHL1   C18 8945   5.439   2.335   7.529  0.1407 -0.8672  0.7190
   88CHL1  H18A 8946   5.420   2.336   7.419 -2.2025 -2.0084  1.0303
   88CHL1  H18B 8947   5.368   2.403   7.581  1.0449 -0.5391  1.5302
   88CHL1  H18C 8948   5.537   2.381   7.550 -0.7226  1.1339  0.6251
   88CHL1   C12 8949   5.528   2.103   7.519  0.2687 -0.1219 -0.1950
   88CHL1  H12A 8950   5.637   2.128   7.524  0.0625  0.7924 -0.0116
   88CHL1  H12B 8951   5.505   2.008   7.571  0.9117  1.0563  2.4236
   88CHL1   C11 8952   5.492   2.082   7.374  0.0609 -0.5200  0.7176
   88CHL1  H11A 8953   5.514   2.180   7.327  2.7395 -0.6024  1.6678
   88CHL1  H11B 8954   5.544   2.001   7.318  0.9530 -1.2579  2.5470
   88CHL1    C9 8955   5.344   2.038   7.345 -0.3901 -0.9018  0.5384
   88CHL1    H9 8956   5.318   1.937   7.383  1.4520 -3.0380 -3.3251
   88CHL1   C10 8957   5.306   2.028   7.198 -0.6884  0.0491 -0.0080
   88CHL1   C19 8958   5.333   2.155   7.125  0.2142 -0.3933 -0.1459
   88CHL1  H19A 8959   5.287   2.253   7.151 -1.9545 -0.8407 -1.9836
   88CHL1  H19B 8960   5.440   2.183   7.140 -0.5744  1.6949  2.1380
   88CHL1  H19C 8961   5.318   2.142   7.015 -1.8507 -0.3640  0.0992
   88CHL1    C1 8962   5.386   1.905   7.133  0.2370 -0.3180  0.3558
   88CHL1   H1A 8963   5.494   1.934   7.124 -0.4586  2.0209 -1.8558
   88CHL1   H1B 8964   5.378   1.814   7.195 -1.3614  0.0305  0.6952
   88CHL1    C2 8965   5.343   1.866   6.993  0.4657 -0.2487 -0.5944
   88CHL1   H2A 8966   5.388   1.770   6.957  1.5402 -1.0169  2.4497
   88CHL1   H2B 8967   5.349   1.941   6.911 -2.4867  0.9297  0.1402
   88CHL1   C20 8968   5.521   2.284   7.825  0.3380 -0.0251 -0.6274
   88CHL1   H20 8969   5.493   2.390   7.813  1.3790  0.0802 -2.5640
   88CHL1   C21 8970   5.671   2.260   7.784  0.8154 -0.3460 -0.5272
   88CHL1  H21A 8971   5.689   2.263   7.674 -3.2027  0.5389 -1.3334
   88CHL1  H21B 8972   5.706   2.161   7.822  1.3884  0.6385  1.6639
   88CHL1  H21C 8973   5.732   2.344   7.824 -0.0790 -0.1223  0.4081
   88CHL1   C22 8974   5.513   2.267   7.981  0.0350  0.0619  0.0691
   88CHL1  H22A 8975   5.604   2.318   8.020 -1.3196  1.6636  1.3133
   88CHL1  H22B 8976   5.422   2.321   8.014 -0.1555 -0.3441  0.2117
   88CHL1   C23 8977   5.516   2.121   8.032  0.0492 -1.0419 -0.1306
   88CHL1  H23A 8978   5.451   2.054   7.971 -0.8906 -0.3576  0.0831
   88CHL1  H23B 8979   5.621   2.085   8.030  0.2323 -0.5019 -1.3711
   88CHL1   C24 8980   5.475   2.119   8.183  0.0672 -0.3710  0.1080
   88CHL1  H24A 8981   5.550   2.176   8.240 -1.1287  1.2120  0.1658
   88CHL1  H24B 8982   5.379   2.174   8.194  0.4206  0.6602 -1.5903
   88CHL1   C25 8983   5.458   1.978   8.249  0.1046  0.0190 -0.1560
   88CHL1   H25 8984   5.553   1.920   8.246  0.6515  0.8813  0.1196
   88CHL1   C26 8985   5.427   1.998   8.402 -0.6428  0.0287  0.9378
   88CHL1  H26A 8986   5.421   1.905   8.462  0.6734  0.0949  1.2141
   88CHL1  H26B 8987   5.502   2.066   8.448 -1.4887  1.1217  0.7365
   88CHL1  H26C 8988   5.331   2.054   8.403 -0.2316  1.0442 -2.5202
   88CHL1   C27 8989   5.355   1.893   8.171 -0.4303 -0.1040 -0.2782
   88CHL1  H27A 8990   5.394   1.876   8.068  0.9364  1.1255  0.0095
   88CHL1  H27B 8991   5.345   1.796   8.225 -1.3531 -0.4886 -1.0866
   88CHL1  H27C 8992   5.251   1.933   8.173 -2.1873 -4.1417  0.1896
   89CHL1    C3 8993   3.881   2.793   7.135 -0.5166 -0.1355 -0.3488
   89CHL1    H3 8994   3.807   2.714   7.161  0.2097 -0.6106  0.3173
   89CHL1    O3 8995   3.848   2.830   7.004 -0.5960  0.4625 -0.5330
   89CHL1   H3' 8996   3.894   2.910   6.978  0.8114 -0.5005 -1.1701
   89CHL1    C4 8997   3.865   2.908   7.233 -0.4215 -0.7692 -0.3351
   89CHL1   H4A 8998   3.924   2.992   7.191 -2.3400 -1.6210 -5.5064
   89CHL1   H4B 8999   3.761   2.948   7.237  0.3251  1.1789  1.4704
   89CHL1    C5 9000   3.907   2.881   7.369 -0.0123 -0.1050 -0.5028
   89CHL1    C6 9001   3.831   2.895   7.483  0.8941 -0.1939 -0.2530
   89CHL1    H6 9002   3.729   2.932   7.470  1.1606  0.2071 -1.3055
   89CHL1    C7 9003   3.869   2.864   7.626  0.0615 -0.4905 -0.0919
   89CHL1   H7A 9004   3.825   2.935   7.698  0.4918 -0.2853 -0.0276
   89CHL1   H7B 9005   3.837   2.760   7.652  2.4475 -1.4965 -0.8454
   89CHL1    C8 9006   4.026   2.869   7.631 -0.2988 -0.3057  0.3512
   89CHL1    H8 9007   4.058   2.973   7.609 -0.2978 -1.0475 -4.3097
   89CHL1   C14 9008   4.065   2.811   7.771 -0.2157  0.2152  0.2816
   89CHL1   H14 9009   4.021   2.710   7.765  1.4588 -0.4597 -2.8653
   89CHL1   C15 9010   4.006   2.874   7.898  0.4335 -0.5491 -0.0609
   89CHL1  H15A 9011   3.998   2.985   7.886  0.1740 -0.5614 -0.0131
   89CHL1  H15B 9012   3.909   2.830   7.929 -0.2577  1.9245  1.6642
   89CHL1   C16 9013   4.114   2.854   8.002 -0.0849  0.5679 -0.3761
   89CHL1  H16A 9014   4.161   2.953   8.020 -0.4973  0.7424 -0.2323
   89CHL1  H16B 9015   4.099   2.813   8.105  0.0212  0.0467 -0.5641
   89CHL1   C17 9016   4.219   2.759   7.937  0.0291  0.1493  0.8600
   89CHL1   H17 9017   4.172   2.659   7.945 -1.0430  0.5737  0.0939
   89CHL1   C13 9018   4.215   2.788   7.784  0.8416  0.3394  0.6709
   89CHL1   C18 9019   4.282   2.920   7.762 -0.3366 -0.9398  1.2835
   89CHL1  H18A 9020   4.389   2.920   7.791 -0.1632 -2.4411  0.7484
   89CHL1  H18B 9021   4.276   2.932   7.652  2.0585 -1.4755  1.0552
   89CHL1  H18C 9022   4.236   3.013   7.801  0.6696  1.0482 -1.8968
   89CHL1   C12 9023   4.258   2.680   7.690 -0.1519 -0.3881 -0.4378
   89CHL1  H12A 9024   4.369   2.673   7.697 -0.1728 -1.6799 -1.2243
   89CHL1  H12B 9025   4.213   2.582   7.714  2.0181 -1.6896 -1.3606
   89CHL1   C11 9026   4.232   2.726   7.545  0.3121 -0.4032  0.6026
   89CHL1  H11A 9027   4.316   2.793   7.517  0.8650 -0.6503  1.6420
   89CHL1  H11B 9028   4.236   2.653   7.461 -1.3925  1.0884 -0.8789
   89CHL1    C9 9029   4.085   2.776   7.524 -0.0885 -0.3960  0.4681
   89CHL1    H9 9030   4.032   2.679   7.533 -0.1336 -0.3045  1.2027
   89CHL1   C10 9031   4.045   2.825   7.384 -0.4981 -0.4274  0.7371
   89CHL1   C19 9032   4.143   2.944   7.352  0.6116  0.1014 -0.3255
   89CHL1  H19A 9033   4.246   2.901   7.351  1.5907  2.3096 -0.8377
   89CHL1  H19B 9034   4.124   2.986   7.251 -0.1002  0.6455  0.0334
   89CHL1  H19C 9035   4.135   3.014   7.437 -1.9640 -2.0043  1.3129
   89CHL1    C1 9036   4.066   2.702   7.275 -0.0265 -0.4457 -0.0944
   89CHL1   H1A 9037   4.171   2.670   7.262 -0.0980  0.1986 -3.1890
   89CHL1   H1B 9038   4.011   2.612   7.309 -0.1508  0.5094  2.4742
   89CHL1    C2 9039   4.025   2.733   7.132  0.1724  0.4005 -0.2971
   89CHL1   H2A 9040   4.022   2.641   7.070 -2.2970 -0.5861  1.1251
   89CHL1   H2B 9041   4.100   2.804   7.091  0.7500  0.3156  0.5873
   89CHL1   C20 9042   4.356   2.764   8.011  0.2060 -0.3508  0.3450
   89CHL1   H20 9043   4.398   2.867   8.008  1.4053 -0.8593 -1.9279
   89CHL1   C21 9044   4.451   2.657   7.952  0.1490  0.7698  0.1813
   89CHL1  H21A 9045   4.533   2.633   8.024 -1.0480  1.0648  1.7143
   89CHL1  H21B 9046   4.490   2.674   7.849  0.7907 -0.7982  0.1403
   89CHL1  H21C 9047   4.388   2.566   7.943 -3.0053  2.9676 -1.5691
   89CHL1   C22 9048   4.339   2.720   8.165  0.5559 -0.5434 -0.0245
   89CHL1  H22A 9049   4.277   2.791   8.223 -1.4548 -3.2850  1.4144
   89CHL1  H22B 9050   4.288   2.621   8.165  0.4133 -0.4921  1.6204
   89CHL1   C23 9051   4.466   2.709   8.254  0.0488  0.2569 -0.1964
   89CHL1  H23A 9052   4.538   2.632   8.219  0.2678 -0.0577  0.9189
   89CHL1  H23B 9053   4.520   2.806   8.268  0.1974  0.2400 -0.6350
   89CHL1   C24 9054   4.441   2.682   8.401  0.5375 -0.4357 -0.6593
   89CHL1  H24A 9055   4.529   2.725   8.455 -0.8657  1.8383 -0.0538
   89CHL1  H24B 9056   4.358   2.745   8.438  0.7112 -0.0618 -0.8982
   89CHL1   C25 9057   4.406   2.534   8.440 -0.2325 -0.0431  0.3034
   89CHL1   H25 9058   4.306   2.507   8.402  0.2771  0.1964 -1.2636
   89CHL1   C26 9059   4.509   2.437   8.380  0.1783 -0.3131 -0.1238
   89CHL1  H26A 9060   4.611   2.462   8.416 -0.3535 -0.3244  1.4752
   89CHL1  H26B 9061   4.479   2.339   8.421  0.9659 -0.5049  0.0094
   89CHL1  H26C 9062   4.513   2.432   8.269  2.8507  0.4677 -0.1253
   89CHL1   C27 9063   4.403   2.525   8.595  0.3735  0.8315 -0.4455
   89CHL1  H27A 9064   4.494   2.564   8.645  0.9657 -2.9912  1.9129
   89CHL1  H27B 9065   4.314   2.582   8.629  0.1244 -0.4270  1.1250
   89CHL1  H27C 9066   4.397   2.418   8.625  2.3529  0.2474 -1.8954
   90CHL1    C3 9067   2.318   5.673   6.836  0.0660  0.7882 -0.2575
   90CHL1    H3 9068   2.222   5.625   6.862  1.0512 -0.9993  0.2804
   90CHL1    O3 9069   2.337   5.651   6.699 -0.3853 -0.4043 -0.3446
   90CHL1   H3' 9070   2.420   5.692   6.672  0.7848 -2.6910 -0.4935
   90CHL1    C4 9071   2.329   5.824   6.873  1.0300  0.0009 -0.3760
   90CHL1   H4A 9072   2.422   5.862   6.825 -0.2199  0.8467 -2.2297
   90CHL1   H4B 9073   2.255   5.881   6.814  0.6050 -0.6776 -0.5060
   90CHL1    C5 9074   2.322   5.844   7.024 -0.3112  0.6542 -0.2387
   90CHL1    C6 9075   2.243   5.936   7.081 -0.5066  0.6542 -0.6503
   90CHL1    H6 9076   2.192   6.002   7.010 -1.8291  0.3071 -0.0575
   90CHL1    C7 9077   2.224   5.963   7.226  0.2946 -0.2808  0.3819
   90CHL1   H7A 9078   2.203   6.070   7.245 -0.1284 -0.4607  0.9499
   90CHL1   H7B 9079   2.132   5.918   7.269 -0.3285  1.7706  1.3041
   90CHL1    C8 9080   2.348   5.912   7.311  0.2838 -0.4380  0.8362
   90CHL1    H8 9081   2.428   5.982   7.282 -0.3658  0.5919  1.4796
   90CHL1   C14 9082   2.321   5.919   7.458  0.4783  0.1393  0.5330
   90CHL1   H14 9083   2.237   5.846   7.467  0.5472 -0.3876 -2.1484
   90CHL1   C15 9084   2.249   6.040   7.518 -0.1520 -0.4943  0.1289
   90CHL1  H15A 9085   2.285   6.139   7.482  0.6560 -0.7279  0.2837
   90CHL1  H15B 9086   2.139   6.047   7.499 -0.5214  0.9327  2.3836
   90CHL1   C16 9087   2.266   6.017   7.673  0.6528 -0.1456  0.1576
   90CHL1  H16A 9088   2.328   6.101   7.710 -0.9455  1.1465  0.0205
   90CHL1  H16B 9089   2.168   6.015   7.724  0.0646 -0.3394 -0.9382
   90CHL1   C17 9090   2.350   5.884   7.690  0.1983  0.1353  0.6917
   90CHL1   H17 9091   2.277   5.800   7.693  1.7949 -1.2777  1.6878
   90CHL1   C13 9092   2.428   5.870   7.555 -0.3648  0.0067  0.4780
   90CHL1   C18 9093   2.543   5.979   7.558 -0.1192  0.1116  0.6837
   90CHL1  H18A 9094   2.583   5.986   7.455 -4.1295 -2.1126 -1.2731
   90CHL1  H18B 9095   2.519   6.084   7.586 -2.6914 -0.1079 -0.3705
   90CHL1  H18C 9096   2.618   5.940   7.629  1.3966 -3.5954 -2.5976
   90CHL1   C12 9097   2.476   5.723   7.514  0.3887  0.0474  0.6390
   90CHL1  H12A 9098   2.558   5.677   7.574 -2.0280 -1.3423  3.1189
   90CHL1  H12B 9099   2.389   5.656   7.532  0.8350 -1.4306 -2.1774
   90CHL1   C11 9100   2.499   5.717   7.362 -0.1392 -0.3670 -0.3369
   90CHL1  H11A 9101   2.591   5.774   7.336 -0.3869  0.1137 -0.1693
   90CHL1  H11B 9102   2.515   5.610   7.336 -1.0913 -0.3722 -0.9565
   90CHL1    C9 9103   2.387   5.764   7.269  0.8074 -0.0577 -0.0179
   90CHL1    H9 9104   2.296   5.705   7.293 -0.4560  1.1738 -1.5221
   90CHL1   C10 9105   2.418   5.754   7.112 -0.0082 -0.2068 -0.2345
   90CHL1   C19 9106   2.558   5.819   7.085  0.1888 -0.9577 -0.0669
   90CHL1  H19A 9107   2.559   5.923   7.124  1.1422 -0.3168 -1.6968
   90CHL1  H19B 9108   2.628   5.751   7.140 -0.0423 -2.1695 -1.2116
   90CHL1  H19C 9109   2.602   5.814   6.983 -1.8339 -4.6953 -0.9698
   90CHL1    C1 9110   2.419   5.605   7.069  0.7660  0.3533  0.0265
   90CHL1   H1A 9111   2.514   5.553   7.095  0.2739 -1.5391 -1.7186
   90CHL1   H1B 9112   2.323   5.561   7.105 -1.0693  1.2879 -3.2933
   90CHL1    C2 9113   2.428   5.590   6.914  0.4819  0.7682  0.1829
   90CHL1   H2A 9114   2.426   5.483   6.886  0.5187  0.6880  0.4811
   90CHL1   H2B 9115   2.521   5.642   6.882  0.9507  0.6991  1.3697
   90CHL1   C20 9116   2.429   5.889   7.832  0.0653  0.4293 -0.5612
   90CHL1   H20 9117   2.516   5.957   7.825  0.4115  0.0167 -0.3411
   90CHL1   C21 9118   2.480   5.746   7.864 -0.2964 -0.3704  0.7841
   90CHL1  H21A 9119   2.396   5.687   7.906  0.9420 -1.5595  1.7104
   90CHL1  H21B 9120   2.561   5.755   7.940 -0.4761  3.2041  0.7250
   90CHL1  H21C 9121   2.531   5.694   7.781  1.0903  0.2167  1.2316
   90CHL1   C22 9122   2.337   5.935   7.946  0.2654  0.3982 -0.2203
   90CHL1  H22A 9123   2.299   6.040   7.939 -0.0092  0.4127  1.2401
   90CHL1  H22B 9124   2.246   5.872   7.950  0.8125 -0.4861 -1.3127
   90CHL1   C23 9125   2.411   5.921   8.079  0.3688  0.0111  0.2934
   90CHL1  H23A 9126   2.411   5.811   8.097  0.0133 -0.2775 -1.2693
   90CHL1  H23B 9127   2.512   5.967   8.074 -1.2215  4.5609  3.3302
   90CHL1   C24 9128   2.333   5.981   8.195  0.4446  0.0098  0.0666
   90CHL1  H24A 9129   2.321   6.091   8.202  1.2191  0.2349 -1.5943
   90CHL1  H24B 9130   2.231   5.939   8.181  0.0698  0.9456 -0.0847
   90CHL1   C25 9131   2.385   5.930   8.333 -0.8919  0.3911 -0.3131
   90CHL1   H25 9132   2.403   5.821   8.326  2.7417  0.8791 -0.7073
   90CHL1   C26 9133   2.528   5.982   8.357  0.0639  0.2159 -0.0442
   90CHL1  H26A 9134   2.524   6.092   8.369 -1.7463 -0.0531  2.6631
   90CHL1  H26B 9135   2.555   5.932   8.453 -1.2195  0.6171  0.5426
   90CHL1  H26C 9136   2.605   5.948   8.285  0.6460 -1.5703  1.3233
   90CHL1   C27 9137   2.287   5.968   8.442 -0.4338  0.3625  0.1513
   90CHL1  H27A 9138   2.185   5.925   8.435 -0.9752  1.6288 -0.0068
   90CHL1  H27B 9139   2.330   5.930   8.537  0.8880  1.0893 -0.1315
   90CHL1  H27C 9140   2.282   6.078   8.455  1.4159  0.4744  0.1302
   91CHL1    C3 9141   4.311   0.820   7.279 -0.4937  0.2921  0.2734
   91CHL1    H3 9142   4.281   0.912   7.334  3.0549  0.4262  2.3115
   91CHL1    O3 9143   4.265   0.832   7.147  0.7100  0.0780 -0.2864
   91CHL1   H3' 9144   4.299   0.756   7.098  0.7671  0.4112 -0.7798
   91CHL1    C4 9145   4.465   0.820   7.285  0.5532  0.2956  0.7101
   91CHL1   H4A 9146   4.490   0.722   7.239 -1.2058  0.4494 -0.6581
   91CHL1   H4B 9147   4.502   0.907   7.226 -1.3236  0.0258 -0.9397
   91CHL1    C5 9148   4.505   0.827   7.426 -0.4551 -0.5942 -0.4239
   91CHL1    C6 9149   4.583   0.928   7.465 -0.9524 -0.2555 -0.0303
   91CHL1    H6 9150   4.616   0.999   7.387 -0.5460 -1.8565 -1.3515
   91CHL1    C7 9151   4.642   0.943   7.605 -0.1029  0.8707 -0.5423
   91CHL1   H7A 9152   4.753   0.932   7.603 -0.1378  0.6126 -0.9189
   91CHL1   H7B 9153   4.607   1.033   7.661 -3.3515  1.1800 -2.8387
   91CHL1    C8 9154   4.603   0.828   7.699  0.4642  0.1849 -0.4583
   91CHL1    H8 9155   4.670   0.742   7.678 -0.1068  0.0688 -1.9168
   91CHL1   C14 9156   4.610   0.872   7.843 -0.5314 -0.9597 -0.0015
   91CHL1   H14 9157   4.530   0.949   7.853  0.0315 -0.4354  0.5317
   91CHL1   C15 9158   4.735   0.942   7.887 -0.1382  0.2184  0.2488
   91CHL1  H15A 9159   4.822   0.876   7.865  1.2991  2.6817 -2.0709
   91CHL1  H15B 9160   4.751   1.044   7.848  0.2629  0.6127  1.4177
   91CHL1   C16 9161   4.732   0.934   8.043  0.1555 -0.0153 -0.0075
   91CHL1  H16A 9162   4.816   0.875   8.085 -1.2615  0.2280  3.4964
   91CHL1  H16B 9163   4.729   1.027   8.104  0.0815 -0.9780  1.5239
   91CHL1   C17 9164   4.605   0.851   8.075  0.0649  0.0552  1.0149
   91CHL1   H17 9165   4.520   0.922   8.079  0.6221  0.7678  0.3716
   91CHL1   C13 9166   4.574   0.768   7.950  0.2402  0.4351  0.4419
   91CHL1   C18 9167   4.678   0.655   7.943  0.3574  0.3073 -0.7055
   91CHL1  H18A 9168   4.659   0.593   8.033 -0.1710  2.5312  0.8027
   91CHL1  H18B 9169   4.660   0.594   7.852 -0.1656  0.6349 -0.8298
   91CHL1  H18C 9170   4.786   0.680   7.943  0.9588 -2.0020  0.3136
   91CHL1   C12 9171   4.431   0.726   7.924  0.1489  0.0309 -0.3853
   91CHL1  H12A 9172   4.412   0.641   7.993  0.7465  0.7553  0.7009
   91CHL1  H12B 9173   4.372   0.819   7.941 -3.0971 -1.4606 -2.5001
   91CHL1   C11 9174   4.414   0.675   7.783  0.4662  0.0485  0.6225
   91CHL1  H11A 9175   4.469   0.579   7.776 -0.9906 -0.6978 -1.6667
   91CHL1  H11B 9176   4.304   0.663   7.774  0.2508  0.5088  2.1916
   91CHL1    C9 9177   4.455   0.779   7.674 -0.2176  0.9083 -0.2202
   91CHL1    H9 9178   4.394   0.871   7.688 -1.4599  0.1215 -0.3160
   91CHL1   C10 9179   4.433   0.729   7.525  0.0857 -0.1057 -0.1335
   91CHL1   C19 9180   4.496   0.589   7.499 -0.3267 -0.7092 -0.1389
   91CHL1  H19A 9181   4.435   0.528   7.569 -2.1452  1.2524  0.1096
   91CHL1  H19B 9182   4.497   0.555   7.394  0.1140 -1.5441  0.1244
   91CHL1  H19C 9183   4.601   0.591   7.534 -0.4667 -1.9382  0.4013
   91CHL1    C1 9184   4.285   0.711   7.502 -0.6566 -0.5638 -0.1902
   91CHL1   H1A 9185   4.250   0.621   7.556 -0.6264 -0.4786 -0.0276
   91CHL1   H1B 9186   4.240   0.800   7.551  1.3024  1.1853 -1.3915
   91CHL1    C2 9187   4.247   0.698   7.353  0.8297  0.1106 -0.0602
   91CHL1   H2A 9188   4.137   0.695   7.337  1.0574 -0.3336 -1.8598
   91CHL1   H2B 9189   4.283   0.598   7.319 -0.2068 -1.6085  3.4058
   91CHL1   C20 9190   4.606   0.795   8.218 -0.6941 -0.0909  0.0588
   91CHL1   H20 9191   4.689   0.722   8.225  0.2533  0.8965 -0.7046
   91CHL1   C21 9192   4.484   0.711   8.250 -0.5856 -0.4845  0.2942
   91CHL1  H21A 9193   4.485   0.695   8.360  0.0556  1.1244  0.5512
   91CHL1  H21B 9194   4.486   0.613   8.198 -0.6905 -0.2878 -0.0822
   91CHL1  H21C 9195   4.398   0.769   8.212  0.5545  1.7370  0.9615
   91CHL1   C22 9196   4.639   0.900   8.330  0.5452 -0.3039  0.3642
   91CHL1  H22A 9197   4.731   0.952   8.296  0.4367 -0.7927 -0.7183
   91CHL1  H22B 9198   4.560   0.977   8.335 -0.7251 -1.6248  2.2831
   91CHL1   C23 9199   4.668   0.846   8.477 -0.1323 -0.2563  0.1885
   91CHL1  H23A 9200   4.573   0.796   8.505 -0.2499 -0.5041 -0.6082
   91CHL1  H23B 9201   4.742   0.763   8.465  0.5702 -0.0234  2.4990
   91CHL1   C24 9202   4.714   0.952   8.577 -0.4979  0.0666  0.3744
   91CHL1  H24A 9203   4.807   0.997   8.536  1.0831 -3.7668 -0.6652
   91CHL1  H24B 9204   4.622   1.014   8.573 -1.3116 -1.1349 -0.3747
   91CHL1   C25 9205   4.733   0.905   8.723  0.8712 -0.1048  0.3972
   91CHL1   H25 9206   4.635   0.864   8.755  0.5262 -1.2386 -1.8812
   91CHL1   C26 9207   4.842   0.797   8.747  0.3942  0.4912  0.1128
   91CHL1  H26A 9208   4.941   0.836   8.716 -0.1775 -0.2451 -2.9734
   91CHL1  H26B 9209   4.846   0.783   8.857 -0.2737  2.3797  0.4152
   91CHL1  H26C 9210   4.812   0.701   8.700  0.2756  0.3793  0.4158
   91CHL1   C27 9211   4.750   1.029   8.814  0.1371  0.6708  0.5983
   91CHL1  H27A 9212   4.858   1.057   8.814 -0.2922  2.9513  3.9773
   91CHL1  H27B 9213   4.677   1.106   8.781  0.5405 -0.2612 -2.8752
   91CHL1  H27C 9214   4.722   0.998   8.917 -1.6385 -2.4116 -0.6638
   92CHL1    C3 9215   6.035   2.581   6.689  0.3679 -0.5250  0.0237
   92CHL1    H3 9216   6.071   2.481   6.659 -0.1082 -0.5488 -0.4879
   92CHL1    O3 9217   6.013   2.671   6.575  0.0340  0.6738 -0.0835
   92CHL1   H3' 9218   6.039   2.754   6.615  0.2362  0.2606  0.6677
   92CHL1    C4 9219   5.902   2.560   6.763 -0.4444 -0.1828  0.9476
   92CHL1   H4A 9220   5.871   2.665   6.784 -1.7446 -0.2344 -0.5742
   92CHL1   H4B 9221   5.821   2.513   6.703 -0.6315 -0.1470  1.1692
   92CHL1    C5 9222   5.930   2.467   6.878  0.6508 -0.1984  0.2503
   92CHL1    C6 9223   5.852   2.357   6.898 -0.4939 -0.1210  0.3353
   92CHL1    H6 9224   5.778   2.335   6.821 -1.9619 -0.8453  1.8848
   92CHL1    C7 9225   5.858   2.282   7.028  0.3069 -0.2741 -0.1255
   92CHL1   H7A 9226   5.757   2.278   7.075 -0.0776  1.0041 -0.7963
   92CHL1   H7B 9227   5.892   2.180   7.004 -2.1032 -1.7072  1.9707
   92CHL1    C8 9228   5.945   2.341   7.140  0.9698  0.3332  0.6546
   92CHL1    H8 9229   5.883   2.421   7.186 -1.7884 -0.6394 -1.0969
   92CHL1   C14 9230   5.978   2.244   7.253  0.1352  0.1504  0.1053
   92CHL1   H14 9231   6.038   2.164   7.205 -2.7813 -1.5791 -0.8462
   92CHL1   C15 9232   5.863   2.168   7.318  0.6168  0.1157 -0.2387
   92CHL1  H15A 9233   5.789   2.244   7.349  1.5492  1.9722 -2.2912
   92CHL1  H15B 9234   5.818   2.091   7.251 -2.9471  0.3219  1.6765
   92CHL1   C16 9235   5.932   2.101   7.436 -0.1369  0.0040  0.2770
   92CHL1  H16A 9236   5.863   2.070   7.517 -4.3449 -1.3071 -3.4019
   92CHL1  H16B 9237   5.962   2.004   7.393  0.0008  0.8384 -1.6063
   92CHL1   C17 9238   6.060   2.168   7.459 -0.2534 -0.6373 -0.1328
   92CHL1   H17 9239   6.144   2.107   7.420 -0.3236 -0.5933 -0.3568
   92CHL1   C13 9240   6.058   2.294   7.369 -0.0027 -0.1177  0.1677
   92CHL1   C18 9241   5.994   2.408   7.453 -0.2610 -0.0750 -0.2582
   92CHL1  H18A 9242   6.078   2.444   7.516  0.3080 -1.9668  0.1217
   92CHL1  H18B 9243   5.959   2.487   7.383  1.1915  1.8333  1.0642
   92CHL1  H18C 9244   5.900   2.375   7.503 -0.3354  0.2200 -0.1978
   92CHL1   C12 9245   6.186   2.346   7.310 -0.3240  0.1019  0.4031
   92CHL1  H12A 9246   6.245   2.402   7.386  0.3664  1.3799 -1.0105
   92CHL1  H12B 9247   6.243   2.258   7.273 -0.0450  0.3548  0.2180
   92CHL1   C11 9248   6.162   2.453   7.197  0.8663 -0.2728  0.1227
   92CHL1  H11A 9249   6.114   2.532   7.258 -0.1462 -2.5197  2.4358
   92CHL1  H11B 9250   6.262   2.481   7.158  0.3652  1.3607 -0.0616
   92CHL1    C9 9251   6.071   2.407   7.080  0.2681 -0.2834  0.0723
   92CHL1    H9 9252   6.130   2.330   7.025  1.5459 -0.5250  1.7023
   92CHL1   C10 9253   6.032   2.515   6.979 -0.4764 -0.1596 -0.0588
   92CHL1   C19 9254   5.992   2.644   7.045 -0.3031  0.0155  0.6249
   92CHL1  H19A 9255   5.994   2.734   6.981 -1.7526  0.0841  0.6580
   92CHL1  H19B 9256   5.900   2.626   7.105 -0.5087  1.6515  0.8577
   92CHL1  H19C 9257   6.083   2.666   7.106 -0.6575 -0.5951  1.3901
   92CHL1    C1 9258   6.167   2.543   6.905 -0.1221 -0.2061 -0.1309
   92CHL1   H1A 9259   6.239   2.588   6.977 -0.1100 -0.4765  0.0250
   92CHL1   H1B 9260   6.212   2.447   6.873 -1.2519 -0.4158 -1.1724
   92CHL1    C2 9261   6.150   2.635   6.781  0.4687  0.0476  0.9316
   92CHL1   H2A 9262   6.248   2.633   6.729  0.2387  1.7144  0.3706
   92CHL1   H2B 9263   6.129   2.741   6.808 -0.0547 -0.2290  1.6604
   92CHL1   C20 9264   6.098   2.180   7.605 -0.3338 -0.3313 -0.2236
   92CHL1   H20 9265   6.038   2.254   7.662  2.7533  2.3421 -0.1411
   92CHL1   C21 9266   6.243   2.230   7.629 -0.3536 -0.3625  0.0282
   92CHL1  H21A 9267   6.321   2.169   7.579 -1.4780 -0.5612 -1.5557
   92CHL1  H21B 9268   6.263   2.240   7.738 -2.3966  1.0560  0.3373
   92CHL1  H21C 9269   6.250   2.334   7.590  1.1968 -0.0807  0.9851
   92CHL1   C22 9270   6.090   2.045   7.682 -0.3518 -0.5796 -0.0402
   92CHL1  H22A 9271   5.988   2.005   7.667 -0.7609  0.5619 -0.4047
   92CHL1  H22B 9272   6.161   1.971   7.640  0.3037 -0.0182  0.0726
   92CHL1   C23 9273   6.112   2.061   7.845 -0.3697  0.1603  1.2431
   92CHL1  H23A 9274   6.084   1.960   7.881 -0.2794 -0.4240 -0.2219
   92CHL1  H23B 9275   6.219   2.081   7.868 -0.4432  1.2871  0.6806
   92CHL1   C24 9276   6.011   2.165   7.907 -0.2172 -0.5112 -0.3884
   92CHL1  H24A 9277   6.027   2.271   7.880  0.2592 -0.1042  1.3562
   92CHL1  H24B 9278   5.911   2.132   7.873  1.5513 -1.6413 -5.3584
   92CHL1   C25 9279   6.013   2.149   8.059 -0.0741  0.2490 -0.9246
   92CHL1   H25 9280   5.992   2.041   8.073 -1.5609  0.8133  1.8842
   92CHL1   C26 9281   6.143   2.186   8.123 -0.2619 -0.2179  0.5863
   92CHL1  H26A 9282   6.160   2.294   8.107 -3.1686  0.3375  0.8522
   92CHL1  H26B 9283   6.157   2.160   8.230  2.5483 -0.3309  0.2696
   92CHL1  H26C 9284   6.228   2.139   8.067 -0.7829  0.5130 -0.8668
   92CHL1   C27 9285   5.898   2.226   8.134 -0.5322  0.2732  0.1622
   92CHL1  H27A 9286   5.910   2.199   8.241 -2.2507 -1.5661 -0.0545
   92CHL1  H27B 9287   5.898   2.336   8.119  1.6034  0.2718 -0.1985
   92CHL1  H27C 9288   5.801   2.185   8.100 -1.0107  0.9092  0.7366
   93CHL1    C3 9289   6.811   0.493   6.890  0.6701 -0.5346 -0.4848
   93CHL1    H3 9290   6.791   0.573   6.964  0.9735 -0.5032 -0.4331
   93CHL1    O3 9291   6.837   0.552   6.765 -0.5000 -0.1899 -0.0347
   93CHL1   H3' 9292   6.795   0.638   6.766 -1.2548 -0.4337 -2.5354
   93CHL1    C4 9293   6.929   0.411   6.936 -0.1092  0.2059 -0.7788
   93CHL1   H4A 9294   6.954   0.337   6.856 -2.4543 -2.2614  0.6004
   93CHL1   H4B 9295   7.014   0.482   6.948 -1.3824  1.3159  2.3916
   93CHL1    C5 9296   6.900   0.337   7.065 -0.0997 -0.3238  0.3005
   93CHL1    C6 9297   6.975   0.342   7.180  0.4041  0.4533 -1.1483
   93CHL1    H6 9298   7.069   0.401   7.182  0.1421  0.9092 -1.7866
   93CHL1    C7 9299   6.954   0.262   7.311 -0.1152 -1.0717 -0.2786
   93CHL1   H7A 9300   7.047   0.213   7.346 -1.0437 -1.3548  1.9842
   93CHL1   H7B 9301   6.905   0.323   7.389  0.7758 -1.4907  0.6283
   93CHL1    C8 9302   6.860   0.143   7.275  0.1780  0.3201 -0.5361
   93CHL1    H8 9303   6.926   0.076   7.217  1.9220  0.2377  1.4330
   93CHL1   C14 9304   6.821   0.077   7.405 -0.3762  0.4355  0.3113
   93CHL1   H14 9305   6.755   0.152   7.452  0.2385  0.2755  1.4611
   93CHL1   C15 9306   6.930   0.028   7.512  0.3528  0.2940 -0.0641
   93CHL1  H15A 9307   7.001  -0.037   7.457 -0.5161 -2.5605  1.9598
   93CHL1  H15B 9308   6.988   0.102   7.571 -0.4683 -0.4464  1.7738
   93CHL1   C16 9309   6.849  -0.056   7.607  0.3537  0.7208  0.2051
   93CHL1  H16A 9310   6.905  -0.150   7.625  0.1254  0.4149 -0.6129
   93CHL1  H16B 9311   6.843  -0.006   7.706  2.0428  1.8161 -0.2105
   93CHL1   C17 9312   6.707  -0.070   7.542 -1.0672 -0.0768 -0.3745
   93CHL1   H17 9313   6.650   0.018   7.579  1.7888  1.7380 -0.0214
   93CHL1   C13 9314   6.725  -0.040   7.394  0.1640  0.0492  0.2297
   93CHL1   C18 9315   6.799  -0.156   7.317 -0.1986 -0.1850  0.3809
   93CHL1  H18A 9316   6.724  -0.238   7.311 -0.0313 -0.7402  3.7829
   93CHL1  H18B 9317   6.831  -0.132   7.213 -2.1605  0.6148 -0.0773
   93CHL1  H18C 9318   6.882  -0.196   7.379 -0.0274 -0.7825 -0.2224
   93CHL1   C12 9319   6.596   0.001   7.317 -0.2753 -0.0414 -1.1910
   93CHL1  H12A 9320   6.530  -0.086   7.302  1.1926 -1.4810  0.2666
   93CHL1  H12B 9321   6.546   0.086   7.369 -1.5606 -0.9063 -0.9834
   93CHL1   C11 9322   6.638   0.069   7.186  0.1493  0.6141 -0.0327
   93CHL1  H11A 9323   6.687  -0.011   7.127  2.7410  0.3060  2.2923
   93CHL1  H11B 9324   6.545   0.111   7.142 -0.8058 -0.5870  0.7903
   93CHL1    C9 9325   6.739   0.188   7.189  0.8175  0.6223 -0.7829
   93CHL1    H9 9326   6.689   0.269   7.248  0.2711  0.6302 -1.2472
   93CHL1   C10 9327   6.768   0.253   7.055  0.4375  0.0414 -0.1138
   93CHL1   C19 9328   6.795   0.139   6.953 -0.1915 -0.1483 -0.0074
   93CHL1  H19A 9329   6.706   0.073   6.946 -0.1585 -0.8897  4.1369
   93CHL1  H19B 9330   6.814   0.170   6.848 -1.3560  0.4913 -0.0494
   93CHL1  H19C 9331   6.878   0.073   6.987 -0.1557 -0.5417 -0.8274
   93CHL1    C1 9332   6.643   0.339   7.019 -0.6856  0.1645 -0.2600
   93CHL1   H1A 9333   6.548   0.281   7.014  0.8570 -3.0002  2.8255
   93CHL1   H1B 9334   6.641   0.415   7.099  0.0384 -1.2507  1.1711
   93CHL1    C2 9335   6.677   0.411   6.888  0.0351 -0.2150  0.8873
   93CHL1   H2A 9336   6.591   0.472   6.852 -1.7487 -2.1275  1.7143
   93CHL1   H2B 9337   6.688   0.346   6.799 -0.2011  3.8358 -2.4399
   93CHL1   C20 9338   6.627  -0.183   7.595 -0.0354  1.0952  0.1736
   93CHL1   H20 9339   6.686  -0.275   7.573 -0.6069  0.7035  0.2612
   93CHL1   C21 9340   6.484  -0.218   7.527  0.5009  0.2642 -0.5746
   93CHL1  H21A 9341   6.506  -0.246   7.422 -1.5274  1.2559 -1.3147
   93CHL1  H21B 9342   6.418  -0.128   7.533 -1.9797 -1.5765  1.9227
   93CHL1  H21C 9343   6.439  -0.297   7.590 -1.4328  1.0327 -0.9034
   93CHL1   C22 9344   6.602  -0.170   7.751  0.2420  0.0944  0.0549
   93CHL1  H22A 9345   6.705  -0.173   7.794  0.4589 -3.7561 -0.4231
   93CHL1  H22B 9346   6.553  -0.072   7.768 -2.4509 -1.1175 -0.2278
   93CHL1   C23 9347   6.538  -0.283   7.832 -0.1227 -0.1177  0.6630
   93CHL1  H23A 9348   6.430  -0.260   7.844 -0.7589 -1.2007 -2.2039
   93CHL1  H23B 9349   6.535  -0.382   7.780 -0.0834 -0.4554  1.2927
   93CHL1   C24 9350   6.599  -0.299   7.969 -0.6746 -0.3272 -0.3092
   93CHL1  H24A 9351   6.699  -0.347   7.964 -0.8194 -0.6892  0.1431
   93CHL1  H24B 9352   6.614  -0.198   8.013 -0.4915  0.2975 -1.7744
   93CHL1   C25 9353   6.512  -0.387   8.058  0.7757 -0.6351 -0.3155
   93CHL1   H25 9354   6.467  -0.474   8.005 -0.5834  0.3515 -0.8273
   93CHL1   C26 9355   6.595  -0.454   8.167 -0.4709 -0.3263  0.2493
   93CHL1  H26A 9356   6.644  -0.375   8.229  2.9138 -0.3465 -2.1549
   93CHL1  H26B 9357   6.542  -0.527   8.232  0.2161 -0.2710  0.8872
   93CHL1  H26C 9358   6.683  -0.508   8.127 -0.0501 -1.0009  1.9656
   93CHL1   C27 9359   6.398  -0.301   8.127 -0.0032 -0.0662  0.0630
   93CHL1  H27A 9360   6.314  -0.287   8.055 -1.7879  1.6476  2.2975
   93CHL1  H27B 9361   6.364  -0.344   8.224 -1.0077 -0.8615 -0.6136
   93CHL1  H27C 9362   6.435  -0.196   8.132 -0.4319  0.3064 -2.8459
   94CHL1    C3 9363   1.007   3.427   6.685 -0.2935 -0.0921  0.3248
   94CHL1    H3 9364   1.031   3.533   6.709  0.2626 -0.2498  0.4720
   94CHL1    O3 9365   1.009   3.414   6.549  0.2076 -0.2174 -0.1072
   94CHL1   H3' 9366   0.985   3.321   6.538  0.0458 -0.0563 -1.2275
   94CHL1    C4 9367   1.121   3.348   6.753 -0.5671  0.3123  0.0034
   94CHL1   H4A 9368   1.118   3.238   6.735 -0.9183 -0.5493  4.1159
   94CHL1   H4B 9369   1.223   3.376   6.718 -0.2185  2.3586  2.3666
   94CHL1    C5 9370   1.113   3.365   6.906  0.8262 -0.1852  0.1223
   94CHL1    C6 9371   1.218   3.399   6.976 -0.5822 -0.6692 -0.5379
   94CHL1    H6 9372   1.312   3.413   6.922 -0.4985  2.3592  0.2018
   94CHL1    C7 9373   1.212   3.428   7.123  0.2363  0.5017  0.0258
   94CHL1   H7A 9374   1.299   3.374   7.167 -0.6210 -1.5103 -0.5892
   94CHL1   H7B 9375   1.222   3.537   7.140  0.1586  1.1169 -3.3384
   94CHL1    C8 9376   1.086   3.357   7.184 -0.2698 -0.3317  0.0945
   94CHL1    H8 9377   1.104   3.247   7.174  0.1250 -0.2777  0.1772
   94CHL1   C14 9378   1.077   3.400   7.330 -0.3211  0.3468  0.0639
   94CHL1   H14 9379   1.065   3.509   7.319 -0.6278  0.1765 -1.4926
   94CHL1   C15 9380   1.196   3.374   7.420 -0.8453 -0.1562  0.0064
   94CHL1  H15A 9381   1.232   3.269   7.416 -1.4337 -0.3455 -0.4264
   94CHL1  H15B 9382   1.284   3.435   7.391  2.4229 -2.6435  3.5814
   94CHL1   C16 9383   1.145   3.404   7.566 -0.1907  0.9920 -0.3083
   94CHL1  H16A 9384   1.165   3.317   7.633  0.7996  1.3461 -0.1257
   94CHL1  H16B 9385   1.199   3.492   7.607 -0.3004  0.3292  1.3230
   94CHL1   C17 9386   0.989   3.418   7.543 -0.4518 -0.3130  0.9333
   94CHL1   H17 9387   0.982   3.527   7.523 -1.2988 -0.8276 -2.0976
   94CHL1   C13 9388   0.958   3.348   7.411  0.7027  0.0255  0.6247
   94CHL1   C18 9389   0.971   3.196   7.419 -0.5262  0.1007 -0.4851
   94CHL1  H18A 9390   0.952   3.135   7.328 -0.7432 -1.2038  0.3939
   94CHL1  H18B 9391   1.071   3.156   7.447 -1.5700 -1.2209  1.6104
   94CHL1  H18C 9392   0.890   3.160   7.486 -2.2630 -0.1303 -2.5990
   94CHL1   C12 9393   0.828   3.395   7.335  0.4702  0.4491 -0.9101
   94CHL1  H12A 9394   0.745   3.342   7.387  2.1704 -0.9854  0.4648
   94CHL1  H12B 9395   0.817   3.506   7.345 -2.4761  0.2686 -1.1611
   94CHL1   C11 9396   0.829   3.351   7.188 -0.1825 -0.7093  0.2895
   94CHL1  H11A 9397   0.809   3.242   7.191 -1.0682 -0.5425  0.5471
   94CHL1  H11B 9398   0.752   3.411   7.136  0.7410  1.1538  0.9795
   94CHL1    C9 9399   0.958   3.393   7.116  0.1748 -0.6448 -0.1606
   94CHL1    H9 9400   0.963   3.504   7.107 -1.7189 -0.6952 -2.9937
   94CHL1   C10 9401   0.966   3.352   6.962  0.1570 -0.6228 -0.9276
   94CHL1   C19 9402   0.923   3.203   6.953 -0.2807  0.5496  0.6315
   94CHL1  H19A 9403   0.963   3.157   6.860 -0.4262 -1.5666  1.5484
   94CHL1  H19B 9404   0.957   3.134   7.033  3.5431 -0.4261 -1.5759
   94CHL1  H19C 9405   0.813   3.201   6.935 -0.0768  2.5973 -1.3012
   94CHL1    C1 9406   0.872   3.435   6.885  0.0938 -0.4904 -0.0677
   94CHL1   H1A 9407   0.769   3.432   6.926  0.3610  1.9167  0.9095
   94CHL1   H1B 9408   0.896   3.543   6.890 -0.9746 -0.0486 -2.7470
   94CHL1    C2 9409   0.865   3.400   6.734 -0.2420  0.4161  0.1279
   94CHL1   H2A 9410   0.798   3.475   6.686 -0.4735  0.4843  0.5517
   94CHL1   H2B 9411   0.842   3.292   6.719  1.5149 -0.2204  1.6659
   94CHL1   C20 9412   0.900   3.379   7.663  0.2034  0.5613 -0.0551
   94CHL1   H20 9413   0.877   3.270   7.663  0.1152  0.5577 -1.5313
   94CHL1   C21 9414   0.763   3.455   7.661 -0.1446  0.2383  0.3260
   94CHL1  H21A 9415   0.703   3.425   7.750 -1.5010 -0.1162 -0.6763
   94CHL1  H21B 9416   0.698   3.427   7.575  0.2694 -1.2434  0.4699
   94CHL1  H21C 9417   0.783   3.564   7.654  0.5465  0.1340  0.6507
   94CHL1   C22 9418   0.955   3.382   7.807  0.2285  0.5415  0.3946
   94CHL1  H22A 9419   0.880   3.336   7.875 -0.4762 -0.0702 -0.7545
   94CHL1  H22B 9420   1.049   3.325   7.817 -0.3372 -0.7900 -1.3490
   94CHL1   C23 9421   0.988   3.522   7.865  0.0077 -0.5788 -0.1560
   94CHL1  H23A 9422   1.065   3.575   7.806 -0.7723  1.1201  0.2858
   94CHL1  H23B 9423   0.895   3.583   7.861 -0.3270 -1.1252 -1.1172
   94CHL1   C24 9424   1.034   3.530   8.010  0.1756 -0.4255 -0.0608
   94CHL1  H24A 9425   1.130   3.477   8.026  0.0213 -0.0669  2.6543
   94CHL1  H24B 9426   1.034   3.639   8.031 -0.5813 -0.1971 -1.1610
   94CHL1   C25 9427   0.936   3.474   8.114  1.2024  0.2490  0.0241
   94CHL1   H25 9428   0.916   3.366   8.097 -1.7100  0.5229  1.0369
   94CHL1   C26 9429   0.997   3.468   8.256  0.1700  0.2494  0.4953
   94CHL1  H26A 9430   0.922   3.472   8.337 -0.8002  0.9146 -0.4117
   94CHL1  H26B 9431   1.049   3.370   8.267 -0.8635 -0.1515  2.1052
   94CHL1  H26C 9432   1.063   3.556   8.271 -0.0009  0.2766  1.1086
   94CHL1   C27 9433   0.790   3.542   8.117  0.6375 -0.1698  0.5462
   94CHL1  H27A 9434   0.718   3.471   8.163 -0.2072 -0.2497 -0.8294
   94CHL1  H27B 9435   0.780   3.638   8.171 -0.9170 -1.1649  2.1663
   94CHL1  H27C 9436   0.757   3.561   8.013  0.3344 -0.3194  0.6120
   95CHL1    C3 9437   1.766   2.053   6.685  0.2025  0.0717  0.0747
   95CHL1    H3 9438   1.828   1.965   6.658 -0.1239  0.0309 -0.5671
   95CHL1    O3 9439   1.752   2.123   6.564 -0.5402 -0.8309 -0.5164
   95CHL1   H3' 9440   1.668   2.092   6.528 -1.0714 -0.3070  0.2240
   95CHL1    C4 9441   1.622   2.021   6.728  0.5928 -0.1781  0.3896
   95CHL1   H4A 9442   1.554   2.107   6.712 -1.6210 -1.2566  3.2328
   95CHL1   H4B 9443   1.575   1.947   6.659  1.0012 -1.7561  1.7432
   95CHL1    C5 9444   1.613   1.977   6.870 -0.0690  0.0993 -0.2636
   95CHL1    C6 9445   1.535   1.877   6.907  0.7685  0.0825  0.6303
   95CHL1    H6 9446   1.472   1.825   6.833  0.0007  2.0231 -0.1602
   95CHL1    C7 9447   1.515   1.830   7.048  0.1676  0.4055  0.6661
   95CHL1   H7A 9448   1.405   1.824   7.065 -0.3284 -1.6031 -2.4055
   95CHL1   H7B 9449   1.562   1.730   7.057 -0.4809 -0.1962 -1.7829
   95CHL1    C8 9450   1.570   1.930   7.152  0.1461 -0.4616 -0.1373
   95CHL1    H8 9451   1.498   2.013   7.173  2.4473  1.4675  0.5576
   95CHL1   C14 9452   1.589   1.853   7.282 -0.4054  0.2231  0.2823
   95CHL1   H14 9453   1.669   1.778   7.262 -0.2516  0.2608  0.7418
   95CHL1   C15 9454   1.465   1.777   7.343  0.2277  0.6594 -0.1058
   95CHL1  H15A 9455   1.372   1.836   7.332 -0.0356  0.6081  1.6629
   95CHL1  H15B 9456   1.455   1.679   7.290 -1.2399  1.4959 -1.4703
   95CHL1   C16 9457   1.512   1.739   7.484 -0.3820 -0.4685 -0.2211
   95CHL1  H16A 9458   1.444   1.764   7.569 -1.7811 -0.7001 -1.2317
   95CHL1  H16B 9459   1.531   1.630   7.487 -3.2231 -1.0439  1.4474
   95CHL1   C17 9460   1.649   1.815   7.511  0.2449 -0.6885 -0.0304
   95CHL1   H17 9461   1.735   1.749   7.485 -1.0472 -2.3105 -0.3154
   95CHL1   C13 9462   1.651   1.927   7.403 -0.6513  0.1831 -0.7235
   95CHL1   C18 9463   1.563   2.035   7.459  0.1084 -0.8242 -0.3461
   95CHL1  H18A 9464   1.459   1.997   7.464 -0.8034  1.5935  0.0357
   95CHL1  H18B 9465   1.604   2.073   7.554  1.3681 -2.1928 -0.2989
   95CHL1  H18C 9466   1.556   2.113   7.380 -0.4181 -1.9573 -1.4694
   95CHL1   C12 9467   1.786   1.982   7.362  0.2077 -0.0919  0.3419
   95CHL1  H12A 9468   1.815   2.056   7.440  0.3631  0.7092 -0.4635
   95CHL1  H12B 9469   1.863   1.902   7.360  0.6515  0.3333  0.4447
   95CHL1   C11 9470   1.782   2.056   7.228  0.7515 -0.1075 -0.2534
   95CHL1  H11A 9471   1.719   2.148   7.234  1.3933  0.4679 -1.8524
   95CHL1  H11B 9472   1.887   2.084   7.207  1.2635 -0.5507  1.5412
   95CHL1    C9 9473   1.708   1.978   7.109 -0.2508 -0.2073 -0.1380
   95CHL1    H9 9474   1.773   1.889   7.099 -1.3276 -1.1124  0.7274
   95CHL1   C10 9475   1.700   2.049   6.977 -0.3476 -0.5492 -0.2812
   95CHL1   C19 9476   1.625   2.190   6.988 -0.3533 -0.4381  0.0137
   95CHL1  H19A 9477   1.687   2.263   7.044  0.4039  2.4050 -4.0767
   95CHL1  H19B 9478   1.604   2.228   6.886  1.0287  0.1452 -0.0643
   95CHL1  H19C 9479   1.532   2.171   7.046 -0.2405 -3.5869 -0.6627
   95CHL1    C1 9480   1.846   2.067   6.923 -0.2185 -0.5789  0.8365
   95CHL1   H1A 9481   1.909   2.119   6.998  1.4180  0.0207 -0.8550
   95CHL1   H1B 9482   1.901   1.971   6.920  0.1916 -0.3414  0.5000
   95CHL1    C2 9483   1.847   2.134   6.784  0.0747  0.7882 -0.4795
   95CHL1   H2A 9484   1.954   2.151   6.763 -0.3701  2.9397 -1.2098
   95CHL1   H2B 9485   1.816   2.240   6.795 -2.1317  0.0122  2.2988
   95CHL1   C20 9486   1.668   1.846   7.656  0.0419 -0.1694  0.5333
   95CHL1   H20 9487   1.584   1.914   7.680 -0.6071 -0.3874 -0.9837
   95CHL1   C21 9488   1.802   1.904   7.698 -0.6668  0.6705 -0.5400
   95CHL1  H21A 9489   1.881   1.830   7.669  0.5011  2.3790 -1.8960
   95CHL1  H21B 9490   1.800   1.928   7.806  2.6824  0.8044 -0.3991
   95CHL1  H21C 9491   1.824   1.999   7.644 -2.2496  2.2579  1.4722
   95CHL1   C22 9492   1.641   1.724   7.747  0.1660 -0.0174 -0.2657
   95CHL1  H22A 9493   1.592   1.637   7.697  1.8438 -0.3358 -1.4347
   95CHL1  H22B 9494   1.734   1.669   7.773 -0.9380 -1.6437  0.4505
   95CHL1   C23 9495   1.558   1.771   7.869  0.3645  0.0437  0.1868
   95CHL1  H23A 9496   1.574   1.708   7.960  1.6801 -1.4402 -1.0061
   95CHL1  H23B 9497   1.600   1.867   7.905 -0.2793  0.4810 -0.2082
   95CHL1   C24 9498   1.402   1.771   7.848  0.1065  0.4746 -0.0392
   95CHL1  H24A 9499   1.391   1.829   7.754  2.1291 -1.0672 -1.3309
   95CHL1  H24B 9500   1.366   1.667   7.831  0.6321  0.1792  0.6332
   95CHL1   C25 9501   1.304   1.826   7.956  0.1314  0.2099 -0.0367
   95CHL1   H25 9502   1.329   1.777   8.052  1.2361 -0.0017 -0.4160
   95CHL1   C26 9503   1.322   1.978   7.980  0.3915 -0.2251 -0.2165
   95CHL1  H26A 9504   1.340   2.014   7.876  0.6054  1.6351  0.4280
   95CHL1  H26B 9505   1.227   2.023   8.015  0.4145  0.4367 -0.9875
   95CHL1  H26C 9506   1.411   2.001   8.043  1.0802  1.2811 -1.6781
   95CHL1   C27 9507   1.164   1.790   7.890 -0.3102 -0.2222 -0.1243
   95CHL1  H27A 9508   1.172   1.819   7.783  0.0843 -0.0177 -0.0401
   95CHL1  H27B 9509   1.150   1.680   7.891  1.5908 -0.4892  0.0618
   95CHL1  H27C 9510   1.079   1.839   7.942 -1.2211  0.1457 -1.8854
   96CHL1    C3 9511   2.680   1.048   6.807 -0.4658  0.3265 -0.5033
   96CHL1    H3 9512   2.782   1.090   6.800  0.6018 -1.9012  0.6234
   96CHL1    O3 9513   2.636   1.023   6.677  0.3380  0.1560  0.4069
   96CHL1   H3' 9514   2.686   0.950   6.640 -1.2566 -0.6938 -0.1498
   96CHL1    C4 9515   2.702   0.915   6.879  0.3260 -0.1480  0.0331
   96CHL1   H4A 9516   2.613   0.849   6.876  1.7527 -2.1912  0.4664
   96CHL1   H4B 9517   2.784   0.867   6.821  0.5150  0.0693  0.1197
   96CHL1    C5 9518   2.738   0.930   7.024 -0.2500 -0.0685 -0.6129
   96CHL1    C6 9519   2.851   0.871   7.066  0.0214 -0.2906  0.0978
   96CHL1    H6 9520   2.902   0.813   6.988 -0.3978 -0.4973 -0.0231
   96CHL1    C7 9521   2.895   0.866   7.204 -0.4339 -0.2261 -0.2446
   96CHL1   H7A 9522   2.913   0.761   7.233  1.3773  0.3160  0.7874
   96CHL1   H7B 9523   2.995   0.915   7.207 -1.2215  1.5575 -1.2615
   96CHL1    C8 9524   2.795   0.936   7.303 -0.4857 -0.5674 -0.9075
   96CHL1    H8 9525   2.715   0.866   7.333  0.0183 -0.9452 -0.4303
   96CHL1   C14 9526   2.865   0.985   7.433  0.5308  0.0692  0.2277
   96CHL1   H14 9527   2.936   1.066   7.409  1.7674 -0.0753  3.0023
   96CHL1   C15 9528   2.947   0.882   7.507  0.0859 -0.0019  0.1469
   96CHL1  H15A 9529   2.914   0.776   7.498 -3.0668  0.8990 -0.0546
   96CHL1  H15B 9530   3.044   0.883   7.453 -0.1098  2.3458 -0.2396
   96CHL1   C16 9531   2.965   0.938   7.645  0.2537 -0.8053 -0.7916
   96CHL1  H16A 9532   2.940   0.867   7.727 -0.8600  0.1691 -0.2527
   96CHL1  H16B 9533   3.075   0.955   7.650  0.1713 -0.6686  0.8956
   96CHL1   C17 9534   2.888   1.070   7.655 -0.5966  0.0227 -0.0047
   96CHL1   H17 9535   2.952   1.144   7.602 -1.5012 -0.6794 -2.1798
   96CHL1   C13 9536   2.781   1.049   7.543  0.8137  0.0727 -0.6165
   96CHL1   C18 9537   2.675   0.956   7.591  0.5527 -0.5584 -0.1889
   96CHL1  H18A 9538   2.610   0.920   7.508 -1.4369  0.3209  0.9332
   96CHL1  H18B 9539   2.707   0.861   7.640 -2.2129 -0.8091  1.3794
   96CHL1  H18C 9540   2.607   1.001   7.667  0.9956  0.1223 -0.1893
   96CHL1   C12 9541   2.717   1.178   7.476  0.0216 -0.1929  0.1382
   96CHL1  H12A 9542   2.641   1.218   7.547 -0.2322 -0.2226 -0.1146
   96CHL1  H12B 9543   2.802   1.251   7.474 -1.2417  1.3970 -3.1018
   96CHL1   C11 9544   2.650   1.153   7.341  0.4750  0.3498 -0.6497
   96CHL1  H11A 9545   2.548   1.113   7.357  0.6974 -0.6442 -1.5612
   96CHL1  H11B 9546   2.643   1.256   7.298 -0.0091 -0.4654 -2.6343
   96CHL1    C9 9547   2.730   1.062   7.241  0.3568  0.2302  0.0623
   96CHL1    H9 9548   2.810   1.130   7.206  1.0554 -0.3949  0.4231
   96CHL1   C10 9549   2.646   1.016   7.114  0.4121 -0.0697 -0.5017
   96CHL1   C19 9550   2.508   0.963   7.150  0.0399 -1.1161 -0.0382
   96CHL1  H19A 9551   2.457   0.932   7.056  1.6517 -1.5634 -0.7937
   96CHL1  H19B 9552   2.504   0.884   7.228  0.4853 -2.0065 -0.9005
   96CHL1  H19C 9553   2.449   1.051   7.185 -0.0534 -0.8368 -0.8654
   96CHL1    C1 9554   2.625   1.146   7.031 -0.6268  0.5312  0.0820
   96CHL1   H1A 9555   2.555   1.225   7.067 -0.8261 -0.1529  1.2425
   96CHL1   H1B 9556   2.718   1.206   7.028  0.1641 -0.6989 -0.5574
   96CHL1    C2 9557   2.578   1.128   6.879  0.2008 -0.1256 -0.2715
   96CHL1   H2A 9558   2.567   1.225   6.826  0.5085 -0.2000 -0.4753
   96CHL1   H2B 9559   2.479   1.078   6.873 -0.5037  1.1103  0.6081
   96CHL1   C20 9560   2.856   1.113   7.797  0.3313  0.6505 -0.0464
   96CHL1   H20 9561   2.781   1.040   7.836 -0.9089  0.8519 -1.9347
   96CHL1   C21 9562   2.796   1.252   7.785  0.6303 -0.1627 -0.0862
   96CHL1  H21A 9563   2.698   1.226   7.739  0.3352 -2.2881  1.5868
   96CHL1  H21B 9564   2.843   1.325   7.715 -2.3870  1.7018 -0.3451
   96CHL1  H21C 9565   2.768   1.300   7.881 -1.3731 -0.2654 -0.5809
   96CHL1   C22 9566   2.978   1.107   7.889 -0.0275  0.1436 -0.3933
   96CHL1  H22A 9567   3.011   1.002   7.898  0.4346  0.2050 -1.3158
   96CHL1  H22B 9568   3.058   1.170   7.846  2.0884 -1.3539  1.1622
   96CHL1   C23 9569   2.948   1.160   8.031  0.1400 -0.0477  0.0617
   96CHL1  H23A 9570   2.928   1.269   8.030 -2.5455 -0.4844 -0.0639
   96CHL1  H23B 9571   2.861   1.105   8.072  1.4046 -1.0370  1.5525
   96CHL1   C24 9572   3.065   1.134   8.127  0.2735 -0.0148  0.1594
   96CHL1  H24A 9573   3.159   1.163   8.074 -0.9100  1.7573 -1.0658
   96CHL1  H24B 9574   3.072   1.193   8.221  0.0886  1.4046 -0.7067
   96CHL1   C25 9575   3.084   0.981   8.169 -0.4237 -0.5527 -0.3213
   96CHL1   H25 9576   3.085   0.914   8.080 -2.2687  0.1145 -0.9087
   96CHL1   C26 9577   3.226   0.959   8.223 -0.1803  0.2652  0.3342
   96CHL1  H26A 9578   3.308   0.989   8.155 -1.9296  2.2731 -1.0106
   96CHL1  H26B 9579   3.254   1.022   8.310 -0.5556 -0.5412  1.0609
   96CHL1  H26C 9580   3.249   0.854   8.251  0.2998  0.4278  0.5667
   96CHL1   C27 9581   2.971   0.938   8.266  0.7695  0.3495 -0.6714
   96CHL1  H27A 9582   2.940   1.016   8.339  4.2581  0.7686  0.5478
   96CHL1  H27B 9583   2.878   0.915   8.210  0.0917  1.9576 -0.2482
   96CHL1  H27C 9584   2.995   0.848   8.326 -1.5175 -0.4262 -0.8444
   97OSM      N 9585   6.690   6.564  11.389  0.2025  0.0803 -0.6643
   97OSM    C15 9586   6.723   6.424  11.433 -0.5782 -0.3697 -0.3320
   97OSM   H15A 9587   6.722   6.422  11.541  0.5231 -1.1137 -0.3206
   97OSM   H15B 9588   6.818   6.397  11.390  0.1217  2.2158 -0.5966
   97OSM   H15C 9589   6.651   6.362  11.383 -1.5013  2.5354 -2.9033
   97OSM    C14 9590   6.798   6.652  11.446  0.0217  0.7514  0.1327
   97OSM   H14A 9591   6.805   6.746  11.393 -1.7359  1.1650  0.5852
   97OSM   H14B 9592   6.894   6.605  11.430  0.4309  2.0289 -1.5032
   97OSM   H14C 9593   6.793   6.667  11.553 -0.4780 -1.7826  0.5272
   97OSM    C13 9594   6.705   6.566  11.239  0.3540 -0.2390  0.2517
   97OSM   H13A 9595   6.809   6.566  11.212  1.1021 -1.4905  2.8585
   97OSM   H13B 9596   6.670   6.657  11.191  0.5059 -0.2429  0.1309
   97OSM   H13C 9597   6.645   6.490  11.192 -1.0565  1.4780 -0.8946
   97OSM    C12 9598   6.552   6.599  11.442 -0.1893  0.0908  0.0747
   97OSM   H12A 9599   6.557   6.580  11.548  1.1255  0.3974  0.0953
   97OSM   H12B 9600   6.486   6.523  11.403  0.1436 -0.1340 -0.0567
   97OSM    C11 9601   6.491   6.737  11.403  0.1767 -0.7158 -0.4392
   97OSM   H11A 9602   6.553   6.815  11.451  1.3460 -1.6182 -0.4338
   97OSM   H11B 9603   6.392   6.749  11.452 -0.1366  1.4371 -1.4920
   97OSM      P 9604   6.349   6.714  11.189 -0.3691  0.0472 -0.0938
   97OSM    O13 9605   6.289   6.589  11.245 -0.2270  0.3791 -0.3749
   97OSM    O14 9606   6.266   6.832  11.184  0.2464 -0.3211  0.1367
   97OSM    O11 9607   6.409   6.686  11.042 -0.0597  0.5071  0.0866
   97OSM    O12 9608   6.483   6.756  11.267  0.7442 -0.8138  0.3238
   97OSM    C1S 9609   6.399   6.559  10.980 -0.3690  0.1300 -0.1923
   97OSM    H1S 9610   6.293   6.528  10.969  0.2057 -1.6060 -1.2051
   97OSM    H1T 9611   6.462   6.491  11.043  0.1389  1.4723  0.8034
   97OSM     NF 9612   6.429   6.443  10.769 -0.5726  0.4302 -0.2574
   97OSM    HNF 9613   6.512   6.393  10.743 -1.6219 -1.2621 -0.4660
   97OSM    C2S 9614   6.456   6.565  10.839  0.0295  0.7565 -0.1654
   97OSM    H2S 9615   6.405   6.651  10.792  1.3723  1.5187 -0.2785
   97OSM    C3S 9616   6.607   6.596  10.844 -0.7595 -0.0982 -0.5300
   97OSM    H3S 9617   6.659   6.499  10.856 -0.3524  0.1248 -0.4423
   97OSM     O3 9618   6.654   6.695  10.945 -0.0485  0.1011 -0.1513
   97OSM    HO3 9619   6.571   6.703  10.992 -0.6755  1.1081 -1.3794
   97OSM    C4S 9620   6.632   6.646  10.702 -0.5407 -0.2126  0.0287
   97OSM    H4S 9621   6.670   6.568  10.634  0.6709 -1.9510  2.5260
   97OSM    C5S 9622   6.634   6.772  10.663  0.3557 -0.2900 -0.0477
   97OSM    H5S 9623   6.603   6.854  10.730  1.5976  1.0083 -0.9990
   97OSM    C6S 9624   6.660   6.818  10.515 -0.5074  0.7701 -0.3547
   97OSM    H6S 9625   6.728   6.905  10.529  2.1710 -1.4890  1.8888
   97OSM    H6T 9626   6.568   6.850  10.461 -0.5732 -0.7420 -1.2044
   97OSM    C7S 9627   6.738   6.712  10.427 -0.5505 -0.8531 -0.0706
   97OSM    H7S 9628   6.660   6.636  10.405  0.2175 -1.7042  0.0729
   97OSM    H7T 9629   6.824   6.671  10.484  1.0451  1.0378 -1.0095
   97OSM    C8S 9630   6.789   6.775  10.302  0.5325  0.0155  0.5885
   97OSM    H8S 9631   6.853   6.701  10.249 -1.6880 -2.4796  1.1865
   97OSM    H8T 9632   6.848   6.866  10.329 -0.8134  1.8017 -1.9953
   97OSM    C9S 9633   6.681   6.835  10.216 -0.3394  0.3635 -0.5245
   97OSM    H9S 9634   6.609   6.914  10.247  1.3597  1.2329  1.3477
   97OSM    H9T 9635   6.602   6.758  10.202 -1.4613  1.2000  0.9254
   97OSM   C10S 9636   6.737   6.856  10.076  0.7361 -0.3701  0.6407
   97OSM   H10S 9637   6.760   6.752  10.044 -0.8618 -0.8926  1.0445
   97OSM   H10T 9638   6.832   6.913  10.076  1.4569 -1.3564 -2.6791
   97OSM   C11S 9639   6.626   6.906   9.974 -0.6566  0.0485  0.8237
   97OSM   H11S 9640   6.593   7.012   9.977 -1.0521 -0.0210 -0.3803
   97OSM   H11T 9641   6.540   6.836   9.983 -0.3022 -0.6701 -0.8678
   97OSM   C12S 9642   6.687   6.885   9.830  0.5489 -0.2326 -0.5728
   97OSM   H12S 9643   6.745   6.791   9.823  2.1869  0.3457  2.9588
   97OSM   H12T 9644   6.759   6.967   9.809 -1.8996  2.2941  0.2561
   97OSM   C13S 9645   6.584   6.880   9.721 -0.8917  0.2430 -0.0384
   97OSM   H13S 9646   6.541   6.982   9.724  0.1989  0.7359 -0.6437
   97OSM   H13T 9647   6.507   6.802   9.740  0.6846 -1.3066  0.3340
   97OSM   C14S 9648   6.654   6.859   9.588 -0.1326  0.0399  0.4268
   97OSM   H14S 9649   6.678   6.752   9.570 -0.0899 -0.0245  0.8622
   97OSM   H14T 9650   6.751   6.912   9.588 -0.4159  0.5785 -0.5448
   97OSM   C15S 9651   6.576   6.927   9.467  0.7069  0.6032  0.1522
   97OSM   H15S 9652   6.557   7.035   9.483  0.0348  0.3236  1.3367
   97OSM   H15T 9653   6.481   6.868   9.463  0.9812  0.1239 -3.8518
   97OSM   C16S 9654   6.646   6.913   9.333 -0.6611  0.2538  0.4010
   97OSM   H16S 9655   6.673   6.809   9.306  1.6493  0.9636 -0.3352
   97OSM   H16T 9656   6.744   6.965   9.341 -0.1457 -0.9888  3.4021
   97OSM   C17S 9657   6.567   6.976   9.218 -0.5909  0.3836 -0.1007
   97OSM   H17S 9658   6.625   6.971   9.123  1.1544  0.7141  0.9067
   97OSM   H17T 9659   6.550   7.083   9.242 -3.2311  0.2655 -1.0987
   97OSM   C18S 9660   6.430   6.911   9.198 -0.6789  0.1197  0.4659
   97OSM   H18S 9661   6.351   6.961   9.259 -1.4444 -1.9763  1.2966
   97OSM   H18T 9662   6.433   6.802   9.221  0.2117 -0.6952 -2.9284
   97OSM   H18U 9663   6.408   6.914   9.089 -0.9722 -1.8409  0.4367
   97OSM    C1F 9664   6.306   6.415  10.728 -0.0207  0.1341  0.4382
   97OSM     OF 9665   6.220   6.506  10.725 -0.0577  0.1676 -0.2387
   97OSM    C2F 9666   6.282   6.279  10.676  0.7411 -0.4156  0.4639
   97OSM    H2F 9667   6.212   6.230  10.748  0.7418  0.6056  1.1947
   97OSM    H2G 9668   6.374   6.218  10.664  0.5464 -0.3086 -2.0318
   97OSM    C3F 9669   6.208   6.289  10.536  0.0151  0.3687 -0.6232
   97OSM    H3F 9670   6.284   6.333  10.467  0.1586  0.6487 -0.2900
   97OSM    H3G 9671   6.119   6.355  10.547  0.1043  0.1607  2.0010
   97OSM    C4F 9672   6.162   6.148  10.488 -0.3932  0.4771  0.1634
   97OSM    H4F 9673   6.079   6.112  10.552 -1.3215  0.1498 -1.1810
   97OSM    H4G 9674   6.250   6.081  10.492 -2.7268 -2.8836 -0.2202
   97OSM    C5F 9675   6.108   6.143  10.343  0.6888 -0.0035  0.7071
   97OSM    H5F 9676   6.172   6.163  10.254  0.5177 -0.8210  0.3906
   97OSM    H5G 9677   6.041   6.232  10.342  0.3517 -0.2569  0.4751
   97OSM    C6F 9678   6.026   6.010  10.321 -0.4172 -0.0316  0.0467
   97OSM    H6F 9679   5.953   6.020  10.239 -0.8385 -0.2893  0.3838
   97OSM    H6G 9680   5.965   5.985  10.411 -1.3851 -0.2861 -0.6687
   97OSM    C7F 9681   6.113   5.895  10.286 -0.0452 -0.1269  0.3091
   97OSM    H7F 9682   6.046   5.808  10.266 -1.3925  0.7916  0.7396
   97OSM    H7G 9683   6.179   5.878  10.374 -1.3026 -0.7714  1.1472
   97OSM    C8F 9684   6.196   5.906  10.158 -0.4878  0.2645  0.7515
   97OSM    H8F 9685   6.246   5.808  10.143  1.1496  0.7355  2.6505
   97OSM    H8G 9686   6.278   5.979  10.173 -0.3285  0.3209 -0.3585
   97OSM    C9F 9687   6.112   5.956  10.041 -0.4287  0.9756 -0.1372
   97OSM    H9F 9688   6.010   5.916  10.034  0.5156 -1.9166  0.9403
   97OSM   C10F 9689   6.161   6.041   9.948 -0.5246 -0.3108 -0.0267
   97OSM   H10F 9690   6.100   6.074   9.863 -0.3212 -1.0207 -0.4573
   97OSM   C11F 9691   6.299   6.110   9.945 -0.0343 -0.3132 -0.2477
   97OSM   H11F 9692   6.366   6.091  10.032  0.5885  0.9487 -0.4349
   97OSM   H11G 9693   6.281   6.219   9.939 -2.8556 -0.6525  0.5397
   97OSM   C12F 9694   6.364   6.057   9.821  0.0915  1.0788 -0.3405
   97OSM   H12F 9695   6.353   5.947   9.830 -0.6713  1.1049 -0.8518
   97OSM   H12G 9696   6.470   6.086   9.836  0.0442  0.2383  1.8618
   97OSM   C13F 9697   6.316   6.097   9.676 -0.0868  0.3675  0.1245
   97OSM   H13F 9698   6.317   6.209   9.677  3.3282  0.4240  1.6588
   97OSM   H13G 9699   6.216   6.062   9.642  0.8141 -0.0331 -2.2562
   97OSM   C14F 9700   6.424   6.062   9.570 -0.4363  0.1296  0.3633
   97OSM   H14F 9701   6.469   5.966   9.603 -1.8276 -1.0363 -1.0245
   97OSM   H14G 9702   6.510   6.133   9.578  0.6982 -1.2310  0.6417
   97OSM   C15F 9703   6.368   6.055   9.427  0.2726  0.7509 -0.4075
   97OSM   H15F 9704   6.291   6.132   9.405 -0.7964 -0.5260 -1.2262
   97OSM   H15G 9705   6.305   5.964   9.425  1.1544  0.1437 -1.1007
   97OSM   C16F 9706   6.476   6.051   9.310 -0.5696  0.3266  0.2658
   97OSM   H16F 9707   6.552   5.972   9.329 -0.1105  1.0993  1.7687
   97OSM   H16G 9708   6.521   6.152   9.303  3.2462 -1.1286  1.3240
   97OSM   C17F 9709   6.404   6.030   9.174  0.1468  0.4866  0.4738
   97OSM   H17F 9710   6.322   6.104   9.184 -0.4903 -0.1970  0.4898
   97OSM   H17G 9711   6.346   5.934   9.180  0.9904  0.0145  1.4447
   97OSM   C18F 9712   6.483   6.053   9.049  0.0103 -0.1895 -0.1536
   97OSM   H18F 9713   6.430   6.020   8.957  1.5221 -1.8779 -0.4717
   97OSM   H18G 9714   6.585   6.010   9.047  1.2446  2.4114  1.8864
   97OSM   H18H 9715   6.503   6.162   9.046  3.9490 -0.7801 -0.6268
   98OSM      N 9716   5.972   5.598  11.273  0.7479  0.7572 -0.0921
   98OSM    C15 9717   6.092   5.529  11.211  0.6421 -0.2398 -0.9491
   98OSM   H15A 9718   6.075   5.483  11.115 -0.7951  0.1475 -0.8997
   98OSM   H15B 9719   6.132   5.457  11.280 -0.1390 -0.6135 -0.8849
   98OSM   H15C 9720   6.180   5.591  11.201  1.4838 -1.0725  0.9317
   98OSM    C14 9721   5.852   5.507  11.263 -0.2961  0.2384 -0.4761
   98OSM   H14A 9722   5.833   5.472  11.163 -0.5649  0.4584 -0.5042
   98OSM   H14B 9723   5.762   5.557  11.297  0.0110  0.9495 -0.7065
   98OSM   H14C 9724   5.867   5.409  11.305 -1.7523 -0.9451 -2.5472
   98OSM    C13 9725   6.004   5.603  11.418 -0.1156 -0.2727 -0.4359
   98OSM   H13A 9726   5.922   5.638  11.478  0.8273 -0.9901  1.3486
   98OSM   H13B 9727   6.097   5.656  11.438 -0.4079 -0.4122  1.4605
   98OSM   H13C 9728   6.027   5.505  11.457 -1.7780 -2.2706 -4.0077
   98OSM    C12 9729   5.949   5.730  11.219  0.2178 -0.0638  0.2762
   98OSM   H12A 9730   6.026   5.801  11.242 -0.1404 -0.0059  1.3522
   98OSM   H12B 9731   5.854   5.768  11.255 -0.6029 -2.3532  0.7476
   98OSM    C11 9732   5.924   5.742  11.064 -0.2137  0.2285  0.0009
   98OSM   H11A 9733   5.990   5.672  11.009 -1.6788 -2.3103  1.2999
   98OSM   H11B 9734   5.939   5.850  11.044  2.4669  0.1979  1.3306
   98OSM      P 9735   5.753   5.655  10.890 -0.0900  0.5176 -0.1049
   98OSM    O13 9736   5.805   5.519  10.857  0.4135 -0.0330  0.3179
   98OSM    O14 9737   5.609   5.662  10.889  0.1002  0.3625  0.3161
   98OSM    O11 9738   5.810   5.762  10.795  0.4000  0.4711  0.3536
   98OSM    O12 9739   5.792   5.701  11.040 -0.0527  0.2392  0.0018
   98OSM    C1S 9740   5.734   5.879  10.765 -0.5586 -0.1124 -0.7023
   98OSM    H1S 9741   5.783   5.966  10.814  0.3400 -1.6050  1.1631
   98OSM    H1T 9742   5.629   5.879  10.800  0.0624 -0.0914  1.2996
   98OSM     NF 9743   5.678   6.048  10.598  0.2069  0.0455  0.1976
   98OSM    HNF 9744   5.584   6.068  10.575  0.1246  0.6431  1.0368
   98OSM    C2S 9745   5.722   5.908  10.616 -0.5721 -0.3485  0.3486
   98OSM    H2S 9746   5.823   5.905  10.570 -1.4969  0.8100 -1.9590
   98OSM    C3S 9747   5.636   5.797  10.545  0.0862  0.0478  0.3419
   98OSM    H3S 9748   5.539   5.785  10.597 -0.1720 -2.6489 -0.6162
   98OSM     O3 9749   5.697   5.662  10.536 -0.1146 -0.1272 -0.1935
   98OSM    HO3 9750   5.764   5.656  10.604 -0.5574  1.4750  0.4343
   98OSM    C4S 9751   5.596   5.845  10.410  0.1354  0.1327 -0.5351
   98OSM    H4S 9752   5.509   5.912  10.404 -0.9461 -1.3285 -2.5817
   98OSM    C5S 9753   5.657   5.806  10.293 -0.2241  0.1320 -0.0864
   98OSM    H5S 9754   5.729   5.723  10.296 -2.2327 -1.6757  0.4214
   98OSM    C6S 9755   5.623   5.841  10.147  0.5254  0.4585  0.1132
   98OSM    H6S 9756   5.614   5.749  10.085  0.1092  0.6005 -0.0372
   98OSM    H6T 9757   5.696   5.913  10.104  1.9707 -1.1131 -0.1622
   98OSM    C7S 9758   5.486   5.918  10.139 -0.4669 -0.0719 -0.3476
   98OSM    H7S 9759   5.491   6.001  10.212  0.2512 -0.7141  0.3481
   98OSM    H7T 9760   5.408   5.851  10.183 -1.1888  1.0305  0.1144
   98OSM    C8S 9761   5.452   5.968   9.992  0.2099  0.2787  0.0623
   98OSM    H8S 9762   5.536   6.026   9.948  0.0113  0.7028  0.2375
   98OSM    H8T 9763   5.372   6.044  10.001  0.0578 -0.0935  2.5088
   98OSM    C9S 9764   5.400   5.858   9.905 -0.5259  0.4897  0.7301
   98OSM    H9S 9765   5.295   5.877   9.875 -0.0485 -0.7750 -2.0592
   98OSM    H9T 9766   5.398   5.759   9.954  2.4241 -0.6632 -1.2388
   98OSM   C10S 9767   5.477   5.832   9.774  0.4792 -0.4622 -0.6092
   98OSM   H10S 9768   5.573   5.780   9.796  0.9745  0.6158 -0.1459
   98OSM   H10T 9769   5.506   5.927   9.726  1.9290  1.2872  3.3472
   98OSM   C11S 9770   5.400   5.737   9.676 -0.2479 -0.7322 -0.5352
   98OSM   H11S 9771   5.301   5.783   9.657  1.0267  1.5616 -2.3189
   98OSM   H11T 9772   5.398   5.631   9.708 -2.3650 -0.9625 -1.2741
   98OSM   C12S 9773   5.479   5.733   9.542  0.0105 -0.5972 -0.0963
   98OSM   H12S 9774   5.588   5.719   9.560  0.0179  1.3686  1.8477
   98OSM   H12T 9775   5.474   5.841   9.516  0.4013  0.0409  2.2507
   98OSM   C13S 9776   5.418   5.654   9.434 -0.1086 -0.4966  0.3272
   98OSM   H13S 9777   5.317   5.689   9.402 -0.4582 -1.7689  0.0007
   98OSM   H13T 9778   5.391   5.553   9.470 -0.6253 -0.4277  0.1554
   98OSM   C14S 9779   5.507   5.644   9.311 -0.3457  0.3150  0.1692
   98OSM   H14S 9780   5.610   5.625   9.348 -1.0748 -1.1163  1.5886
   98OSM   H14T 9781   5.496   5.739   9.255  0.1739 -1.5497 -3.4241
   98OSM   C15S 9782   5.457   5.535   9.209  0.5514 -0.1346 -0.6166
   98OSM   H15S 9783   5.349   5.510   9.208  1.0235 -2.3628 -1.9727
   98OSM   H15T 9784   5.511   5.438   9.217  0.4166 -0.1420  0.3765
   98OSM   C16S 9785   5.491   5.587   9.073  0.2055  0.0039 -0.1582
   98OSM   H16S 9786   5.600   5.613   9.078 -0.5119  3.3583  1.3735
   98OSM   H16T 9787   5.441   5.684   9.052  0.0430 -0.3359 -1.3873
   98OSM   C17S 9788   5.470   5.498   8.951  0.2800 -0.0427  0.1656
   98OSM   H17S 9789   5.362   5.480   8.927 -0.0903  1.8972  0.2396
   98OSM   H17T 9790   5.514   5.397   8.967  0.2484 -0.0903 -0.0405
   98OSM   C18S 9791   5.526   5.563   8.822  0.1314  0.0088 -0.3277
   98OSM   H18S 9792   5.632   5.596   8.835  0.0186 -0.0249  0.7855
   98OSM   H18T 9793   5.463   5.648   8.788  0.2054 -0.1514 -0.8843
   98OSM   H18U 9794   5.521   5.485   8.743 -2.0200  0.5967 -0.8403
   98OSM    C1F 9795   5.752   6.154  10.632  0.4189 -0.6640 -1.2552
   98OSM     OF 9796   5.866   6.144  10.678  0.8327  0.5267 -0.2699
   98OSM    C2F 9797   5.698   6.295  10.605 -0.3627 -0.4903  0.4062
   98OSM    H2F 9798   5.712   6.367  10.688 -2.7356  0.9493 -0.3299
   98OSM    H2G 9799   5.589   6.283  10.584 -0.0664 -1.0867 -0.8741
   98OSM    C3F 9800   5.756   6.360  10.475 -0.3227  0.8407  0.4051
   98OSM    H3F 9801   5.867   6.369  10.480 -0.1375  0.7714 -2.0175
   98OSM    H3G 9802   5.715   6.463  10.478  2.7094  2.1259  2.1883
   98OSM    C4F 9803   5.712   6.285  10.347  0.0324 -0.1849  0.8572
   98OSM    H4F 9804   5.601   6.274  10.343 -0.0938  0.2134  2.5410
   98OSM    H4G 9805   5.771   6.191  10.348  2.2058  1.0358 -1.2325
   98OSM    C5F 9806   5.755   6.348  10.213  0.0709 -0.5293 -0.0415
   98OSM    H5F 9807   5.866   6.347  10.213  0.0938  0.4963  0.5137
   98OSM    H5G 9808   5.739   6.458  10.222  0.5041 -0.4633 -0.0737
   98OSM    C6F 9809   5.701   6.287  10.083  0.7559  0.3862 -0.5195
   98OSM    H6F 9810   5.600   6.330  10.066  0.2448 -0.7443 -0.4297
   98OSM    H6G 9811   5.682   6.178  10.094 -0.1655  0.5609 -0.3232
   98OSM    C7F 9812   5.800   6.324   9.976 -0.0536  0.0332 -0.6437
   98OSM    H7F 9813   5.897   6.283  10.011  0.3669 -0.0157 -1.8252
   98OSM    H7G 9814   5.804   6.434   9.960 -1.9428  1.1014  4.2362
   98OSM    C8F 9815   5.756   6.256   9.838 -0.2621  0.3703  0.2471
   98OSM    H8F 9816   5.662   6.308   9.810 -0.5274  0.1401  0.6998
   98OSM    H8G 9817   5.721   6.153   9.862 -1.7955  1.1827  1.6822
   98OSM    C9F 9818   5.860   6.256   9.732  0.5171  0.5493 -0.0125
   98OSM    H9F 9819   5.918   6.349   9.724  0.8929  0.2756 -0.5898
   98OSM   C10F 9820   5.883   6.158   9.647 -0.0706 -0.0879  0.2113
   98OSM   H10F 9821   5.966   6.160   9.575  2.3270 -2.9049  2.6449
   98OSM   C11F 9822   5.807   6.026   9.639 -0.6145 -0.9389  0.4984
   98OSM   H11F 9823   5.703   6.033   9.678 -1.0165  2.0795 -0.8298
   98OSM   H11G 9824   5.861   5.945   9.692 -0.2745 -1.8884 -1.2195
   98OSM   C12F 9825   5.785   5.976   9.499 -0.1059 -0.0433 -0.0301
   98OSM   H12F 9826   5.726   6.054   9.447 -1.3189 -1.4783 -0.8686
   98OSM   H12G 9827   5.719   5.887   9.507 -0.9642  0.5512 -0.3963
   98OSM   C13F 9828   5.904   5.953   9.411  0.3450 -0.0069  0.0239
   98OSM   H13F 9829   5.980   5.905   9.475  0.2925  0.3087  0.3236
   98OSM   H13G 9830   5.945   6.055   9.390 -0.3100  0.6261  1.6354
   98OSM   C14F 9831   5.883   5.873   9.281  0.8245 -0.6180 -0.2193
   98OSM   H14F 9832   5.799   5.927   9.232  0.3106 -1.6296 -0.4805
   98OSM   H14G 9833   5.857   5.769   9.311  1.4484 -0.6830  0.1202
   98OSM   C15F 9834   6.008   5.882   9.200  0.1714  0.1010  0.0827
   98OSM   H15F 9835   6.081   5.823   9.259  1.5823  1.0477 -0.6782
   98OSM   H15G 9836   6.038   5.988   9.192  0.6843 -0.0834 -0.4907
   98OSM   C16F 9837   5.999   5.821   9.056  0.2277 -0.4779  0.2790
   98OSM   H16F 9838   5.926   5.887   9.005  0.5278 -0.3527  0.0143
   98OSM   H16G 9839   5.958   5.719   9.073 -0.9363  0.1866  1.7290
   98OSM   C17F 9840   6.131   5.811   8.980  0.1407 -0.5449 -0.2204
   98OSM   H17F 9841   6.199   5.752   9.045  1.8217  2.3083  0.7697
   98OSM   H17G 9842   6.175   5.912   8.969 -1.3005  0.0562 -0.7285
   98OSM   C18F 9843   6.110   5.740   8.846 -0.0759 -0.3968 -0.0112
   98OSM   H18F 9844   6.046   5.808   8.785  0.7213 -0.5380 -1.0268
   98OSM   H18G 9845   6.054   5.646   8.867  0.8912 -1.1554 -0.7454
   98OSM   H18H 9846   6.209   5.726   8.798 -0.0511  1.0830 -0.4575
   99OSM      N 9847   0.135   2.672  11.250 -0.6301 -0.2771  0.0281
   99OSM    C15 9848   0.158   2.775  11.358  0.0116  0.4082  0.6024
   99OSM   H15A 9849   0.064   2.799  11.405 -0.0310 -1.6290  1.6932
   99OSM   H15B 9850   0.201   2.865  11.318 -1.2351 -0.6097 -3.4336
   99OSM   H15C 9851   0.234   2.742  11.428  0.2126 -0.1454  0.1279
   99OSM    C14 9852   0.108   2.535  11.316  0.3022  0.6610 -0.2329
   99OSM   H14A 9853   0.185   2.514  11.389 -0.2840 -1.0637 -0.0748
   99OSM   H14B 9854   0.110   2.456  11.243  0.5672 -1.0653  1.5597
   99OSM   H14C 9855   0.008   2.531  11.357  0.4232  3.0500  0.4503
   99OSM    C13 9856   0.015   2.724  11.188  0.7928  0.1545  0.2523
   99OSM   H13A 9857   0.028   2.821  11.142 -1.0262  1.2913  1.9590
   99OSM   H13B 9858  -0.064   2.740  11.260  0.4793 -0.1790 -0.0132
   99OSM   H13C 9859  -0.017   2.662  11.105  1.7544  1.1066 -0.8698
   99OSM    C12 9860   0.255   2.650  11.156  0.4862  0.1393 -0.3208
   99OSM   H12A 9861   0.340   2.597  11.195  0.5341 -0.2087 -0.8896
   99OSM   H12B 9862   0.285   2.748  11.120 -0.5773  0.6154  0.0157
   99OSM    C11 9863   0.220   2.555  11.028 -0.7253  0.4608  0.0772
   99OSM   H11A 9864   0.182   2.457  11.065  0.8558  0.3153  1.4476
   99OSM   H11B 9865   0.315   2.544  10.970 -0.1660  0.7069  0.9280
   99OSM      P 9866   0.145   2.726  10.851  0.1267 -0.0467  0.2567
   99OSM    O13 9867   0.023   2.763  10.780 -0.1874 -0.1088 -0.1265
   99OSM    O14 9868   0.201   2.827  10.938  0.5248 -0.0232  0.0649
   99OSM    O11 9869   0.250   2.673  10.754 -0.7514 -0.3840 -0.2108
   99OSM    O12 9870   0.113   2.605  10.946 -0.4958  0.0760 -0.0239
   99OSM    C1S 9871   0.262   2.542  10.701 -0.2508  1.1140  0.3760
   99OSM    H1S 9872   0.185   2.472  10.741 -0.8557  1.5640  0.0226
   99OSM    H1T 9873   0.361   2.500  10.731  1.5116  3.7445 -1.3366
   99OSM     NF 9874   0.260   2.416  10.489  0.8663 -0.0772  0.7419
   99OSM    HNF 9875   0.337   2.355  10.472  0.1814 -0.9811  0.7940
   99OSM    C2S 9876   0.283   2.546  10.545  0.1430  0.2488 -0.2866
   99OSM    H2S 9877   0.206   2.617  10.508  0.2569  0.6328  0.2049
   99OSM    C3S 9878   0.421   2.603  10.520 -0.2381  0.2882  0.2752
   99OSM    H3S 9879   0.504   2.549  10.571  0.7904  3.1210  1.8066
   99OSM     O3 9880   0.444   2.741  10.552  0.5920 -0.0989 -0.2385
   99OSM    HO3 9881   0.367   2.772  10.600  1.2233 -1.2391  1.5965
   99OSM    C4S 9882   0.449   2.602  10.368  0.3304 -0.0854  0.0279
   99OSM    H4S 9883   0.371   2.654  10.310  0.5748 -0.4105 -0.6088
   99OSM    C5S 9884   0.555   2.538  10.310  0.0998 -1.0774 -0.1195
   99OSM    H5S 9885   0.620   2.475  10.371 -1.0497 -0.5530  1.7244
   99OSM    C6S 9886   0.586   2.543  10.163 -0.3789  0.4127  0.1375
   99OSM    H6S 9887   0.512   2.603  10.105 -1.2336 -0.0185  0.7534
   99OSM    H6T 9888   0.590   2.447  10.107  2.0635  1.9259 -2.5175
   99OSM    C7S 9889   0.728   2.600  10.143  0.2589  0.4147  1.1146
   99OSM    H7S 9890   0.792   2.549  10.218  1.0402 -2.1242 -1.1557
   99OSM    H7T 9891   0.725   2.706  10.177 -0.4787  1.0490 -0.7841
   99OSM    C8S 9892   0.763   2.591   9.999  0.1420  0.0075 -0.7133
   99OSM    H8S 9893   0.674   2.613   9.935 -1.3937  1.1347  1.6825
   99OSM    H8T 9894   0.778   2.482   9.985 -2.3390 -0.7589  1.7405
   99OSM    C9S 9895   0.869   2.679   9.964 -0.2961 -0.5399  0.2132
   99OSM    H9S 9896   0.946   2.655  10.041 -1.9453 -1.4426  1.6437
   99OSM    H9T 9897   0.841   2.787   9.971  2.3931  0.3066 -0.6622
   99OSM   C10S 9898   0.925   2.654   9.818 -0.7361  0.1119 -0.4303
   99OSM   H10S 9899   0.957   2.547   9.816 -0.1972  0.0799  3.1866
   99OSM   H10T 9900   1.006   2.727   9.799 -0.0547 -0.2206  1.0173
   99OSM   C11S 9901   0.825   2.675   9.704 -0.2184 -0.2081  0.2459
   99OSM   H11S 9902   0.776   2.775   9.699 -0.4019 -0.1534  2.2115
   99OSM   H11T 9903   0.749   2.595   9.711  0.0213 -0.4547  0.0653
   99OSM   C12S 9904   0.890   2.658   9.560  0.5405 -0.3764  0.3099
   99OSM   H12S 9905   0.983   2.715   9.540 -0.3753  0.6813 -1.0744
   99OSM   H12T 9906   0.916   2.551   9.543  1.4981 -0.2951  1.1428
   99OSM   C13S 9907   0.789   2.701   9.456  0.4496 -0.2132 -0.5859
   99OSM   H13S 9908   0.784   2.811   9.450 -0.4466 -0.3196 -3.8824
   99OSM   H13T 9909   0.684   2.677   9.485  0.9703 -0.1373  1.5142
   99OSM   C14S 9910   0.822   2.651   9.317 -0.6818 -0.6267 -0.6315
   99OSM   H14S 9911   0.818   2.541   9.304 -0.4373 -0.5323 -1.5520
   99OSM   H14T 9912   0.930   2.672   9.306 -0.4346  0.2991  2.6370
   99OSM   C15S 9913   0.725   2.705   9.205  0.3601 -0.1454 -0.0849
   99OSM   H15S 9914   0.734   2.815   9.193 -1.0160 -0.0260 -0.1912
   99OSM   H15T 9915   0.622   2.682   9.239  0.5899  0.8419  1.3738
   99OSM   C16S 9916   0.743   2.627   9.074 -0.9651 -0.0032  0.8468
   99OSM   H16S 9917   0.673   2.676   9.003 -3.1171 -1.4523  1.8599
   99OSM   H16T 9918   0.721   2.518   9.083  1.7421 -0.5955  1.2938
   99OSM   C17S 9919   0.890   2.630   9.018  0.4926 -0.2760  0.1747
   99OSM   H17S 9920   0.960   2.591   9.095 -0.5111 -1.8491  0.3329
   99OSM   H17T 9921   0.909   2.738   9.000  0.1617 -0.5020 -1.6930
   99OSM   C18S 9922   0.911   2.554   8.891 -0.7546  0.4069  0.1910
   99OSM   H18S 9923   0.875   2.450   8.912  0.2002 -0.5430 -2.5386
   99OSM   H18T 9924   1.016   2.543   8.858 -1.4455 -2.7152 -1.3576
   99OSM   H18U 9925   0.850   2.597   8.809 -0.9173  1.1836  0.7057
   99OSM    C1F 9926   0.138   2.363  10.486  0.2816 -0.4243 -0.4423
   99OSM     OF 9927   0.037   2.423  10.503 -0.0912 -0.3306  0.5320
   99OSM    C2F 9928   0.128   2.211  10.486  0.0838 -0.1833  0.2277
   99OSM    H2F 9929   0.151   2.166  10.585  0.5577 -0.7310 -0.1230
   99OSM    H2G 9930   0.204   2.171  10.414 -1.5582  0.5800 -2.0553
   99OSM    C3F 9931  -0.011   2.157  10.429  0.1433  0.2448 -0.2784
   99OSM    H3F 9932  -0.093   2.192  10.495 -0.0686 -0.8989  0.0764
   99OSM    H3G 9933  -0.034   2.200  10.328 -0.4984  0.9359  0.1447
   99OSM    C4F 9934  -0.013   2.002  10.412  0.0303  0.6616 -0.3728
   99OSM    H4F 9935  -0.119   1.972  10.399 -0.6184  2.5589  0.1306
   99OSM    H4G 9936   0.017   1.949  10.505  0.1835  1.0146 -0.2168
   99OSM    C5F 9937   0.074   1.937  10.308  0.3975 -0.0057 -0.4844
   99OSM    H5F 9938   0.168   1.995  10.314  0.1003  0.7052 -2.2034
   99OSM    H5G 9939   0.055   1.962  10.202  0.8690  0.3902 -0.4791
   99OSM    C6F 9940   0.109   1.791  10.333  0.3256  0.5476 -1.1060
   99OSM    H6F 9941   0.074   1.752  10.431 -0.2744 -1.7192 -2.1403
   99OSM    H6G 9942   0.219   1.778  10.339  0.1992  0.0319  2.4204
   99OSM    C7F 9943   0.043   1.701  10.225  0.7683  0.0680 -0.0708
   99OSM    H7F 9944   0.087   1.721  10.125 -1.1853  2.1010 -0.6027
   99OSM    H7G 9945  -0.063   1.733  10.220  0.7720 -0.0709 -1.2117
   99OSM    C8F 9946   0.046   1.546  10.266 -0.1235  0.8330 -0.1328
   99OSM    H8F 9947  -0.019   1.497  10.190 -1.1843  1.8305  0.1076
   99OSM    H8G 9948   0.006   1.530  10.368  0.7850 -0.0387  0.0966
   99OSM    C9F 9949   0.183   1.474  10.256  0.1270 -0.3069 -0.3296
   99OSM    H9F 9950   0.212   1.428  10.351 -2.6318 -0.8797  0.3157
   99OSM   C10F 9951   0.265   1.471  10.147 -0.5881  0.0486 -0.0147
   99OSM   H10F 9952   0.361   1.419  10.155 -0.2356  0.4010 -1.6315
   99OSM   C11F 9953   0.246   1.527  10.005 -0.1173  0.1125  0.5090
   99OSM   H11F 9954   0.143   1.569   9.993 -0.2207 -0.0209  0.8969
   99OSM   H11G 9955   0.246   1.444   9.932 -0.1634 -1.4288  2.1816
   99OSM   C12F 9956   0.361   1.626   9.957 -0.0273  0.8782  0.1952
   99OSM   H12F 9957   0.454   1.564   9.963 -0.4577  0.3348  1.8833
   99OSM   H12G 9958   0.367   1.706  10.034 -0.7726  0.1958  0.9780
   99OSM   C13F 9959   0.346   1.677   9.818 -0.0712  0.1634  1.2576
   99OSM   H13F 9960   0.325   1.604   9.736 -0.1276  5.0357 -3.7075
   99OSM   H13G 9961   0.446   1.715   9.787 -0.8690 -0.0235 -1.8859
   99OSM   C14F 9962   0.247   1.798   9.814  0.3568  0.0214 -0.5605
   99OSM   H14F 9963   0.270   1.861   9.903 -0.0532  0.2488 -0.6114
   99OSM   H14G 9964   0.146   1.760   9.836  0.4418  0.2944  0.3483
   99OSM   C15F 9965   0.244   1.888   9.694  0.2371 -0.3245 -0.3802
   99OSM   H15F 9966   0.345   1.910   9.654  0.1733 -0.2768 -0.5171
   99OSM   H15G 9967   0.202   1.986   9.726  1.4933  0.0270  0.2596
   99OSM   C16F 9968   0.158   1.841   9.570 -0.0777 -0.6304  0.0542
   99OSM   H16F 9969   0.054   1.841   9.610  0.0376 -0.9316  0.3617
   99OSM   H16G 9970   0.188   1.737   9.546  1.6752  0.1546 -1.3369
   99OSM   C17F 9971   0.170   1.926   9.447 -0.0577 -0.3867  0.4464
   99OSM   H17F 9972   0.276   1.923   9.416 -0.6345 -1.7528 -1.5974
   99OSM   H17G 9973   0.141   2.032   9.465  0.5659  0.6782 -3.6289
   99OSM   C18F 9974   0.079   1.875   9.332  0.0796  0.4440  0.1306
   99OSM   H18F 9975   0.086   1.764   9.336  2.9890  0.5758  0.8102
   99OSM   H18G 9976   0.101   1.926   9.236 -4.3842  0.7125 -0.9483
   99OSM   H18H 9977  -0.027   1.901   9.352  0.4147  0.3690  2.2572
  100OSM      N 9978   2.197   2.536  10.970  0.6568  0.0916  0.2451
  100OSM    C15 9979   2.165   2.670  11.023 -0.5631  0.1050 -0.5545
  100OSM   H15A 9980   2.248   2.738  11.033 -1.2264  1.1172 -1.6858
  100OSM   H15B 9981   2.115   2.672  11.119  2.6428 -0.0103  1.2637
  100OSM   H15C 9982   2.092   2.719  10.961 -1.9495 -1.3234 -0.1339
  100OSM    C14 9983   2.309   2.479  11.052 -0.1088  0.1456  0.3661
  100OSM   H14A 9984   2.299   2.507  11.156 -0.0292 -0.3841  0.5176
  100OSM   H14B 9985   2.401   2.525  11.017 -0.8504  1.9529  0.6740
  100OSM   H14C 9986   2.310   2.371  11.050  3.9550  0.0199 -0.1260
  100OSM    C13 9987   2.076   2.445  11.016  0.1682 -0.3645 -0.0689
  100OSM   H13A 9988   1.978   2.485  10.995 -0.1181 -0.8118  0.4070
  100OSM   H13B 9989   2.068   2.434  11.123 -0.3072  2.0413  0.1980
  100OSM   H13C 9990   2.080   2.348  10.968 -1.1398 -0.7638  0.6070
  100OSM    C12 9991   2.209   2.536  10.821  0.3638 -0.0888  0.0084
  100OSM   H12A 9992   2.272   2.616  10.787 -0.7630  0.8859  0.1351
  100OSM   H12B 9993   2.112   2.571  10.787  0.9505  1.1128 -0.4787
  100OSM    C11 9994   2.253   2.413  10.741 -0.2691  0.6726  0.2342
  100OSM   H11A 9995   2.240   2.430  10.632 -1.0055  0.8658  0.3457
  100OSM   H11B 9996   2.171   2.343  10.769  1.3966 -1.0823  0.8797
  100OSM      P 9997   2.508   2.398  10.727 -0.2593 -0.1624 -0.1685
  100OSM    O13 9998   2.572   2.501  10.814 -0.8012  0.5035  0.3507
  100OSM    O14 9999   2.589   2.280  10.710  0.6351  0.1756  0.4711
  100OSM    O1110000   2.479   2.468  10.586 -0.0164 -0.3728 -0.3350
  100OSM    O1210001   2.369   2.352  10.784  0.1265  0.1154  0.0585
  100OSM    C1S10002   2.582   2.530  10.508 -1.5093 -0.5425  0.0327
  100OSM    H1S10003   2.685   2.497  10.533 -0.9800  1.7892  1.1937
  100OSM    H1T10004   2.570   2.637  10.534  1.0603  0.0592 -0.9372
  100OSM     NF10005   2.676   2.545  10.278  0.7409  0.3814 -0.4183
  100OSM    HNF10006   2.665   2.638  10.244  0.9808  1.0696  1.2691
  100OSM    C2S10007   2.563   2.508  10.351  0.1010 -0.2251  0.1027
  100OSM    H2S10008   2.550   2.398  10.336  0.0480 -0.1891 -0.1230
  100OSM    C3S10009   2.429   2.581  10.317  0.8261 -0.6674 -0.4439
  100OSM    H3S10010   2.437   2.681  10.365  0.3818 -1.2768  0.9582
  100OSM     O310011   2.318   2.516  10.375 -0.0401  0.7029  0.2503
  100OSM    HO310012   2.349   2.463  10.448 -0.2177  1.3539  0.8043
  100OSM    C4S10013   2.401   2.591  10.172  0.5659 -0.3873 -0.2073
  100OSM    H4S10014   2.390   2.494  10.120 -0.7064  0.2808 -1.2656
  100OSM    C5S10015   2.389   2.711  10.108 -0.2953 -1.1057 -0.9849
  100OSM    H5S10016   2.398   2.807  10.161 -1.1279 -1.1210 -0.7991
  100OSM    C6S10017   2.379   2.726   9.957  0.4287  0.0705 -0.1323
  100OSM    H6S10018   2.451   2.803   9.924  1.2661  0.5558  2.5825
  100OSM    H6T10019   2.277   2.760   9.927  0.3833  0.5300  0.5248
  100OSM    C7S10020   2.414   2.598   9.881 -0.4152  0.3374 -0.1228
  100OSM    H7S10021   2.345   2.517   9.914 -0.4891  0.7859  0.8777
  100OSM    H7T10022   2.515   2.559   9.906 -0.9095  0.1287  1.7616
  100OSM    C8S10023   2.387   2.606   9.729 -0.5003  0.2151 -0.5289
  100OSM    H8S10024   2.427   2.690   9.668 -1.6432  0.2250 -1.2712
  100OSM    H8T10025   2.276   2.607   9.732 -0.5093  0.8914 -0.9161
  100OSM    C9S10026   2.437   2.471   9.677 -0.1122  0.0026  0.2009
  100OSM    H9S10027   2.387   2.388   9.731  0.4923  0.9470  2.3319
  100OSM    H9T10028   2.545   2.450   9.692 -0.4936 -1.0821  1.6239
  100OSM   C10S10029   2.395   2.456   9.527  0.2519 -0.2724 -0.4246
  100OSM   H10S10030   2.296   2.503   9.509  0.6858  1.1611  0.7113
  100OSM   H10T10031   2.385   2.350   9.496  0.1113 -0.6174  0.7367
  100OSM   C11S10032   2.489   2.518   9.430 -0.3244 -0.5957 -0.5001
  100OSM   H11S10033   2.571   2.444   9.419 -0.5143 -0.5089 -3.2793
  100OSM   H11T10034   2.527   2.612   9.475  0.2370  0.0850 -2.3119
  100OSM   C12S10035   2.435   2.520   9.292  0.0300  0.2867  0.2263
  100OSM   H12S10036   2.350   2.591   9.298 -0.0618  0.0738  1.9010
  100OSM   H12T10037   2.400   2.416   9.274  2.2033 -0.5784  0.6528
  100OSM   C13S10038   2.534   2.556   9.178  0.2589  0.6489 -0.4212
  100OSM   H13S10039   2.616   2.481   9.183 -0.4606 -0.1851 -0.8305
  100OSM   H13T10040   2.595   2.648   9.191  0.8307  0.2748 -0.4047
  100OSM   C14S10041   2.481   2.560   9.034  0.0585 -0.0316 -0.1007
  100OSM   H14S10042   2.416   2.473   9.012 -0.9525  0.9408 -1.0639
  100OSM   H14T10043   2.576   2.565   8.977  0.6388 -1.2265  0.7086
  100OSM   C15S10044   2.395   2.690   9.001  0.2153  0.2054 -0.3264
  100OSM   H15S10045   2.447   2.776   9.049  1.6452  0.2287 -1.8434
  100OSM   H15T10046   2.303   2.688   9.063 -0.3736  0.3670 -1.1815
  100OSM   C16S10047   2.359   2.707   8.857  0.2991  0.0746  0.6769
  100OSM   H16S10048   2.299   2.618   8.828  0.3769  0.4027 -0.5112
  100OSM   H16T10049   2.453   2.707   8.799  0.6800  1.0758  1.2746
  100OSM   C17S10050   2.261   2.826   8.833  0.8960 -0.0353  0.3133
  100OSM   H17S10051   2.300   2.918   8.880 -0.5409  1.3520 -1.1038
  100OSM   H17T10052   2.168   2.797   8.885  0.3851 -1.1598 -1.1464
  100OSM   C18S10053   2.228   2.863   8.688  0.0170  0.5158 -0.0351
  100OSM   H18S10054   2.204   2.771   8.630  0.3765  0.2262  0.2692
  100OSM   H18T10055   2.317   2.909   8.641  0.3995 -1.2804 -1.1614
  100OSM   H18U10056   2.136   2.924   8.680  0.0187  0.4416 -0.6268
  100OSM    C1F10057   2.792   2.485  10.287  1.3212  0.4472  0.0955
  100OSM     OF10058   2.786   2.380  10.349  0.3984  0.0453  0.1980
  100OSM    C2F10059   2.911   2.537  10.220  0.8070  0.3488 -0.0992
  100OSM    H2F10060   2.980   2.592  10.287  1.0076 -1.5637  1.3548
  100OSM    H2G10061   2.874   2.599  10.135  0.6180  0.5791  0.1468
  100OSM    C3F10062   2.983   2.419  10.152 -0.5520  0.0416  0.1343
  100OSM    H3F10063   2.911   2.374  10.080 -0.8057 -0.8692  0.9420
  100OSM    H3G10064   3.021   2.339  10.218  0.4677  0.1418 -0.3016
  100OSM    C4F10065   3.114   2.455  10.083 -0.0129  0.0261 -0.1946
  100OSM    H4F10066   3.148   2.353  10.057 -1.1890 -0.1628 -1.0387
  100OSM    H4G10067   3.183   2.503  10.156  0.9254  0.7766 -1.5279
  100OSM    C5F10068   3.103   2.540   9.956 -0.2502  0.5087 -0.3628
  100OSM    H5F10069   3.201   2.562   9.909  0.1910 -3.0182 -1.3486
  100OSM    H5G10070   3.064   2.642   9.980  0.0263  0.7407 -0.8811
  100OSM    C6F10071   3.014   2.478   9.843 -0.1758 -0.3975 -0.1597
  100OSM    H6F10072   2.908   2.485   9.876  0.1756  0.7421  0.7920
  100OSM    H6G10073   3.032   2.368   9.835 -0.9782 -0.4036 -3.2327
  100OSM    C7F10074   3.029   2.555   9.707 -0.5218 -0.1183 -0.5042
  100OSM    H7F10075   3.072   2.656   9.725 -0.3531 -0.2304 -0.2793
  100OSM    H7G10076   2.928   2.578   9.669 -0.2172  0.3032 -1.0811
  100OSM    C8F10077   3.111   2.483   9.601 -0.8644 -0.0122  0.2039
  100OSM    H8F10078   3.197   2.426   9.640  2.0576  1.2162 -3.7535
  100OSM    H8G10079   3.167   2.550   9.532  1.5161 -1.3222  0.7411
  100OSM    C9F10080   3.026   2.386   9.522  0.5188  0.4856  0.3097
  100OSM    H9F10081   2.998   2.294   9.576  1.5454  0.5228  0.9475
  100OSM   C10F10082   2.993   2.406   9.395 -0.1487  0.6465  0.1515
  100OSM   H10F10083   2.924   2.338   9.342 -0.0532  1.0044 -0.4429
  100OSM   C11F10084   3.024   2.535   9.313  0.2076  0.1918  0.4104
  100OSM   H11F10085   3.043   2.617   9.385 -0.6309 -0.3433  1.2631
  100OSM   H11G10086   2.939   2.553   9.245 -0.0470 -1.1275  0.3368
  100OSM   C12F10087   3.144   2.526   9.213  0.6151  0.3334 -0.1890
  100OSM   H12F10088   3.237   2.539   9.273  0.6079  1.5625 -0.4125
  100OSM   H12G10089   3.150   2.599   9.130 -3.9021 -1.6459 -2.5656
  100OSM   C13F10090   3.169   2.389   9.160  0.0719  0.3534  0.2255
  100OSM   H13F10091   3.165   2.318   9.246  1.3672 -2.1192 -1.6294
  100OSM   H13G10092   3.274   2.390   9.124  0.5453  4.2381  1.2319
  100OSM   C14F10093   3.075   2.342   9.044  0.6276 -0.5041  0.2541
  100OSM   H14F10094   3.061   2.415   8.962  0.4454 -1.4275 -0.5600
  100OSM   H14G10095   2.972   2.327   9.084  1.3695  0.8570  2.9269
  100OSM   C15F10096   3.114   2.209   8.976  0.1353 -0.2546 -0.4482
  100OSM   H15F10097   3.111   2.137   9.061  1.8139  1.7813  1.4649
  100OSM   H15G10098   3.210   2.220   8.922  0.5051 -2.2833 -0.2769
  100OSM   C16F10099   3.016   2.166   8.864  0.0988  0.2394 -0.2962
  100OSM   H16F10100   3.013   2.249   8.791  1.3638  0.4674 -0.1033
  100OSM   H16G10101   2.921   2.152   8.920  0.9769  2.3940  1.9673
  100OSM   C17F10102   3.054   2.038   8.784  0.3437 -0.5290  0.1842
  100OSM   H17F10103   3.132   2.074   8.714 -1.2133  0.9485 -0.8607
  100OSM   H17G10104   2.968   1.985   8.737  0.4160  1.2709 -2.1162
  100OSM   C18F10105   3.114   1.925   8.874  0.3120  0.3050 -0.0255
  100OSM   H18F10106   3.142   1.842   8.806  1.7304  0.5622  0.2119
  100OSM   H18G10107   3.049   1.883   8.955  2.3911 -0.1239  1.5025
  100OSM   H18H10108   3.208   1.964   8.919 -0.0820  0.1042  1.0151
  101OSM      N10109   4.068   0.174  11.159  0.6440  0.3424  0.8131
  101OSM    C1510110   3.985   0.214  11.278  0.9142  0.0078 -0.0524
  101OSM   H15A10111   3.957   0.318  11.272 -1.2029 -0.5466 -0.8910
  101OSM   H15B10112   4.044   0.205  11.368  0.6024  1.8329  0.3710
  101OSM   H15C10113   3.891   0.161  11.283  0.3529  0.9273 -0.5687
  101OSM    C1410114   3.992   0.195  11.027 -0.0386  0.0912 -0.6171
  101OSM   H14A10115   3.974   0.299  11.003  1.7204  0.6057  0.1474
  101OSM   H14B10116   3.902   0.136  11.037  0.4228 -0.3583  1.0419
  101OSM   H14C10117   4.040   0.153  10.939  1.6184  3.3959 -1.4569
  101OSM    C1310118   4.198   0.251  11.157  0.5212 -0.1280 -0.1692
  101OSM   H13A10119   4.171   0.354  11.137 -1.2932 -1.0040 -2.8844
  101OSM   H13B10120   4.258   0.231  11.069 -0.1058  2.7739 -1.3794
  101OSM   H13C10121   4.260   0.231  11.242  1.0400  1.2117 -0.2064
  101OSM    C1210122   4.103   0.027  11.173 -0.3198 -0.4389  0.5216
  101OSM   H12A10123   4.012  -0.027  11.197 -1.6433  1.5816  0.2660
  101OSM   H12B10124   4.178   0.018  11.250  0.6490 -0.1606 -0.3641
  101OSM    C1110125   4.180  -0.039  11.051  0.0105 -0.3463 -0.5870
  101OSM   H11A10126   4.110  -0.037  10.965 -0.1506  0.9409 -0.4573
  101OSM   H11B10127   4.210  -0.142  11.080  0.1165 -0.2690 -0.4213
  101OSM      P10128   4.442  -0.003  11.031 -0.1742 -0.4184  0.2246
  101OSM    O1310129   4.494   0.078  11.146  0.3949  0.1760 -0.4111
  101OSM    O1410130   4.448  -0.147  11.035 -0.1974 -0.0172 -0.8357
  101OSM    O1110131   4.511   0.052  10.899  0.4450 -0.5142 -0.0046
  101OSM    O1210132   4.292   0.037  11.007 -0.8782  0.4334  0.0294
  101OSM    C1S10133   4.499  -0.014  10.773  0.4854  0.3144 -0.4872
  101OSM    H1S10134   4.396   0.003  10.735  0.6716  0.8112 -0.7653
  101OSM    H1T10135   4.518  -0.123  10.783  1.0557  0.5748  1.8066
  101OSM     NF10136   4.563   0.008  10.535 -0.0974  0.4938 -0.2748
  101OSM    HNF10137   4.617  -0.065  10.493  0.1873  2.3182 -3.3472
  101OSM    C2S10138   4.606   0.040  10.672  0.0774 -0.2621 -0.0941
  101OSM    H2S10139   4.610   0.150  10.681 -1.0048 -0.1291 -0.9343
  101OSM    C3S10140   4.735  -0.027  10.711 -0.9485 -0.1343 -0.2950
  101OSM    H3S10141   4.728  -0.138  10.699 -0.6355 -0.0090 -1.8227
  101OSM     O310142   4.762  -0.015  10.851  0.2958 -0.1222  0.3020
  101OSM    HO310143   4.692   0.043  10.883  0.1223 -0.9435  1.4820
  101OSM    C4S10144   4.856   0.022  10.624  0.3696  0.3751  0.0678
  101OSM    H4S10145   4.864  -0.028  10.526  3.4163  1.2763 -0.2487
  101OSM    C5S10146   4.946   0.120  10.653  0.1019  0.0689  0.1376
  101OSM    H5S10147   4.954   0.150  10.759  1.3394  0.7622 -0.1418
  101OSM    C6S10148   5.052   0.178  10.563  0.0512 -0.3942  0.1050
  101OSM    H6S10149   5.152   0.160  10.608  0.6541  1.2445 -0.5155
  101OSM    H6T10150   5.030   0.286  10.563  1.4154 -0.1018  0.0645
  101OSM    C7S10151   5.069   0.152  10.415 -0.1356  0.5180  0.1539
  101OSM    H7S10152   4.976   0.187  10.366 -0.3073 -0.1871 -0.0264
  101OSM    H7T10153   5.083   0.047  10.382  0.1517  0.4692  0.4265
  101OSM    C8S10154   5.195   0.220  10.343  0.4198 -0.3346 -0.0280
  101OSM    H8S10155   5.279   0.201  10.413  0.2374  0.7830  0.5080
  101OSM    H8T10156   5.173   0.329  10.337 -2.3461 -0.7952  0.3830
  101OSM    C9S10157   5.232   0.154  10.206 -0.2403  0.3475  1.0094
  101OSM    H9S10158   5.141   0.147  10.142  0.5620 -2.5534  0.0646
  101OSM    H9T10159   5.268   0.050  10.218 -0.0169  0.1137 -1.2432
  101OSM   C10S10160   5.344   0.236  10.133 -0.1175 -0.3011 -0.2618
  101OSM   H10S10161   5.434   0.256  10.195 -1.8084  0.1382  2.2027
  101OSM   H10T10162   5.297   0.333  10.109  2.7882  0.9971 -1.1912
  101OSM   C11S10163   5.385   0.178  10.000  0.2439  0.5800  0.6343
  101OSM   H11S10164   5.301   0.128   9.946  0.7298  0.4298 -0.0037
  101OSM   H11T10165   5.454   0.093  10.019  1.3709  0.6930 -2.3391
  101OSM   C12S10166   5.467   0.268   9.905  0.3207 -0.1439 -0.3544
  101OSM   H12S10167   5.560   0.294   9.959 -1.3714 -0.3034  2.9062
  101OSM   H12T10168   5.420   0.367   9.887 -1.2046 -0.7881 -0.1105
  101OSM   C13S10169   5.491   0.184   9.772  0.2461 -1.2152 -0.9382
  101OSM   H13S10170   5.396   0.135   9.741  0.6767 -2.6587 -0.0583
  101OSM   H13T10171   5.556   0.098   9.799  0.6067 -0.8312 -0.5586
  101OSM   C14S10172   5.547   0.258   9.649 -0.2789  0.0416 -0.1878
  101OSM   H14S10173   5.452   0.296   9.606 -0.0789  0.9597  0.1605
  101OSM   H14T10174   5.587   0.183   9.577 -0.4327 -0.1211 -0.1031
  101OSM   C15S10175   5.654   0.361   9.685 -0.4851 -0.5163 -0.1579
  101OSM   H15S10176   5.722   0.311   9.758 -0.8013 -2.0616 -0.8739
  101OSM   H15T10177   5.608   0.451   9.732 -1.3448 -1.3147  0.5766
  101OSM   C16S10178   5.734   0.398   9.559  0.6514 -0.4679 -0.0910
  101OSM   H16S10179   5.775   0.305   9.515  0.5130 -0.8652  0.6071
  101OSM   H16T10180   5.831   0.443   9.589  1.2713 -2.2723  0.7414
  101OSM   C17S10181   5.644   0.484   9.475 -0.1601 -0.0804  0.5902
  101OSM   H17S10182   5.618   0.569   9.542  0.1935  0.8519 -0.4244
  101OSM   H17T10183   5.542   0.455   9.442 -0.8034 -0.1782  2.5150
  101OSM   C18S10184   5.727   0.539   9.354 -0.5633 -0.7952 -1.0857
  101OSM   H18S10185   5.669   0.579   9.268  1.1087  1.9901 -1.0419
  101OSM   H18T10186   5.790   0.450   9.329  2.2216 -0.4135  3.4100
  101OSM   H18U10187   5.802   0.616   9.381  0.1645 -1.6947 -0.4382
  101OSM    C1F10188   4.459   0.067  10.473  0.9803  1.0392 -0.0278
  101OSM     OF10189   4.385   0.151  10.522  0.3744  0.4466  0.6123
  101OSM    C2F10190   4.440   0.032  10.328 -0.0873 -0.1168 -0.0834
  101OSM    H2F10191   4.437  -0.079  10.326  1.7668 -0.2067 -0.1402
  101OSM    H2G10192   4.529   0.065  10.271 -0.9347 -0.2105 -1.4980
  101OSM    C3F10193   4.315   0.091  10.254 -0.2343 -0.0184 -0.2722
  101OSM    H3F10194   4.335   0.201  10.247  1.8836 -0.3772 -0.6510
  101OSM    H3G10195   4.225   0.070  10.316 -0.3395 -2.3936 -1.1327
  101OSM    C4F10196   4.293   0.030  10.116 -0.6588  0.0093 -0.5291
  101OSM    H4F10197   4.196   0.065  10.076  0.4749  0.2917 -3.2423
  101OSM    H4G10198   4.289  -0.080  10.132  2.1299 -0.1075 -0.1997
  101OSM    C5F10199   4.389   0.088  10.013 -0.1289  0.4221 -0.2394
  101OSM    H5F10200   4.492   0.084  10.055 -0.2995 -0.2075  0.1339
  101OSM    H5G10201   4.379   0.198  10.005  1.1012  0.5699  0.0865
  101OSM    C6F10202   4.381   0.034   9.871 -0.3079 -0.1883  0.4885
  101OSM    H6F10203   4.420  -0.070   9.871 -0.6731 -0.3683 -1.2480
  101OSM    H6G10204   4.277   0.040   9.834  0.0501 -0.7336 -0.6757
  101OSM    C7F10205   4.461   0.124   9.774  0.3525  0.2348  0.1256
  101OSM    H7F10206   4.570   0.105   9.783  0.0074 -2.8115 -1.0732
  101OSM    H7G10207   4.438   0.230   9.798  2.2108  1.5759 -3.2026
  101OSM    C8F10208   4.430   0.090   9.626  0.0940 -0.3655  0.0684
  101OSM    H8F10209   4.322   0.111   9.611  0.7724  2.9156 -0.9320
  101OSM    H8G10210   4.453  -0.019   9.620 -0.7334 -0.4887 -1.1190
  101OSM    C9F10211   4.495   0.182   9.528 -0.2486 -0.4939 -0.1429
  101OSM    H9F10212   4.456   0.285   9.537  1.0262  0.0871 -1.0207
  101OSM   C10F10213   4.601   0.150   9.438 -0.3175  0.6750 -0.2291
  101OSM   H10F10214   4.656   0.229   9.385 -1.8190  0.8778 -1.5704
  101OSM   C11F10215   4.670   0.014   9.435  0.4731  0.0993  0.2780
  101OSM   H11F10216   4.658  -0.040   9.532  2.3556  0.4811  0.7576
  101OSM   H11G10217   4.779   0.027   9.419  0.7801 -2.0810  0.3284
  101OSM   C12F10218   4.594  -0.071   9.331 -0.0404  0.3923 -0.1939
  101OSM   H12F10219   4.484  -0.068   9.341 -0.0145 -1.3824  1.0833
  101OSM   H12G10220   4.617  -0.174   9.364 -0.7033  1.0201  2.5320
  101OSM   C13F10221   4.636  -0.043   9.185  0.2880 -0.5775  0.7807
  101OSM   H13F10222   4.746  -0.059   9.176  0.4131  1.1167 -1.8628
  101OSM   H13G10223   4.604   0.059   9.156 -0.1367 -0.6486  0.9939
  101OSM   C14F10224   4.565  -0.140   9.086 -0.2170  0.0265 -0.0176
  101OSM   H14F10225   4.458  -0.144   9.115 -0.6166  0.2309 -1.4058
  101OSM   H14G10226   4.602  -0.245   9.082 -1.4554 -0.4132 -0.5048
  101OSM   C15F10227   4.577  -0.097   8.940  1.1015 -0.0225 -0.0573
  101OSM   H15F10228   4.542   0.008   8.928 -0.6516 -0.5327  0.3150
  101OSM   H15G10229   4.521  -0.173   8.882  2.4901  0.3861 -2.0474
  101OSM   C16F10230   4.726  -0.101   8.898  0.1026  0.6223 -0.7630
  101OSM   H16F10231   4.767  -0.203   8.910  0.3519  0.5711 -1.9180
  101OSM   H16G10232   4.793  -0.039   8.961  2.3679 -1.8730 -0.5580
  101OSM   C17F10233   4.746  -0.058   8.756  0.3666 -0.5188  0.1211
  101OSM   H17F10234   4.732   0.052   8.749 -0.0519 -0.5195  0.8371
  101OSM   H17G10235   4.665  -0.106   8.697 -0.1939  1.8963 -1.1901
  101OSM   C18F10236   4.896  -0.087   8.711  0.0567  0.2798 -0.2138
  101OSM   H18F10237   4.961  -0.046   8.791 -2.0381  1.1027  1.1410
  101OSM   H18G10238   4.908  -0.062   8.603  1.3286 -1.7216 -0.5911
  101OSM   H18H10239   4.920  -0.195   8.703 -0.8029  0.0790 -0.2150
  102OSM      N10240   1.907   3.492  11.065 -0.0092 -0.2609  0.1898
  102OSM    C1510241   1.819   3.555  11.167 -0.7702  0.0181  0.1963
  102OSM   H15A10242   1.716   3.531  11.143 -0.6953  0.1578 -0.2777
  102OSM   H15B10243   1.838   3.660  11.182  1.8749 -0.3022 -0.3938
  102OSM   H15C10244   1.846   3.511  11.261 -1.7479  1.8152  1.3757
  102OSM    C1410245   2.049   3.511  11.112 -0.5399  0.8110 -0.4286
  102OSM   H14A10246   2.132   3.469  11.058 -0.9857 -1.2593  0.4026
  102OSM   H14B10247   2.057   3.462  11.208 -0.1994  1.8696  0.0979
  102OSM   H14C10248   2.068   3.617  11.127 -2.6315  1.3570 -1.2703
  102OSM    C1310249   1.877   3.343  11.058  0.3562 -0.2308  0.9163
  102OSM   H13A10250   1.901   3.302  11.155 -0.1752  0.6433  1.4199
  102OSM   H13B10251   1.938   3.301  10.979  1.0211  2.9976 -0.4436
  102OSM   H13C10252   1.771   3.336  11.044  0.4284  0.8410 -0.3494
  102OSM    C1210253   1.892   3.552  10.921 -0.1926 -0.0149  0.7938
  102OSM   H12A10254   1.978   3.509  10.871  0.6898  1.1634  1.2560
  102OSM   H12B10255   1.902   3.659  10.918 -0.8537  0.0559  1.1172
  102OSM    C1110256   1.760   3.513  10.845 -1.0303  0.1576 -0.3500
  102OSM   H11A10257   1.747   3.583  10.760  1.9288  0.1592 -0.9058
  102OSM   H11B10258   1.681   3.523  10.922  0.1189 -3.0136  1.4084
  102OSM      P10259   1.830   3.312  10.694  0.0224 -0.4139 -0.0994
  102OSM    O1310260   1.981   3.307  10.701  0.4958  0.0127 -0.0216
  102OSM    O1410261   1.768   3.179  10.677  0.2135 -0.5705 -0.3466
  102OSM    O1110262   1.788   3.414  10.576 -0.0612  0.2288  0.0663
  102OSM    O1210263   1.757   3.379  10.818 -0.0678 -0.7473 -0.6656
  102OSM    C1S10264   1.890   3.441  10.477 -0.0885 -0.3687  0.2684
  102OSM    H1S10265   1.936   3.352  10.428  0.2482  1.5786 -3.2867
  102OSM    H1T10266   1.962   3.511  10.524  0.7772 -0.7698 -0.4187
  102OSM     NF10267   1.929   3.543  10.258 -0.1040  0.1382 -0.2179
  102OSM    HNF10268   1.954   3.639  10.268  1.2285 -0.3303  1.2383
  102OSM    C2S10269   1.825   3.523  10.355 -0.3040  0.0839  0.2094
  102OSM    H2S10270   1.740   3.462  10.318 -0.0825  0.4767 -0.9893
  102OSM    C3S10271   1.765   3.657  10.395  0.3758  0.2170 -0.0458
  102OSM    H3S10272   1.841   3.734  10.422  0.2598  0.0534  0.7628
  102OSM     O310273   1.691   3.660  10.518 -0.2779 -0.3437  0.3911
  102OSM    HO310274   1.710   3.577  10.562  0.5268  0.5044  1.7212
  102OSM    C4S10275   1.684   3.707  10.280 -1.2824 -0.0808  0.2455
  102OSM    H4S10276   1.599   3.645  10.250 -0.5759 -1.1003  0.2846
  102OSM    C5S10277   1.706   3.827  10.217  0.2874 -0.1959 -0.3972
  102OSM    H5S10278   1.784   3.901  10.241 -0.5745  1.1523 -1.6438
  102OSM    C6S10279   1.619   3.875  10.099 -0.1576  0.4209 -0.3582
  102OSM    H6S10280   1.610   3.985  10.104  1.1591  0.5497 -0.4118
  102OSM    H6T10281   1.513   3.841  10.095 -0.5471  1.6192 -0.6492
  102OSM    C7S10282   1.687   3.830   9.971 -0.1570  0.6800 -0.2831
  102OSM    H7S10283   1.669   3.720   9.961 -1.2356  0.6809  1.2674
  102OSM    H7T10284   1.794   3.857   9.970  0.0113  0.2599  1.8859
  102OSM    C8S10285   1.621   3.902   9.856  0.3747  0.3931  0.4547
  102OSM    H8S10286   1.634   4.012   9.865 -1.4510  0.6008  0.9563
  102OSM    H8T10287   1.514   3.872   9.857  1.0091 -2.4404  3.6152
  102OSM    C9S10288   1.684   3.849   9.723 -1.1845  0.0345  0.0605
  102OSM    H9S10289   1.680   3.739   9.716  1.3316 -0.0318 -2.7485
  102OSM    H9T10290   1.788   3.889   9.715 -1.8319  1.5988 -1.3594
  102OSM   C10S10291   1.607   3.891   9.597 -0.5410 -0.3666 -0.4011
  102OSM   H10S10292   1.582   3.995   9.625  1.3425 -0.1936  0.8505
  102OSM   H10T10293   1.507   3.843   9.591 -1.3580  0.6931  2.6928
  102OSM   C11S10294   1.693   3.876   9.465 -0.0897 -0.2371 -0.9547
  102OSM   H11S10295   1.699   3.772   9.426  1.1967 -0.5303 -0.0199
  102OSM   H11T10296   1.791   3.926   9.483 -0.8300  1.0114 -0.2583
  102OSM   C12S10297   1.634   3.946   9.340  0.4885 -0.1711  0.2855
  102OSM   H12S10298   1.651   4.053   9.365  0.7376 -0.3551  0.9180
  102OSM   H12T10299   1.528   3.914   9.336  0.2282  0.7695 -2.8125
  102OSM   C13S10300   1.707   3.914   9.211  0.4512  0.0176  0.6134
  102OSM   H13S10301   1.698   3.804   9.197  1.4226 -0.0762  0.6665
  102OSM   H13T10302   1.816   3.935   9.210  0.3113  0.8051 -0.4786
  102OSM   C14S10303   1.652   3.981   9.096  0.1491 -0.1036  0.7483
  102OSM   H14S10304   1.672   4.090   9.094  0.2193 -0.0461  2.7079
  102OSM   H14T10305   1.543   3.969   9.076  0.0600  1.6889 -0.0117
  102OSM   C15S10306   1.713   3.920   8.955 -0.8728 -0.7893  0.3971
  102OSM   H15S10307   1.699   3.811   8.941  1.0958 -1.0909  0.4606
  102OSM   H15T10308   1.821   3.941   8.973 -1.6123  1.5347  2.9935
  102OSM   C16S10309   1.676   3.995   8.828 -0.0834  0.3113 -0.0036
  102OSM   H16S10310   1.672   4.102   8.859 -2.1619  0.6433 -1.2415
  102OSM   H16T10311   1.568   3.976   8.808 -0.0101  0.6929 -0.7868
  102OSM   C17S10312   1.758   3.967   8.704 -0.4236 -0.2832 -0.0268
  102OSM   H17S10313   1.743   3.861   8.676 -1.7587  0.1454 -1.0669
  102OSM   H17T10314   1.866   3.972   8.727  0.5532 -0.8373 -3.8347
  102OSM   C18S10315   1.715   4.050   8.588 -0.3862 -0.0512 -0.6494
  102OSM   H18S10316   1.751   4.022   8.486  0.8320 -0.9166 -0.0035
  102OSM   H18T10317   1.755   4.151   8.609  0.4785 -0.8537  1.8405
  102OSM   H18U10318   1.604   4.057   8.584 -0.3096  3.7204  0.2219
  102OSM    C1F10319   1.978   3.462  10.170  0.3672  0.4791 -0.9526
  102OSM     OF10320   1.926   3.347  10.156 -0.5336  0.0525 -0.3486
  102OSM    C2F10321   2.115   3.499  10.109  0.5362 -0.0640 -0.4972
  102OSM    H2F10322   2.182   3.414  10.133 -1.5907 -1.4298  1.0125
  102OSM    H2G10323   2.142   3.598  10.150 -0.3726 -0.7273  1.8950
  102OSM    C3F10324   2.113   3.516   9.955 -0.7798  0.7612 -0.5052
  102OSM    H3F10325   2.093   3.420   9.902  2.9525  1.0848 -2.8586
  102OSM    H3G10326   2.217   3.545   9.932  0.1670 -1.2220  0.9360
  102OSM    C4F10327   2.018   3.625   9.901 -0.3341 -0.1711 -0.4812
  102OSM    H4F10328   2.053   3.726   9.933 -0.6166  0.2447 -1.4665
  102OSM    H4G10329   1.914   3.616   9.938 -0.3046 -0.5894 -0.4976
  102OSM    C5F10330   2.000   3.622   9.745  0.2476  0.3890 -0.4508
  102OSM    H5F10331   1.909   3.683   9.724  1.0338  2.2084  1.0978
  102OSM    H5G10332   1.965   3.520   9.718 -1.4805  1.1092 -1.0908
  102OSM    C6F10333   2.123   3.663   9.664 -0.2569 -0.7774  0.8589
  102OSM    H6F10334   2.194   3.580   9.648 -0.4457 -0.7281 -0.2666
  102OSM    H6G10335   2.173   3.751   9.710 -1.2736  0.7997 -0.9148
  102OSM    C7F10336   2.094   3.715   9.528  0.1119 -0.0059 -0.0934
  102OSM    H7F10337   2.186   3.745   9.473 -0.0718  1.1039  0.1791
  102OSM    H7G10338   2.035   3.808   9.538 -0.0554 -0.3064  1.9839
  102OSM    C8F10339   2.016   3.609   9.438 -0.2129 -0.8779 -0.1826
  102OSM    H8F10340   1.926   3.583   9.499  0.6766 -2.1003  0.6327
  102OSM    H8G10341   2.074   3.515   9.432  1.1428 -0.0999  0.2667
  102OSM    C9F10342   1.979   3.663   9.300  0.3127  0.7262  1.0970
  102OSM    H9F10343   1.903   3.744   9.302 -1.8094 -1.1512  2.8298
  102OSM   C10F10344   2.024   3.611   9.177  0.6825 -0.4827 -0.0144
  102OSM   H10F10345   2.000   3.654   9.079 -0.6101  0.8848  0.8655
  102OSM   C11F10346   2.118   3.501   9.166 -0.3561 -0.0965  0.2609
  102OSM   H11F10347   2.059   3.412   9.198  0.0343 -0.5505 -0.2628
  102OSM   H11G10348   2.208   3.511   9.230  1.5137  0.3160 -2.3037
  102OSM   C12F10349   2.172   3.488   9.022 -0.2602  0.8689  0.0156
  102OSM   H12F10350   2.232   3.579   9.004  1.4821 -0.5216 -1.6750
  102OSM   H12G10351   2.093   3.486   8.944 -1.3128  0.1508  1.0553
  102OSM   C13F10352   2.258   3.363   9.017 -0.0298 -0.2039 -0.2095
  102OSM   H13F10353   2.199   3.274   9.050  0.5856  0.0933  1.8066
  102OSM   H13G10354   2.332   3.365   9.099 -1.7496  0.9328  1.4010
  102OSM   C14F10355   2.317   3.337   8.878 -0.2132  0.8402 -0.0851
  102OSM   H14F10356   2.337   3.431   8.823 -1.8480  0.3436 -1.6283
  102OSM   H14G10357   2.241   3.280   8.820  1.6830 -1.5654 -0.3552
  102OSM   C15F10358   2.448   3.259   8.886 -0.2612 -0.6266 -0.3739
  102OSM   H15F10359   2.443   3.149   8.903  1.4507 -0.9407 -1.6666
  102OSM   H15G10360   2.513   3.313   8.959  0.2548  0.8851 -1.8865
  102OSM   C16F10361   2.535   3.264   8.764  0.3859  0.1123 -0.0376
  102OSM   H16F10362   2.631   3.219   8.796  1.3388  1.7216 -0.4872
  102OSM   H16G10363   2.557   3.372   8.745  0.3316 -0.1005 -1.3888
  102OSM   C17F10364   2.475   3.206   8.640 -0.3775  0.1349 -0.2559
  102OSM   H17F10365   2.374   3.253   8.633 -0.7554 -0.4497  0.9567
  102OSM   H17G10366   2.462   3.099   8.666 -0.9764  0.4881  0.9969
  102OSM   C18F10367   2.553   3.227   8.504 -0.0743  0.6864 -0.0953
  102OSM   H18F10368   2.656   3.187   8.506 -1.8177 -4.6324 -0.4143
  102OSM   H18G10369   2.558   3.334   8.474  2.1461  0.5251 -0.4081
  102OSM   H18H10370   2.501   3.169   8.424  2.0400  0.7043 -1.5514
  103OSM      N10371   0.567   0.692  10.968  0.7195 -0.5043  0.4320
  103OSM    C1510372   0.420   0.729  10.974  0.4312  0.1555  0.0194
  103OSM   H15A10373   0.401   0.834  10.991  1.7331  0.1914  1.4865
  103OSM   H15B10374   0.371   0.677  11.055  0.2723  1.5848  0.8700
  103OSM   H15C10375   0.363   0.701  10.887  0.6767 -1.3408  0.3085
  103OSM    C1410376   0.626   0.753  11.088  0.2534  0.3685  0.3904
  103OSM   H14A10377   0.612   0.860  11.090 -1.8012  0.1263  1.7116
  103OSM   H14B10378   0.732   0.732  11.090 -0.0683 -1.3962  0.9711
  103OSM   H14C10379   0.576   0.719  11.177 -1.6320  2.4022  0.2056
  103OSM    C1310380   0.573   0.543  10.993 -0.4165  0.1880 -0.2168
  103OSM   H13A10381   0.566   0.476  10.908  2.8814  0.3273 -0.7160
  103OSM   H13B10382   0.516   0.520  11.082 -2.5686 -1.3308 -1.8763
  103OSM   H13C10383   0.674   0.522  11.025 -0.0417 -1.6031 -2.2876
  103OSM    C1210384   0.639   0.723  10.838  0.6455 -0.5606 -0.4493
  103OSM   H12A10385   0.594   0.666  10.758  2.8171 -0.4174 -1.8652
  103OSM   H12B10386   0.743   0.701  10.854  0.5555  0.3073  1.6383
  103OSM    C1110387   0.642   0.868  10.779  0.5083 -0.0099  0.0886
  103OSM   H11A10388   0.536   0.898  10.771  0.0665 -0.5720  2.8763
  103OSM   H11B10389   0.685   0.856  10.677  1.4112 -0.6331  0.5283
  103OSM      P10390   0.864   0.984  10.854  0.0242 -0.1677  0.0379
  103OSM    O1310391   0.922   1.088  10.942 -0.3028  0.3340  0.2595
  103OSM    O1410392   0.927   0.848  10.865  0.7416  0.2404 -0.2774
  103OSM    O1110393   0.893   1.033  10.702  0.0759  0.2190 -0.3176
  103OSM    O1210394   0.700   0.969  10.856 -0.1994 -0.0673 -0.1679
  103OSM    C1S10395   0.808   1.126  10.632 -0.1971  0.2657  0.0898
  103OSM    H1S10396   0.834   1.228  10.667  1.7101  0.5413 -1.9531
  103OSM    H1T10397   0.699   1.111  10.647 -0.4915 -2.1659 -3.3847
  103OSM     NF10398   0.713   1.209  10.414  0.1835  0.6635  0.1126
  103OSM    HNF10399   0.622   1.169  10.422 -0.4743  1.8052 -1.3005
  103OSM    C2S10400   0.817   1.128  10.471  0.0596 -0.3868 -0.3162
  103OSM    H2S10401   0.917   1.175  10.459 -0.2155  1.0701  2.2762
  103OSM    C3S10402   0.816   0.985  10.411  0.0705 -0.1582 -0.2807
  103OSM    H3S10403   0.711   0.950  10.418 -0.9993  2.8358 -0.0362
  103OSM     O310404   0.894   0.890  10.491 -0.4434  0.1211 -0.2126
  103OSM    HO310405   0.925   0.946  10.563  0.4307 -2.4793  1.5593
  103OSM    C4S10406   0.865   0.978  10.269 -0.3675  0.2664  0.0997
  103OSM    H4S10407   0.779   0.989  10.200  0.3036  1.0510 -0.6309
  103OSM    C5S10408   0.985   0.943  10.215 -0.5445  0.6332 -0.2490
  103OSM    H5S10409   1.068   0.911  10.281 -0.9702  0.8090  0.3827
  103OSM    C6S10410   1.018   0.934  10.070  0.3692  0.3925 -0.0415
  103OSM    H6S10411   1.045   0.828  10.051  0.2902 -0.0978  2.2953
  103OSM    H6T10412   1.109   0.988  10.036 -0.0981  1.3118  0.1266
  103OSM    C7S10413   0.902   0.964   9.968  0.4678 -0.3201 -0.5893
  103OSM    H7S10414   0.880   1.073   9.967 -1.6122 -0.7069 -1.2940
  103OSM    H7T10415   0.807   0.916   9.998  0.4570 -0.2503 -0.5128
  103OSM    C8S10416   0.948   0.928   9.826 -0.3312 -0.7142 -0.6001
  103OSM    H8S10417   0.961   0.817   9.829  3.4155 -0.3899 -0.7653
  103OSM    H8T10418   1.050   0.966   9.807 -0.4919  0.2811  0.4077
  103OSM    C9S10419   0.851   0.982   9.726  0.0667 -0.2860  0.4120
  103OSM    H9S10420   0.842   1.092   9.728 -1.8993 -0.3605 -1.0075
  103OSM    H9T10421   0.746   0.953   9.749 -0.7475  2.3056  0.2816
  103OSM   C10S10422   0.898   0.925   9.582  0.5019 -0.7892 -1.0624
  103OSM   H10S10423   0.891   0.814   9.581  0.9043 -0.8180 -1.9980
  103OSM   H10T10424   1.006   0.951   9.576  0.0529  1.1266 -1.4201
  103OSM   C11S10425   0.826   0.980   9.460 -0.0723  0.2723 -0.1800
  103OSM   H11S10426   0.719   0.985   9.488  0.7786  1.6916  3.3442
  103OSM   H11T10427   0.826   0.908   9.375 -1.4606  1.1434 -0.9609
  103OSM   C12S10428   0.881   1.116   9.413  0.7766 -0.0607  0.1792
  103OSM   H12S10429   0.989   1.103   9.435  0.4376 -1.5462  1.1360
  103OSM   H12T10430   0.823   1.193   9.469 -0.1612  0.5647 -1.5654
  103OSM   C13S10431   0.844   1.164   9.269  0.8414 -0.3227 -0.1747
  103OSM   H13S10432   0.846   1.274   9.260 -1.8963 -0.1937  0.1596
  103OSM   H13T10433   0.742   1.129   9.244  0.7914 -0.0533 -0.3385
  103OSM   C14S10434   0.926   1.100   9.155 -0.2356 -0.2293 -0.4281
  103OSM   H14S10435   0.907   0.991   9.155 -1.0658 -0.0922 -0.1376
  103OSM   H14T10436   1.032   1.120   9.182  0.3860 -1.5145 -1.8146
  103OSM   C15S10437   0.900   1.144   9.012  0.2728  0.3612  0.4440
  103OSM   H15S10438   0.916   1.253   9.000  0.5202  0.2276 -0.5102
  103OSM   H15T10439   0.795   1.131   8.979  0.2405  0.0431  0.6707
  103OSM   C16S10440   0.988   1.080   8.908  0.2798  0.5319  0.6337
  103OSM   H16S10441   0.960   0.973   8.903 -0.7654  0.8231 -3.7884
  103OSM   H16T10442   1.094   1.090   8.939  0.6180 -1.6217  0.3456
  103OSM   C17S10443   0.963   1.139   8.774 -0.4666 -0.5897  1.0185
  103OSM   H17S10444   1.003   1.241   8.759 -1.1312 -0.2569  1.4910
  103OSM   H17T10445   0.853   1.150   8.762 -0.4879  0.4608  2.0664
  103OSM   C18S10446   1.014   1.048   8.661 -0.6211 -0.0592  0.1067
  103OSM   H18S10447   0.998   1.097   8.562  1.2630 -1.7594 -1.1059
  103OSM   H18T10448   0.955   0.954   8.666 -0.7391 -0.0839 -1.2751
  103OSM   H18U10449   1.122   1.026   8.673 -0.4449  0.2110 -0.8935
  103OSM    C1F10450   0.723   1.346  10.419  0.6578 -0.2257  0.2947
  103OSM     OF10451   0.822   1.404  10.463 -0.1347  0.1702  0.3018
  103OSM    C2F10452   0.596   1.424  10.393  0.2359  0.2602  0.1932
  103OSM    H2F10453   0.563   1.477  10.484  3.4592  0.9652  1.0888
  103OSM    H2G10454   0.517   1.354  10.357 -1.9737  2.5988  0.2495
  103OSM    C3F10455   0.626   1.539  10.286 -0.1018  0.1190 -0.3918
  103OSM    H3F10456   0.699   1.605  10.338 -1.0074  1.2631 -0.5105
  103OSM    H3G10457   0.541   1.610  10.278  0.1942  0.5115 -0.1267
  103OSM    C4F10458   0.684   1.494  10.151  0.3896 -0.4063 -0.0339
  103OSM    H4F10459   0.619   1.428  10.089 -0.1902 -0.3927  0.5465
  103OSM    H4G10460   0.772   1.433  10.180  1.7636  1.1332 -0.7931
  103OSM    C5F10461   0.717   1.609  10.065 -0.8329  0.2681 -0.1879
  103OSM    H5F10462   0.789   1.675  10.117  0.5496 -1.2553 -0.0855
  103OSM    H5G10463   0.629   1.676  10.054 -0.3885  1.0540  0.8730
  103OSM    C6F10464   0.763   1.573   9.925 -0.1044 -0.3976 -0.1999
  103OSM    H6F10465   0.688   1.505   9.880 -0.5955 -0.5573  0.8562
  103OSM    H6G10466   0.854   1.509   9.932 -1.4438 -2.3614  0.0217
  103OSM    C7F10467   0.778   1.693   9.828  0.6707  0.0979 -0.8240
  103OSM    H7F10468   0.838   1.770   9.881 -0.0250 -0.6433  1.1306
  103OSM    H7G10469   0.675   1.734   9.820  0.5115 -0.2529 -0.6160
  103OSM    C8F10470   0.846   1.649   9.703  0.3530  0.5991 -0.2811
  103OSM    H8F10471   0.785   1.560   9.676 -1.5363  1.3157  1.3595
  103OSM    H8G10472   0.952   1.627   9.728 -0.0978  1.4847  2.7843
  103OSM    C9F10473   0.857   1.762   9.608 -0.0629  0.8094  0.1797
  103OSM    H9F10474   0.874   1.868   9.636  0.3508  1.0296 -0.8834
  103OSM   C10F10475   0.821   1.740   9.479  0.4209  0.0329 -0.1109
  103OSM   H10F10476   0.824   1.824   9.407  0.5908 -0.4237 -0.6405
  103OSM   C11F10477   0.800   1.608   9.413 -0.0068 -0.0963 -0.9891
  103OSM   H11F10478   0.834   1.518   9.469 -0.5940  0.7165  0.7555
  103OSM   H11G10479   0.863   1.605   9.322 -1.3469 -0.3560 -1.9279
  103OSM   C12F10480   0.648   1.577   9.390  0.4442 -0.6010  0.9650
  103OSM   H12F10481   0.637   1.513   9.300 -0.5269  2.1222 -0.9532
  103OSM   H12G10482   0.598   1.667   9.348  0.6304 -1.7144 -1.8940
  103OSM   C13F10483   0.561   1.523   9.502 -0.3244 -0.0381 -0.5649
  103OSM   H13F10484   0.451   1.537   9.489 -0.2911  2.2912  0.9777
  103OSM   H13G10485   0.601   1.591   9.581  0.8113 -0.8677 -0.3984
  103OSM   C14F10486   0.595   1.383   9.541 -0.4208  0.0294  0.0014
  103OSM   H14F10487   0.703   1.364   9.557 -0.5268 -0.9342 -0.3743
  103OSM   H14G10488   0.567   1.323   9.452 -1.4970 -0.3872  0.6019
  103OSM   C15F10489   0.515   1.322   9.653  0.2435 -1.0137 -0.1886
  103OSM   H15F10490   0.405   1.318   9.634 -0.1453 -3.4329  1.9893
  103OSM   H15G10491   0.522   1.394   9.738 -1.4050  0.6436 -1.3724
  103OSM   C16F10492   0.566   1.185   9.702  0.1054 -0.6404 -0.1336
  103OSM   H16F10493   0.676   1.192   9.716  0.0958 -2.7561  1.5079
  103OSM   H16G10494   0.541   1.110   9.624 -0.9893 -1.0283  0.5675
  103OSM   C17F10495   0.506   1.113   9.824  0.1108 -0.1153 -0.1081
  103OSM   H17F10496   0.541   1.008   9.816 -0.5243 -0.1740 -3.6177
  103OSM   H17G10497   0.396   1.103   9.811 -0.0282 -2.5933  2.1518
  103OSM   C18F10498   0.526   1.184   9.960  0.3315 -0.5880  0.3558
  103OSM   H18F10499   0.463   1.142  10.041  1.4340  0.4660  1.8284
  103OSM   H18G10500   0.499   1.290   9.942  1.3116  0.0696  2.4114
  103OSM   H18H10501   0.634   1.174   9.986 -0.0522 -0.0960  2.2713
  104OSM      N10502   1.319   1.046  10.917  0.5353  0.0469 -0.3250
  104OSM    C1510503   1.382   1.124  11.030  0.4453 -0.0341 -0.3595
  104OSM   H15A10504   1.448   1.062  11.088 -0.2292 -0.9589 -0.5647
  104OSM   H15B10505   1.304   1.168  11.091  0.3702  0.8807 -1.0856
  104OSM   H15C10506   1.440   1.206  10.991 -0.2784  1.1170  0.8832
  104OSM    C1410507   1.237   0.943  10.984 -0.5898 -0.1027 -0.1277
  104OSM   H14A10508   1.305   0.903  11.058 -0.5096  0.1303 -0.0732
  104OSM   H14B10509   1.225   0.863  10.913  0.4761  1.6474 -2.4205
  104OSM   H14C10510   1.149   0.991  11.024 -1.9692 -0.8089 -2.1652
  104OSM    C1310511   1.223   1.140  10.843  0.0343  0.5698  0.0714
  104OSM   H13A10512   1.281   1.222  10.804  3.5394 -1.1078  1.3129
  104OSM   H13B10513   1.155   1.189  10.911 -0.1616  0.5292 -0.0944
  104OSM   H13C10514   1.162   1.098  10.765 -2.0166  2.8736  0.3115
  104OSM    C1210515   1.429   0.990  10.828 -0.3607  0.6192 -0.4482
  104OSM   H12A10516   1.477   1.065  10.767  0.8628 -0.3215 -0.6891
  104OSM   H12B10517   1.379   0.930  10.753  1.7173 -1.0582 -0.5962
  104OSM    C1110518   1.535   0.903  10.901 -0.2243  0.6519  0.4674
  104OSM   H11A10519   1.582   0.954  10.988 -2.3567  2.1636  0.8146
  104OSM   H11B10520   1.623   0.901  10.833  0.7775  1.7854  1.6822
  104OSM      P10521   1.467   0.660  10.839  0.1600 -0.2698 -0.2612
  104OSM    O1310522   1.533   0.542  10.889 -0.2371  0.2525 -0.4081
  104OSM    O1410523   1.320   0.658  10.826  0.0275 -0.0582  0.3741
  104OSM    O1110524   1.541   0.701  10.711  0.5887 -0.2061  0.1819
  104OSM    O1210525   1.500   0.773  10.946 -0.3228  0.0922 -0.1709
  104OSM    C1S10526   1.471   0.712  10.586  0.1574  0.5016  0.1930
  104OSM    H1S10527   1.446   0.819  10.568  0.5780  0.6265  0.3364
  104OSM    H1T10528   1.386   0.643  10.569  1.0774  0.0271 -3.5859
  104OSM     NF10529   1.465   0.648  10.353 -0.9749 -0.1374  0.3433
  104OSM    HNF10530   1.431   0.554  10.347 -1.2383  0.0485 -3.1465
  104OSM    C2S10531   1.559   0.662  10.467  0.4715  0.3766 -0.2083
  104OSM    H2S10532   1.625   0.749  10.445 -1.2083  1.9659  0.7778
  104OSM    C3S10533   1.645   0.532  10.496 -0.1444 -0.6892  0.5999
  104OSM    H3S10534   1.582   0.441  10.497 -1.1151 -0.0322  0.5103
  104OSM     O310535   1.711   0.541  10.617 -0.0681 -0.6082  0.1087
  104OSM    HO310536   1.663   0.616  10.653 -0.6592 -0.5224 -0.8436
  104OSM    C4S10537   1.733   0.518  10.384  0.8454 -0.6499  0.0110
  104OSM    H4S10538   1.705   0.449  10.303  0.7944  0.9315 -1.3649
  104OSM    C5S10539   1.861   0.563  10.383  0.2654  1.1524 -0.1862
  104OSM    H5S10540   1.904   0.599  10.478  1.3054  0.4933 -0.3929
  104OSM    C6S10541   1.966   0.546  10.277  0.5078 -0.3869 -0.2962
  104OSM    H6S10542   2.036   0.465  10.309  0.2549  0.3871  2.5117
  104OSM    H6T10543   2.020   0.643  10.280  0.9082 -0.6021  3.0052
  104OSM    C7S10544   1.925   0.521  10.132  0.0145 -0.1434  0.0345
  104OSM    H7S10545   1.833   0.580  10.110  0.6687  0.3247 -1.5835
  104OSM    H7T10546   1.884   0.418  10.122 -0.5248  0.0500  0.2193
  104OSM    C8S10547   2.040   0.547  10.037  0.6002  0.5051 -0.0780
  104OSM    H8S10548   2.131   0.486  10.055  0.9460  1.1401  0.3694
  104OSM    H8T10549   2.073   0.653  10.031 -0.0760  0.7761  0.7660
  104OSM    C9S10550   2.001   0.508   9.899  0.6789  0.0351  0.5000
  104OSM    H9S10551   1.896   0.545   9.890  0.5404 -0.5932 -0.5543
  104OSM    H9T10552   1.988   0.398   9.890  1.1316  0.0596 -0.5684
  104OSM   C10S10553   2.090   0.567   9.789 -0.0923  0.1819  0.2688
  104OSM   H10S10554   2.194   0.528   9.795 -0.1299  0.0396  0.0129
  104OSM   H10T10555   2.076   0.676   9.777 -0.7518  0.0543 -0.1930
  104OSM   C11S10556   2.033   0.516   9.657 -0.5617  0.3550  0.1418
  104OSM   H11S10557   1.924   0.529   9.639 -0.6770  0.1317  0.6702
  104OSM   H11T10558   2.047   0.406   9.654  0.9844  0.5429 -0.3855
  104OSM   C12S10559   2.107   0.571   9.533 -1.0216  0.1824  0.0195
  104OSM   H12S10560   2.217   0.557   9.537 -1.1657 -1.0968 -0.0868
  104OSM   H12T10561   2.081   0.677   9.510  1.2865  0.4981 -1.4600
  104OSM   C13S10562   2.050   0.495   9.410  0.4611  0.0347  0.1414
  104OSM   H13S10563   1.942   0.524   9.406 -0.2071 -2.2107  0.4127
  104OSM   H13T10564   2.063   0.386   9.426 -0.3337 -0.1679 -0.5020
  104OSM   C14S10565   2.117   0.533   9.263  0.3567 -0.0059 -0.5058
  104OSM   H14S10566   2.225   0.534   9.290 -0.3298  0.3966  2.6721
  104OSM   H14T10567   2.086   0.639   9.250 -0.7749 -0.0409  1.4638
  104OSM   C15S10568   2.068   0.448   9.145 -0.7296 -0.4907 -0.2456
  104OSM   H15S10569   1.968   0.421   9.186 -1.3294  1.0961 -0.5673
  104OSM   H15T10570   2.127   0.357   9.123  2.7193  1.6047 -0.3573
  104OSM   C16S10571   2.064   0.526   9.018 -0.4258 -0.6699  0.0834
  104OSM   H16S10572   2.164   0.552   8.977 -0.4728 -2.3200 -1.1761
  104OSM   H16T10573   2.027   0.628   9.043  0.5394  0.2889 -2.1660
  104OSM   C17S10574   1.969   0.472   8.911  0.0409  0.1882 -0.2347
  104OSM   H17S10575   1.868   0.455   8.952  0.2983  0.9756  0.7860
  104OSM   H17T10576   2.004   0.374   8.873 -3.0264 -0.9380 -0.3440
  104OSM   C18S10577   1.961   0.576   8.797  0.5949 -0.3113  0.0961
  104OSM   H18S10578   1.931   0.529   8.701 -3.1560  4.0952 -1.2304
  104OSM   H18T10579   2.056   0.632   8.781 -0.8269  2.6997  1.3944
  104OSM   H18U10580   1.891   0.660   8.816  2.7138  1.2841  1.4255
  104OSM    C1F10581   1.421   0.746  10.274  0.0001  0.1813 -0.5129
  104OSM     OF10582   1.435   0.865  10.304  0.0448  0.4107  0.1651
  104OSM    C2F10583   1.345   0.699  10.149  0.0303 -0.5768 -0.4145
  104OSM    H2F10584   1.235   0.712  10.160 -0.0538 -2.2421  1.0931
  104OSM    H2G10585   1.365   0.590  10.140 -1.5747 -0.9962  0.6832
  104OSM    C3F10586   1.390   0.775  10.017 -0.1590  0.1814 -0.6238
  104OSM    H3F10587   1.500   0.788  10.006  0.0784 -0.6152  0.5834
  104OSM    H3G10588   1.352   0.877  10.036  0.8113  0.1303  2.0338
  104OSM    C4F10589   1.320   0.730   9.887  0.2497  0.2429  0.7376
  104OSM    H4F10590   1.210   0.726   9.907  0.1710 -0.9543  0.1755
  104OSM    H4G10591   1.354   0.625   9.871 -0.0897  0.2129  0.1906
  104OSM    C5F10592   1.337   0.819   9.761 -1.0760  0.1488 -0.5895
  104OSM    H5F10593   1.446   0.839   9.746 -0.2921 -1.5011  2.2320
  104OSM    H5G10594   1.293   0.916   9.792 -0.4805 -0.2313  1.5949
  104OSM    C6F10595   1.272   0.763   9.633  0.1336 -0.3068 -0.1026
  104OSM    H6F10596   1.166   0.745   9.659  0.5781 -1.2347  1.1541
  104OSM    H6G10597   1.315   0.663   9.613  0.3986 -0.2845  0.3449
  104OSM    C7F10598   1.285   0.851   9.506 -0.2356  0.3831 -0.1586
  104OSM    H7F10599   1.391   0.876   9.485 -0.2346 -0.1530 -0.8400
  104OSM    H7G10600   1.233   0.945   9.533  0.1410  0.6501 -0.3526
  104OSM    C8F10601   1.222   0.792   9.380 -0.4553  0.8327  0.4826
  104OSM    H8F10602   1.225   0.868   9.298 -0.4758  0.6888  0.3480
  104OSM    H8G10603   1.116   0.762   9.395 -0.5717 -1.5174 -3.4461
  104OSM    C9F10604   1.302   0.675   9.337 -0.2907  0.3489  0.0953
  104OSM    H9F10605   1.406   0.697   9.365  0.0422  0.4003 -1.1300
  104OSM   C10F10606   1.260   0.569   9.264  0.3826 -0.4141  0.3607
  104OSM   H10F10607   1.327   0.489   9.228 -2.0891 -1.9284 -1.1512
  104OSM   C11F10608   1.116   0.562   9.219 -0.3445 -0.1780  0.5519
  104OSM   H11F10609   1.050   0.629   9.277 -0.5727 -0.1863  0.3059
  104OSM   H11G10610   1.065   0.465   9.238  0.4469 -1.0110 -1.2198
  104OSM   C12F10611   1.087   0.599   9.072  0.1259  0.3533 -0.6657
  104OSM   H12F10612   1.159   0.542   9.010 -0.0103  1.2809 -1.7106
  104OSM   H12G10613   1.106   0.708   9.065 -0.5120  0.4130 -2.0303
  104OSM   C13F10614   0.942   0.554   9.024  0.1000  0.1262 -0.3243
  104OSM   H13F10615   0.871   0.590   9.102  0.3303  0.2402 -0.1652
  104OSM   H13G10616   0.921   0.446   9.013 -1.6680  0.5315 -1.1880
  104OSM   C14F10617   0.894   0.616   8.893  0.3314  0.6513  0.4149
  104OSM   H14F10618   0.897   0.727   8.892  0.7111  0.6435 -0.8770
  104OSM   H14G10619   0.789   0.579   8.893  0.3282  0.3030  4.1653
  104OSM   C15F10620   0.975   0.568   8.763  0.3317  0.0218 -0.1436
  104OSM   H15F10621   0.998   0.460   8.758  1.2703  0.1852  0.3592
  104OSM   H15G10622   1.074   0.618   8.774  0.2145  0.8001 -2.2064
  104OSM   C16F10623   0.906   0.610   8.633 -0.0601  0.0344 -0.7216
  104OSM   H16F10624   0.909   0.721   8.630 -1.0120  0.2668  2.7644
  104OSM   H16G10625   0.801   0.575   8.625  0.6708 -1.9601 -2.3797
  104OSM   C17F10626   0.959   0.551   8.507  0.0168  0.0447  0.0893
  104OSM   H17F10627   1.070   0.554   8.504 -0.0217  2.1999 -1.6357
  104OSM   H17G10628   0.951   0.622   8.422 -1.2590  0.1547  0.2947
  104OSM   C18F10629   0.904   0.410   8.459 -0.5325 -0.4317 -0.8140
  104OSM   H18F10630   0.948   0.388   8.360  2.1227 -0.4958  0.3004
  104OSM   H18G10631   0.793   0.412   8.451 -0.5245  0.6474 -0.7575
  104OSM   H18H10632   0.930   0.329   8.531  1.1348  1.9574  1.4508
  105OSM      N10633   5.074   0.781  10.973 -0.3820 -0.0372  0.4508
  105OSM    C1510634   5.226   0.774  10.980  0.7032 -0.1691  0.1462
  105OSM   H15A10635   5.268   0.732  10.890  2.9335  1.1248  0.5176
  105OSM   H15B10636   5.271   0.724  11.064  1.3497  0.6905  0.3251
  105OSM   H15C10637   5.260   0.877  10.979  0.1484  0.0243 -1.2460
  105OSM    C1410638   5.008   0.640  10.965 -0.1293 -0.3658  0.1875
  105OSM   H14A10639   5.056   0.575  10.893  0.3617  0.6762 -0.4465
  105OSM   H14B10640   4.902   0.642  10.944 -0.4828 -0.2008  1.8966
  105OSM   H14C10641   5.010   0.591  11.061  0.5596  0.2745  0.5083
  105OSM    C1310642   5.027   0.843  11.096  0.7088 -0.0014  0.0903
  105OSM   H13A10643   4.921   0.854  11.079  0.3551 -2.1501  0.6268
  105OSM   H13B10644   5.066   0.943  11.114 -1.3210  0.6460  1.1295
  105OSM   H13C10645   5.040   0.779  11.181  1.8236 -0.3096 -0.2882
  105OSM    C1210646   5.034   0.851  10.851  0.1343  0.8578 -0.1480
  105OSM   H12A10647   4.927   0.853  10.835  0.2343  2.5417 -0.7545
  105OSM   H12B10648   5.079   0.797  10.769 -2.9342 -1.7845 -0.2922
  105OSM    C1110649   5.059   1.006  10.843  0.2150 -0.2547  0.3726
  105OSM   H11A10650   5.003   1.058  10.924 -0.0163  2.1500 -1.2318
  105OSM   H11B10651   5.019   1.050  10.749  0.8940  1.9987  1.0617
  105OSM      P10652   5.298   1.100  10.773  0.3925 -0.1389 -0.1704
  105OSM    O1310653   5.343   1.233  10.817 -0.0328 -0.2249 -0.0584
  105OSM    O1410654   5.397   0.990  10.755 -1.4127  0.0999 -0.2243
  105OSM    O1110655   5.212   1.117  10.639 -0.1326 -0.3236  0.0548
  105OSM    O1210656   5.192   1.039  10.872 -0.6428 -0.9142 -0.2835
  105OSM    C1S10657   5.222   1.229  10.556 -0.2247 -0.5113  0.0719
  105OSM    H1S10658   5.324   1.273  10.565  0.9781 -2.4349 -2.5742
  105OSM    H1T10659   5.145   1.300  10.593  1.2796  0.5865  1.2671
  105OSM     NF10660   5.233   1.324  10.334 -0.0993  0.0800  0.3593
  105OSM    HNF10661   5.158   1.367  10.285  0.2152  0.5233  0.2665
  105OSM    C2S10662   5.203   1.201  10.408 -0.0725  0.7832 -0.4000
  105OSM    H2S10663   5.277   1.123  10.381 -0.2487 -0.1560  1.6036
  105OSM    C3S10664   5.064   1.149  10.379  0.6282 -0.2642  0.1720
  105OSM    H3S10665   4.994   1.233  10.397  1.4758  1.1395 -2.5155
  105OSM     O310666   5.026   1.030  10.437  0.3160 -0.0969 -0.3196
  105OSM    HO310667   5.096   1.026  10.504  2.8640  3.0136 -2.4835
  105OSM    C4S10668   5.046   1.134  10.227 -0.1834  0.6388 -0.0415
  105OSM    H4S10669   5.117   1.066  10.179  0.7245  2.3484 -1.2332
  105OSM    C5S10670   4.955   1.191  10.153 -0.4331  0.2477  0.0914
  105OSM    H5S10671   4.874   1.245  10.203 -2.5757 -2.9308  0.3382
  105OSM    C6S10672   4.951   1.172  10.002 -0.1684 -0.5955  0.0023
  105OSM    H6S10673   4.945   1.272   9.955 -0.3621 -1.9650 -3.0933
  105OSM    H6T10674   4.861   1.117   9.968 -1.2389 -0.4825  2.4470
  105OSM    C7S10675   5.060   1.099   9.924 -0.7172  0.2855 -0.7392
  105OSM    H7S10676   5.066   0.992   9.951 -0.5430  0.8994  1.9464
  105OSM    H7T10677   5.160   1.143   9.943 -0.8200 -0.2080  1.2204
  105OSM    C8S10678   5.032   1.081   9.773 -0.9584  0.0155 -0.3202
  105OSM    H8S10679   5.021   1.180   9.723  0.8499  0.0477 -0.7116
  105OSM    H8T10680   4.938   1.023   9.759  0.1016 -2.0511  0.7196
  105OSM    C9S10681   5.143   0.982   9.710  0.5290 -0.0779  0.3789
  105OSM    H9S10682   5.155   0.896   9.779 -1.6601 -1.0064 -0.3269
  105OSM    H9T10683   5.229   1.053   9.717  0.5970 -0.1573  0.3412
  105OSM   C10S10684   5.104   0.940   9.565  0.1513  0.0493  0.0075
  105OSM   H10S10685   5.085   1.024   9.495 -0.2762 -1.2110 -1.4388
  105OSM   H10T10686   5.011   0.878   9.564 -0.7133  1.3052 -0.0711
  105OSM   C11S10687   5.210   0.850   9.496 -0.2059 -0.1536 -0.4573
  105OSM   H11S10688   5.274   0.800   9.572 -1.1332 -1.4408 -0.4764
  105OSM   H11T10689   5.282   0.919   9.447  1.7645 -1.1103  0.9346
  105OSM   C12S10690   5.146   0.761   9.386 -0.2658 -0.5460 -0.8427
  105OSM   H12S10691   5.073   0.831   9.340  0.1016  0.5272  0.1497
  105OSM   H12T10692   5.086   0.677   9.426 -3.5599  1.8220 -0.3647
  105OSM   C13S10693   5.255   0.706   9.290  0.1146 -0.5855 -0.0253
  105OSM   H13S10694   5.300   0.622   9.348 -0.6380 -0.8014  0.2633
  105OSM   H13T10695   5.331   0.777   9.252 -0.1703 -0.2571  0.0150
  105OSM   C14S10696   5.191   0.662   9.164  0.1978  0.0775 -0.7102
  105OSM   H14S10697   5.127   0.747   9.132  0.2195  0.2279 -0.3522
  105OSM   H14T10698   5.117   0.582   9.186  0.6224 -0.1385 -0.0426
  105OSM   C15S10699   5.288   0.627   9.055  0.0826  0.3385  0.0248
  105OSM   H15S10700   5.338   0.532   9.083 -1.6472 -0.5521  0.1779
  105OSM   H15T10701   5.368   0.704   9.045 -0.9952  1.6162  0.9013
  105OSM   C16S10702   5.209   0.600   8.920 -0.0485  0.5356  0.1331
  105OSM   H16S10703   5.151   0.695   8.909 -0.0189  0.5082 -0.2702
  105OSM   H16T10704   5.144   0.512   8.939 -2.5892  2.6245  2.0613
  105OSM   C17S10705   5.294   0.583   8.793  0.5704  0.3128  0.4228
  105OSM   H17S10706   5.342   0.483   8.803 -2.6231 -1.5281 -1.0612
  105OSM   H17T10707   5.365   0.668   8.787 -1.3584  1.8918 -1.7626
  105OSM   C18S10708   5.209   0.600   8.672 -0.6275 -0.3036 -0.2948
  105OSM   H18S10709   5.245   0.546   8.582 -1.0856 -0.3577 -0.4470
  105OSM   H18T10710   5.198   0.709   8.649  1.8314  0.0653 -0.0180
  105OSM   H18U10711   5.108   0.560   8.694  0.0716 -1.5480  0.7719
  105OSM    C1F10712   5.350   1.388  10.330 -0.2241  0.4076  0.1826
  105OSM     OF10713   5.456   1.328  10.354  0.2614  0.4839 -0.0979
  105OSM    C2F10714   5.353   1.533  10.296  0.3656 -0.3532  0.1880
  105OSM    H2F10715   5.317   1.594  10.382  2.1147  3.2760 -1.4200
  105OSM    H2G10716   5.286   1.555  10.211 -0.5834 -1.1395  0.7124
  105OSM    C3F10717   5.500   1.582  10.262  1.0153 -0.2004 -0.0526
  105OSM    H3F10718   5.581   1.549  10.330  1.1342  0.2335  0.0166
  105OSM    H3G10719   5.493   1.692  10.275 -0.1061 -0.4956  2.4652
  105OSM    C4F10720   5.539   1.554  10.115 -0.0086  1.1398 -0.3994
  105OSM    H4F10721   5.451   1.538  10.050 -0.4933  1.3450  0.2001
  105OSM    H4G10722   5.610   1.469  10.109 -1.0285 -0.2439  3.7803
  105OSM    C5F10723   5.602   1.674  10.043 -0.2564 -0.2070  0.4629
  105OSM    H5F10724   5.692   1.694  10.106 -0.3284  0.2290  0.4308
  105OSM    H5G10725   5.529   1.758  10.046 -0.5411 -0.3772 -0.9629
  105OSM    C6F10726   5.644   1.654   9.893 -0.5271  0.1071 -0.3717
  105OSM    H6F10727   5.574   1.584   9.841 -1.5359  1.4393 -0.8766
  105OSM    H6G10728   5.747   1.615   9.889  0.1230  1.2990  2.3925
  105OSM    C7F10729   5.646   1.788   9.811  0.1286  0.3445 -0.8756
  105OSM    H7F10730   5.713   1.856   9.868  0.7855 -2.7032  2.3461
  105OSM    H7G10731   5.545   1.836   9.815  0.0626  0.2024 -0.8135
  105OSM    C8F10732   5.675   1.767   9.656 -1.4640  0.4290  0.6091
  105OSM    H8F10733   5.603   1.693   9.616  1.5603 -3.5397  1.8876
  105OSM    H8G10734   5.773   1.715   9.659 -1.7900 -0.3868 -1.3507
  105OSM    C9F10735   5.683   1.902   9.580  0.1315  0.0733 -0.2565
  105OSM    H9F10736   5.770   1.964   9.604  0.6174 -0.7226  0.1108
  105OSM   C10F10737   5.598   1.955   9.489  0.1675 -0.3327  0.5802
  105OSM   H10F10738   5.624   2.053   9.447 -0.8875 -0.8428 -1.4040
  105OSM   C11F10739   5.474   1.894   9.429  0.6030 -1.0845 -0.4422
  105OSM   H11F10740   5.452   1.790   9.463 -1.8949 -0.8007 -0.9711
  105OSM   H11G10741   5.492   1.881   9.320  0.4125  0.6143 -0.7014
  105OSM   C12F10742   5.346   1.979   9.454 -0.3139  0.2971  0.0362
  105OSM   H12F10743   5.259   1.938   9.398 -1.6684  2.7087  0.2643
  105OSM   H12G10744   5.373   2.074   9.405 -0.9491 -0.5879 -2.1888
  105OSM   C13F10745   5.299   1.983   9.597  0.2367 -0.1777  0.5276
  105OSM   H13F10746   5.209   2.049   9.599  0.5094  0.3495 -1.6625
  105OSM   H13G10747   5.384   2.023   9.657  2.0125 -1.8899 -0.7284
  105OSM   C14F10748   5.259   1.842   9.658  0.2354  0.2626 -0.1402
  105OSM   H14F10749   5.336   1.768   9.628 -0.2598 -0.2503 -0.1725
  105OSM   H14G10750   5.172   1.787   9.615  0.3650  0.3504 -0.5078
  105OSM   C15F10751   5.235   1.847   9.812  0.0888  0.2520  1.6229
  105OSM   H15F10752   5.159   1.928   9.821  1.0895  1.5430 -0.7312
  105OSM   H15G10753   5.333   1.877   9.853  0.5386  2.6670 -0.9254
  105OSM   C16F10754   5.182   1.715   9.863 -0.0573 -0.2096  0.0626
  105OSM   H16F10755   5.075   1.707   9.833 -0.2619  1.3338  0.3178
  105OSM   H16G10756   5.185   1.726   9.974  3.6799 -1.3359  0.2020
  105OSM   C17F10757   5.258   1.592   9.816  0.0820 -0.0144  0.3248
  105OSM   H17F10758   5.366   1.607   9.837 -0.0046 -0.4083  1.0998
  105OSM   H17G10759   5.238   1.579   9.708 -0.6112 -1.7621  0.6235
  105OSM   C18F10760   5.220   1.459   9.885  0.5465  0.2509  0.5294
  105OSM   H18F10761   5.216   1.379   9.808  2.5381  3.2481 -3.0807
  105OSM   H18G10762   5.118   1.470   9.927  0.0255 -0.8870 -0.3906
  105OSM   H18H10763   5.293   1.428   9.962  1.5801  0.1608 -0.4498
  106OSM      N10764   2.993   2.413  10.887  0.6048 -0.3983 -0.1125
  106OSM    C1510765   3.122   2.477  10.898 -0.5569  0.3956 -0.1003
  106OSM   H15A10766   3.118   2.563  10.963 -0.7438  0.9988 -0.8922
  106OSM   H15B10767   3.135   2.525  10.802  0.9646  1.9789  0.8317
  106OSM   H15C10768   3.202   2.410  10.926  0.4431  1.9392  0.8600
  106OSM    C1410769   2.981   2.314  10.772 -0.7346  0.0967  0.7318
  106OSM   H14A10770   3.053   2.236  10.792  0.8185  1.7326  1.7012
  106OSM   H14B10771   3.012   2.355  10.677 -1.5556 -2.7367 -0.8883
  106OSM   H14C10772   2.883   2.270  10.754 -0.7073  0.2504  0.1663
  106OSM    C1310773   2.965   2.330  11.013 -0.4648 -0.3221  0.0819
  106OSM   H13A10774   3.053   2.275  11.042 -0.0534 -0.6102 -1.6447
  106OSM   H13B10775   2.886   2.258  10.998 -0.1406 -0.7973  0.6026
  106OSM   H13C10776   2.946   2.404  11.090  2.6338  2.0504 -1.2418
  106OSM    C1210777   2.885   2.520  10.862 -0.0306 -0.0661  0.2519
  106OSM   H12A10778   2.893   2.601  10.933 -1.0126 -0.0647  0.3668
  106OSM   H12B10779   2.791   2.467  10.865  1.1491 -2.4027 -1.1070
  106OSM    C1110780   2.881   2.583  10.721 -0.4909 -0.6128 -0.1616
  106OSM   H11A10781   2.779   2.628  10.719  0.3555  1.4048 -0.4666
  106OSM   H11B10782   2.887   2.505  10.642 -0.0824 -0.1623 -0.5845
  106OSM      P10783   2.989   2.831  10.718  0.4480  0.4716  0.0050
  106OSM    O1310784   2.974   2.868  10.859 -0.2423  0.0258 -0.0263
  106OSM    O1410785   3.104   2.894  10.657  0.0196 -0.1964  0.3943
  106OSM    O1110786   2.857   2.876  10.641 -0.0938  0.1080 -0.4919
  106OSM    O1210787   2.991   2.676  10.706 -0.1766 -0.3843  0.1898
  106OSM    C1S10788   2.860   2.945  10.518  0.7331 -1.2754 -0.8241
  106OSM    H1S10789   2.889   2.880  10.433 -1.1257 -0.4143 -2.1709
  106OSM    H1T10790   2.924   3.035  10.530 -2.7124  1.0263  3.1127
  106OSM     NF10791   2.711   3.052  10.341  0.3289  0.0912  0.0003
  106OSM    HNF10792   2.731   3.147  10.318  1.7957 -0.1613  0.1035
  106OSM    C2S10793   2.727   3.009  10.488 -0.7265  0.2527 -0.5608
  106OSM    H2S10794   2.645   2.936  10.504 -2.2069  2.0854  0.7631
  106OSM    C3S10795   2.701   3.130  10.586  0.3071 -0.4775  1.0356
  106OSM    H3S10796   2.774   3.213  10.580  0.0415 -0.1381  2.1637
  106OSM     O310797   2.707   3.096  10.726 -0.2118  0.4708  0.3172
  106OSM    HO310798   2.731   3.003  10.727 -1.3634  0.1313  1.9254
  106OSM    C4S10799   2.560   3.175  10.567  0.4444 -0.1423  0.3418
  106OSM    H4S10800   2.488   3.100  10.604  0.9115 -0.5332  0.4705
  106OSM    C5S10801   2.527   3.285  10.495  0.2474 -0.1758  0.4390
  106OSM    H5S10802   2.606   3.351  10.455  0.3371 -0.7944 -0.4240
  106OSM    C6S10803   2.382   3.329  10.468 -0.7196 -1.1173 -0.1856
  106OSM    H6S10804   2.386   3.433  10.429  0.7212 -1.6343 -1.4638
  106OSM    H6T10805   2.325   3.329  10.564 -0.8447  0.8448 -0.2136
  106OSM    C7S10806   2.296   3.238  10.374 -0.0759  0.6830  0.6454
  106OSM    H7S10807   2.193   3.279  10.380 -0.7644 -0.5840 -1.2767
  106OSM    H7T10808   2.279   3.138  10.419  1.2465  0.8092  1.4536
  106OSM    C8S10809   2.351   3.228  10.232  0.3320 -0.1598  0.5913
  106OSM    H8S10810   2.453   3.185  10.245  0.6333  0.3756  0.0295
  106OSM    H8T10811   2.373   3.325  10.183 -0.0525 -0.7811 -0.8766
  106OSM    C9S10812   2.260   3.156  10.133 -0.8906 -0.1199  0.1367
  106OSM    H9S10813   2.160   3.204  10.122 -1.4326 -1.3672 -0.5260
  106OSM    H9T10814   2.239   3.060  10.184 -1.4201  1.0962  2.3765
  106OSM   C10S10815   2.336   3.115  10.002 -0.3374 -0.6899  0.3708
  106OSM   H10S10816   2.351   3.005  10.001 -1.8989 -0.9668  1.9214
  106OSM   H10T10817   2.442   3.149   9.999  0.6113 -3.3188  1.2727
  106OSM   C11S10818   2.255   3.175   9.884 -0.1810 -0.6520 -0.3150
  106OSM   H11S10819   2.270   3.285   9.896 -0.2969 -0.4638 -1.7027
  106OSM   H11T10820   2.147   3.148   9.887  0.1394 -2.6016 -2.7307
  106OSM   C12S10821   2.319   3.122   9.751  0.0228  0.3231 -0.1318
  106OSM   H12S10822   2.319   3.012   9.762 -2.0646  0.5356  3.4604
  106OSM   H12T10823   2.427   3.149   9.751 -0.1182  0.9982  1.3820
  106OSM   C13S10824   2.255   3.167   9.621 -0.0791 -0.1964  0.2226
  106OSM   H13S10825   2.249   3.278   9.630  1.5653 -0.2526  4.0485
  106OSM   H13T10826   2.150   3.137   9.601 -0.6644  1.7057  0.2181
  106OSM   C14S10827   2.355   3.145   9.508  0.4650 -0.2188 -0.5749
  106OSM   H14S10828   2.380   3.037   9.505 -0.3568 -0.4387  0.2148
  106OSM   H14T10829   2.449   3.204   9.503 -0.3994  1.1320 -1.6377
  106OSM   C15S10830   2.307   3.172   9.358 -0.0380  0.7678 -0.3590
  106OSM   H15S10831   2.394   3.159   9.289 -1.0619 -0.9125 -1.3733
  106OSM   H15T10832   2.278   3.279   9.350  0.4037  1.0157  1.0871
  106OSM   C16S10833   2.198   3.075   9.305 -0.3575  0.3552 -0.1968
  106OSM   H16S10834   2.169   3.118   9.207 -2.3950 -0.5858 -0.0740
  106OSM   H16T10835   2.103   3.075   9.362 -0.5425 -3.9185 -0.1879
  106OSM   C17S10836   2.229   2.920   9.290  0.2225  0.1407 -0.0038
  106OSM   H17S10837   2.264   2.882   9.388  0.5402  1.4280  0.3943
  106OSM   H17T10838   2.313   2.899   9.221 -0.5146 -1.0239 -0.5808
  106OSM   C18S10839   2.099   2.838   9.258 -0.6615 -0.0880  0.3924
  106OSM   H18S10840   2.044   2.884   9.173  0.2603 -0.4766 -0.4323
  106OSM   H18T10841   2.034   2.828   9.347  0.0401  2.6549  1.3009
  106OSM   H18U10842   2.130   2.735   9.228  0.8484  0.3112  0.5165
  106OSM    C1F10843   2.730   2.959  10.241 -0.0058  0.3480 -0.3938
  106OSM     OF10844   2.725   2.838  10.268 -0.3045 -0.2410 -0.3044
  106OSM    C2F10845   2.750   3.010  10.102 -0.1191 -0.3409  0.1031
  106OSM    H2F10846   2.828   3.088  10.096 -1.1097  0.6311 -0.4415
  106OSM    H2G10847   2.656   3.064  10.075 -1.3808 -2.3430  0.2259
  106OSM    C3F10848   2.751   2.891   9.992  0.3557 -0.7449 -0.4809
  106OSM    H3F10849   2.678   2.813  10.022  0.1037 -0.1042  0.6407
  106OSM    H3G10850   2.852   2.844   9.989 -0.3565 -2.2963 -2.3029
  106OSM    C4F10851   2.740   2.944   9.851  0.2928 -0.0204  0.1745
  106OSM    H4F10852   2.817   3.024   9.845  0.3258 -0.1342 -1.0819
  106OSM    H4G10853   2.642   2.989   9.824 -0.3026 -2.0913 -1.3329
  106OSM    C5F10854   2.765   2.846   9.737 -0.4337  0.9926  0.4185
  106OSM    H5F10855   2.701   2.756   9.751 -0.4475  0.3450 -2.9780
  106OSM    H5G10856   2.866   2.802   9.752 -1.0559 -0.5044  0.3953
  106OSM    C6F10857   2.748   2.898   9.601  0.1360 -0.7803 -0.7763
  106OSM    H6F10858   2.805   2.993   9.598  0.7961 -1.1909 -1.7142
  106OSM    H6G10859   2.642   2.911   9.573 -0.1087 -0.9748  0.0268
  106OSM    C7F10860   2.810   2.807   9.492 -0.0001 -0.6992 -0.2269
  106OSM    H7F10861   2.769   2.705   9.512  0.5065 -0.4763  2.2624
  106OSM    H7G10862   2.919   2.788   9.504  0.0781 -0.7820 -1.0287
  106OSM    C8F10863   2.791   2.850   9.348 -0.1902  0.2202 -0.8402
  106OSM    H8F10864   2.825   2.758   9.296  1.3080  0.4849 -0.3631
  106OSM    H8G10865   2.864   2.931   9.330  0.4178 -0.0075  0.4313
  106OSM    C9F10866   2.662   2.889   9.300  0.2223 -0.3715  0.6359
  106OSM    H9F10867   2.572   2.843   9.342 -0.5044  0.5174  0.1018
  106OSM   C10F10868   2.634   2.982   9.208  0.1721 -0.6600  0.4405
  106OSM   H10F10869   2.526   2.997   9.189 -0.2644 -3.9030 -0.3343
  106OSM   C11F10870   2.731   3.076   9.143 -0.0431  0.3108 -0.2788
  106OSM   H11F10871   2.832   3.080   9.188 -0.4441  0.2775  0.6535
  106OSM   H11G10872   2.681   3.174   9.159 -3.5363 -0.8759 -2.5058
  106OSM   C12F10873   2.732   3.061   8.988 -0.4884  0.1516  0.0078
  106OSM   H12F10874   2.788   3.139   8.933 -1.7356  0.5074 -0.8162
  106OSM   H12G10875   2.630   3.061   8.945 -0.3356  1.3484 -0.3843
  106OSM   C13F10876   2.799   2.925   8.945  0.2994 -0.1477 -0.1116
  106OSM   H13F10877   2.738   2.845   8.992 -2.1976  1.7208  0.0728
  106OSM   H13G10878   2.900   2.918   8.990  0.2110 -3.3294 -0.1755
  106OSM   C14F10879   2.808   2.914   8.794  0.3429 -0.5651  0.0548
  106OSM   H14F10880   2.878   2.830   8.773  2.7985  1.0618  1.2609
  106OSM   H14G10881   2.853   3.010   8.759 -0.6329  0.5979  1.8061
  106OSM   C15F10882   2.676   2.896   8.712 -0.0724  0.7649  0.1406
  106OSM   H15F10883   2.645   2.996   8.673  0.8166  0.4421 -1.4902
  106OSM   H15G10884   2.599   2.850   8.776 -0.9614  1.7448 -0.2042
  106OSM   C16F10885   2.681   2.813   8.580 -0.0158  0.0742  0.2607
  106OSM   H16F10886   2.711   2.708   8.601 -1.1662 -0.4377 -0.5525
  106OSM   H16G10887   2.765   2.855   8.520  0.8481 -1.9471 -0.0289
  106OSM   C17F10888   2.549   2.816   8.503  0.4830 -0.0085 -0.7235
  106OSM   H17F10889   2.509   2.920   8.494  0.3657 -0.1702 -2.2694
  106OSM   H17G10890   2.487   2.757   8.574 -0.0753 -0.7733 -1.8168
  106OSM   C18F10891   2.553   2.746   8.361  0.3828 -0.2720 -0.6761
  106OSM   H18F10892   2.628   2.799   8.298  0.8253 -1.5199 -1.2199
  106OSM   H18G10893   2.460   2.760   8.302  0.1103  1.3462  0.0807
  106OSM   H18H10894   2.589   2.641   8.367 -0.2451 -0.4167  0.9620
  107OSM      N10895   6.495   0.520  11.171  0.5578  0.3730 -0.1649
  107OSM    C1510896   6.369   0.522  11.092  0.2100 -0.3594 -0.1321
  107OSM   H15A10897   6.385   0.586  11.007  3.9103 -1.5306 -0.4882
  107OSM   H15B10898   6.286   0.555  11.154  0.5111  1.8232 -0.8129
  107OSM   H15C10899   6.345   0.424  11.054 -0.1828  0.2857 -1.6152
  107OSM    C1410900   6.530   0.660  11.217  0.7459 -0.3531 -0.3972
  107OSM   H14A10901   6.459   0.701  11.287  1.7522  1.9202 -0.6016
  107OSM   H14B10902   6.528   0.730  11.134 -1.5008  2.2339  1.6447
  107OSM   H14C10903   6.624   0.679  11.267  1.8517 -0.7438 -2.2217
  107OSM    C1310904   6.448   0.440  11.288  0.0350 -0.5233 -0.9181
  107OSM   H13A10905   6.380   0.498  11.349 -0.6174 -0.5112 -1.6504
  107OSM   H13B10906   6.526   0.404  11.355 -0.3546  0.4378  0.0917
  107OSM   H13C10907   6.398   0.350  11.256  1.6485 -1.3567 -1.2152
  107OSM    C1210908   6.601   0.445  11.106  0.1938  0.5024 -0.1359
  107OSM   H12A10909   6.560   0.350  11.074  0.9457  0.2834 -0.4750
  107OSM   H12B10910   6.669   0.419  11.186 -1.8104  0.6325  1.6923
  107OSM    C1110911   6.665   0.510  10.984  0.0955  0.3297 -0.3457
  107OSM   H11A10912   6.719   0.597  11.026  1.7868 -1.4706  1.4815
  107OSM   H11B10913   6.590   0.537  10.906 -1.3947 -0.8519  0.6042
  107OSM      P10914   6.736   0.280  10.881  0.7186  0.3605  0.5124
  107OSM    O1310915   6.861   0.221  10.826  0.3541 -0.3200 -0.2081
  107OSM    O1410916   6.655   0.196  10.976  0.1553 -0.3691  0.2304
  107OSM    O1110917   6.642   0.307  10.752 -0.3836 -0.1040  0.6199
  107OSM    O1210918   6.765   0.423  10.943 -0.0436  0.4935 -0.4747
  107OSM    C1S10919   6.696   0.404  10.659 -0.7135  0.4575  0.6969
  107OSM    H1S10920   6.807   0.411  10.654 -0.7994  1.4596 -0.4429
  107OSM    H1T10921   6.656   0.505  10.681 -2.5226  0.5377 -2.4456
  107OSM     NF10922   6.712   0.466  10.417 -0.1217  0.3150 -0.5596
  107OSM    HNF10923   6.661   0.540  10.376 -1.0507 -0.5260 -0.9695
  107OSM    C2S10924   6.634   0.387  10.515  0.7905  0.1207 -0.2375
  107OSM    H2S10925   6.629   0.278  10.493 -1.3372  0.3211 -0.9486
  107OSM    C3S10926   6.480   0.414  10.522 -1.0731  0.4813  0.4054
  107OSM    H3S10927   6.451   0.507  10.575 -1.4499  0.3836  0.3772
  107OSM     O310928   6.414   0.316  10.600  0.8075 -0.0882 -0.0821
  107OSM    HO310929   6.471   0.300  10.675 -1.9015 -2.8274  1.6618
  107OSM    C4S10930   6.423   0.409  10.387  0.6268  0.3844 -0.2757
  107OSM    H4S10931   6.410   0.508  10.342 -0.4824  0.2819 -0.1909
  107OSM    C5S10932   6.395   0.298  10.313 -0.2727  0.5108  0.8356
  107OSM    H5S10933   6.433   0.198  10.339  0.7907  0.2768 -1.3500
  107OSM    C6S10934   6.342   0.305  10.173  0.7219  0.2850 -0.1894
  107OSM    H6S10935   6.233   0.291  10.191  0.6492  0.3551 -0.5725
  107OSM    H6T10936   6.368   0.215  10.113 -3.0218 -1.9407  1.1260
  107OSM    C7S10937   6.377   0.431  10.094 -0.3845  0.1324  0.9939
  107OSM    H7S10938   6.487   0.434  10.104  0.2007 -2.2858 -2.8430
  107OSM    H7T10939   6.323   0.525  10.121  0.4382  1.7405 -2.4598
  107OSM    C8S10940   6.347   0.417   9.939  0.0256 -0.2928  0.0778
  107OSM    H8S10941   6.375   0.313   9.910  1.8818 -0.0100  0.7594
  107OSM    H8T10942   6.416   0.484   9.884 -0.0540  1.1845  1.6878
  107OSM    C9S10943   6.200   0.438   9.903  0.4688  0.3344 -0.5844
  107OSM    H9S10944   6.171   0.544   9.918  0.1928  0.0434  1.2182
  107OSM    H9T10945   6.130   0.386   9.972  2.6085 -1.5817  0.2605
  107OSM   C10S10946   6.165   0.391   9.758 -0.7273 -0.0722 -0.4647
  107OSM   H10S10947   6.056   0.402   9.736 -1.1963 -1.7430  0.7958
  107OSM   H10T10948   6.183   0.282   9.751  1.4715  0.1548  0.7303
  107OSM   C11S10949   6.243   0.469   9.649 -0.9553  0.0499 -0.1075
  107OSM   H11S10950   6.353   0.450   9.655 -0.1941  3.1321 -1.9773
  107OSM   H11T10951   6.239   0.578   9.675  0.4431 -0.1489  1.1356
  107OSM   C12S10952   6.191   0.435   9.513 -0.1652 -0.0613  0.6879
  107OSM   H12S10953   6.086   0.471   9.515 -0.0956  0.1454  2.3593
  107OSM   H12T10954   6.186   0.325   9.496  2.4075  0.1798 -2.5738
  107OSM   C13S10955   6.268   0.512   9.404 -0.4231 -0.2755 -0.5979
  107OSM   H13S10956   6.375   0.498   9.429 -0.1479  2.2963 -0.0958
  107OSM   H13T10957   6.259   0.621   9.419  0.9653 -0.5701  3.5864
  107OSM   C14S10958   6.248   0.460   9.261 -0.2654 -0.1797  0.0950
  107OSM   H14S10959   6.293   0.359   9.264  1.3903  0.5423  1.2413
  107OSM   H14T10960   6.314   0.520   9.195 -1.4445  1.0266 -0.0390
  107OSM   C15S10961   6.104   0.462   9.207  0.0366 -0.5032 -0.2300
  107OSM   H15S10962   6.036   0.541   9.245 -0.4713  0.1009 -2.2729
  107OSM   H15T10963   6.049   0.370   9.233 -1.9982  0.0684 -2.1836
  107OSM   C16S10964   6.103   0.473   9.052 -0.1137  0.1013  0.1938
  107OSM   H16S10965   5.997   0.470   9.018 -0.0856 -0.3607  0.1533
  107OSM   H16T10966   6.157   0.387   9.008 -1.5568 -0.8791  0.2661
  107OSM   C17S10967   6.151   0.605   8.989 -0.1896  0.5927  0.2354
  107OSM   H17S10968   6.255   0.600   8.951 -0.6684 -0.3827 -0.9977
  107OSM   H17T10969   6.132   0.686   9.062 -1.5487  1.1958 -0.7595
  107OSM   C18S10970   6.082   0.633   8.852  0.7665 -0.6518  0.1252
  107OSM   H18S10971   6.080   0.543   8.787 -1.9229 -0.2256 -0.5074
  107OSM   H18T10972   6.132   0.723   8.811 -1.4353  1.4302  1.7017
  107OSM   H18U10973   5.975   0.663   8.863  0.5264 -1.1967 -0.6372
  107OSM    C1F10974   6.842   0.453  10.391 -0.5700 -0.0007 -0.2872
  107OSM     OF10975   6.906   0.353  10.426 -0.6223  0.3550  0.0265
  107OSM    C2F10976   6.902   0.567  10.319  0.8841 -0.2407 -0.7601
  107OSM    H2F10977   6.992   0.593  10.377 -0.6204 -0.0504  1.6209
  107OSM    H2G10978   6.821   0.644  10.317 -0.1271 -1.2234  0.5064
  107OSM    C3F10979   6.932   0.539  10.172 -0.1638  1.1332  0.3902
  107OSM    H3F10980   7.016   0.466  10.171 -2.8037 -2.1263 -0.7967
  107OSM    H3G10981   6.966   0.634  10.126  0.6190 -0.3764 -2.4091
  107OSM    C4F10982   6.815   0.475  10.088  0.5432 -0.0751  0.7236
  107OSM    H4F10983   6.723   0.533  10.108 -0.7988 -1.0870 -1.9519
  107OSM    H4G10984   6.800   0.368  10.114 -0.3897 -0.3785 -0.9162
  107OSM    C5F10985   6.852   0.489   9.934  0.9762 -0.4222  0.1587
  107OSM    H5F10986   6.924   0.410   9.903  0.8526  0.4466 -2.6765
  107OSM    H5G10987   6.897   0.589   9.916  0.1978  0.4270  2.5254
  107OSM    C6F10988   6.721   0.492   9.849 -0.1131  0.0722 -0.5063
  107OSM    H6F10989   6.640   0.552   9.896 -1.2759 -2.8063  1.5031
  107OSM    H6G10990   6.679   0.390   9.833  1.0781 -0.3091 -1.3672
  107OSM    C7F10991   6.741   0.561   9.712  0.4855 -1.1772 -0.3424
  107OSM    H7F10992   6.787   0.661   9.730 -2.4453 -0.1885  2.7548
  107OSM    H7G10993   6.640   0.583   9.672  0.5673  0.7968  0.4330
  107OSM    C8F10994   6.814   0.476   9.610  0.0548  0.2227 -0.2475
  107OSM    H8F10995   6.745   0.394   9.582  0.1610  0.7422 -2.2045
  107OSM    H8G10996   6.892   0.415   9.660 -0.9803 -1.0795 -0.1489
  107OSM    C9F10997   6.874   0.555   9.495  0.0212  0.1676 -0.5537
  107OSM    H9F10998   6.952   0.631   9.512 -1.3947  1.4199  0.6160
  107OSM   C10F10999   6.843   0.541   9.361  0.8341 -0.0392  0.0414
  107OSM   H10F11000   6.895   0.605   9.290  0.8924 -0.7185 -0.5376
  107OSM   C11F11001   6.739   0.457   9.298 -0.4990 -0.3636 -0.9545
  107OSM   H11F11002   6.667   0.440   9.381 -0.6003 -0.1290 -0.9936
  107OSM   H11G11003   6.799   0.366   9.277 -0.8499 -0.4349 -1.6897
  107OSM   C12F11004   6.685   0.523   9.169  0.7353  0.3085 -0.4382
  107OSM   H12F11005   6.640   0.622   9.190 -0.0189 -0.1614  0.2012
  107OSM   H12G11006   6.603   0.453   9.142  2.0533 -1.6025  0.2840
  107OSM   C13F11007   6.775   0.527   9.047  0.0169  0.9026 -0.4868
  107OSM   H13F11008   6.810   0.423   9.033 -1.7832 -0.4217  3.3474
  107OSM   H13G11009   6.864   0.592   9.060 -0.0628  0.4493  3.6341
  107OSM   C14F11010   6.695   0.562   8.920  0.2303 -0.4404 -0.7500
  107OSM   H14F11011   6.677   0.672   8.926  3.5071  0.1220  2.1192
  107OSM   H14G11012   6.599   0.507   8.914  1.7207 -3.1472 -1.2088
  107OSM   C15F11013   6.775   0.526   8.797 -0.1718 -0.5286 -1.6725
  107OSM   H15F11014   6.882   0.548   8.817 -0.4447 -0.0022 -0.6938
  107OSM   H15G11015   6.724   0.583   8.717  1.6228  1.3038 -1.5686
  107OSM   C16F11016   6.771   0.375   8.762 -0.5819  0.5306 -0.7659
  107OSM   H16F11017   6.667   0.340   8.779 -0.1609 -0.5318 -0.3048
  107OSM   H16G11018   6.831   0.308   8.827 -1.2184  0.6219 -0.0641
  107OSM   C17F11019   6.810   0.346   8.617 -0.1373 -0.4011 -0.6920
  107OSM   H17F11020   6.748   0.408   8.549 -0.0677  0.7206  0.2314
  107OSM   H17G11021   6.781   0.241   8.596  1.4477 -0.9371 -0.3006
  107OSM   C18F11022   6.961   0.364   8.602 -0.1819  0.4198  0.1133
  107OSM   H18F11023   7.010   0.299   8.677 -1.4435 -0.7026  0.0016
  107OSM   H18G11024   6.991   0.470   8.616  2.8756 -0.2897 -0.2529
  107OSM   H18H11025   6.984   0.335   8.497 -0.5454  0.1662  0.1037
  108OSM      N11026   2.683   1.472  10.982 -0.2060 -0.3084  1.0680
  108OSM    C1511027   2.621   1.607  10.969 -0.3560 -0.4324 -0.3284
  108OSM   H15A11028   2.598   1.632  10.867 -0.5682  0.3023 -0.1019
  108OSM   H15B11029   2.702   1.675  10.991  0.0360 -1.0083  0.0613
  108OSM   H15C11030   2.538   1.628  11.036 -0.3688  1.9512 -1.0087
  108OSM    C1411031   2.745   1.463  11.117  0.4281  0.2231  0.0363
  108OSM   H14A11032   2.673   1.478  11.196 -0.1062 -1.3871 -0.1095
  108OSM   H14B11033   2.817   1.544  11.114  0.7606 -0.0338  0.9410
  108OSM   H14C11034   2.799   1.371  11.131 -0.4253 -0.2522  0.2738
  108OSM    C1311035   2.577   1.371  10.968 -0.3627 -0.1406  0.1380
  108OSM   H13A11036   2.617   1.270  10.974  0.2406  0.0010 -1.2449
  108OSM   H13B11037   2.531   1.368  10.871  0.7566 -0.4193 -0.3992
  108OSM   H13C11038   2.499   1.386  11.041  1.1827  1.4137  1.5548
  108OSM    C1211039   2.790   1.446  10.875 -0.8015 -0.5525 -0.2339
  108OSM   H12A11040   2.833   1.348  10.890  3.5007  1.4862  2.6927
  108OSM   H12B11041   2.876   1.510  10.888 -0.7836 -0.9273  1.7498
  108OSM    C1111042   2.755   1.451  10.719 -0.9721  0.0594 -0.9375
  108OSM   H11A11043   2.682   1.370  10.696 -0.3264 -0.8597  0.1637
  108OSM   H11B11044   2.852   1.426  10.671 -0.2829 -0.4620  0.6822
  108OSM      P11045   2.779   1.704  10.623  0.0955  0.0324 -0.1387
  108OSM    O1311046   2.687   1.814  10.593  0.2812  0.0993  0.4971
  108OSM    O1411047   2.892   1.742  10.719  0.4461  0.3884  0.3864
  108OSM    O1111048   2.832   1.656  10.482  0.9655  0.3704 -0.3895
  108OSM    O1211049   2.704   1.577  10.679 -0.0884 -0.8140  0.0632
  108OSM    C1S11050   2.749   1.575  10.396 -1.3025 -0.2167  0.5843
  108OSM    H1S11051   2.645   1.613  10.397 -0.9135  1.0177 -1.0006
  108OSM    H1T11052   2.757   1.465  10.413 -4.1290 -0.4062  1.1574
  108OSM     NF11053   2.709   1.539  10.145 -0.0180  0.4226  0.2251
  108OSM    HNF11054   2.701   1.441  10.131  1.1163  0.4100 -0.4416
  108OSM    C2S11055   2.803   1.584  10.247 -0.3036 -0.1345 -0.1185
  108OSM    H2S11056   2.837   1.687  10.224  0.3235  0.1059  1.7270
  108OSM    C3S11057   2.940   1.504  10.248 -0.0466  0.4806  0.6702
  108OSM    H3S11058   2.909   1.397  10.244 -1.8698  0.9927 -2.1520
  108OSM     O311059   3.033   1.533  10.354  0.1652 -0.0468 -0.0104
  108OSM    HO311060   2.984   1.592  10.412  1.5472 -0.3911  1.5845
  108OSM    C4S11061   3.007   1.531  10.115 -0.2614 -0.3639 -0.4363
  108OSM    H4S11062   3.041   1.636  10.108 -2.7057  0.4388 -1.0107
  108OSM    C5S11063   3.053   1.446  10.026  0.3331 -0.2531  0.6455
  108OSM    H5S11064   3.031   1.338  10.030  1.1803 -0.3966  2.4938
  108OSM    C6S11065   3.135   1.492   9.906 -0.1540 -0.2782  0.8638
  108OSM    H6S11066   3.236   1.447   9.916  0.0585  0.0459  0.2315
  108OSM    H6T11067   3.160   1.600   9.896  1.4641 -0.8805 -4.2828
  108OSM    C7S11068   3.077   1.468   9.763 -0.8298 -0.9949 -0.2142
  108OSM    H7S11069   2.989   1.536   9.759 -1.1208 -1.3500 -0.0105
  108OSM    H7T11070   3.035   1.366   9.744  0.6659 -2.3299  2.8844
  108OSM    C8S11071   3.170   1.518   9.652  0.0252  0.0508 -0.0694
  108OSM    H8S11072   3.267   1.463   9.646  0.1988  0.3578 -0.1307
  108OSM    H8T11073   3.191   1.627   9.666  0.0943  0.0320 -0.0260
  108OSM    C9S11074   3.098   1.515   9.511 -0.1069  0.8263  0.4988
  108OSM    H9S11075   3.150   1.582   9.440  1.1310  0.3171  0.8834
  108OSM    H9T11076   2.994   1.542   9.536 -0.5763 -1.8670  1.9088
  108OSM   C10S11077   3.111   1.378   9.432 -0.2185 -0.6625  0.0109
  108OSM   H10S11078   3.098   1.290   9.499  0.8026 -1.5186 -0.8922
  108OSM   H10T11079   3.207   1.370   9.376  0.3435 -0.5877  0.9516
  108OSM   C11S11080   2.999   1.376   9.318  0.1236  0.1584  0.1350
  108OSM   H11S11081   2.902   1.409   9.361  0.2670 -2.0210  2.3644
  108OSM   H11T11082   2.985   1.272   9.281  1.2697  0.2567 -0.6277
  108OSM   C12S11083   3.045   1.481   9.211  0.7857  0.5847 -0.2948
  108OSM   H12S11084   3.049   1.581   9.259 -1.4601  0.4613  0.2700
  108OSM   H12T11085   2.963   1.497   9.137 -0.6732  1.6066  1.4526
  108OSM   C13S11086   3.174   1.452   9.136 -0.5064 -0.5440 -0.2295
  108OSM   H13S11087   3.163   1.350   9.094 -2.2507 -1.1542  1.5673
  108OSM   H13T11088   3.263   1.435   9.200 -0.2301  1.6600  0.0612
  108OSM   C14S11089   3.198   1.552   9.018  0.0918  0.1806  0.4426
  108OSM   H14S11090   3.197   1.653   9.065  2.5923  1.4686 -2.0054
  108OSM   H14T11091   3.104   1.542   8.959 -0.3455  0.5953  1.0458
  108OSM   C15S11092   3.320   1.538   8.921 -0.4139 -0.3374 -0.1335
  108OSM   H15S11093   3.411   1.527   8.984 -0.5560  0.2586  0.1892
  108OSM   H15T11094   3.341   1.628   8.859 -0.7595 -0.1909 -0.0380
  108OSM   C16S11095   3.318   1.409   8.837 -0.3873 -0.5436 -0.9992
  108OSM   H16S11096   3.254   1.419   8.747 -3.4163  1.8491  1.1857
  108OSM   H16T11097   3.269   1.334   8.902  0.1359  1.1646  1.5262
  108OSM   C17S11098   3.457   1.368   8.785 -0.7424 -0.6089  0.9707
  108OSM   H17S11099   3.448   1.284   8.713 -0.6226  0.5550 -0.4481
  108OSM   H17T11100   3.521   1.337   8.870  1.2533  0.6793  0.0180
  108OSM   C18S11101   3.533   1.484   8.714 -0.6291  1.4047  0.4618
  108OSM   H18S11102   3.550   1.567   8.787  1.4106  0.1588  1.4987
  108OSM   H18T11103   3.472   1.516   8.627  3.0915 -0.6343 -3.1842
  108OSM   H18U11104   3.630   1.444   8.678 -1.1168  0.9345 -0.3397
  108OSM    C1F11105   2.615   1.611  10.089 -0.0139  0.3140  0.1004
  108OSM     OF11106   2.593   1.719  10.135 -0.4072 -0.3717  0.2355
  108OSM    C2F11107   2.534   1.557   9.977 -0.6641  0.1539 -0.1849
  108OSM    H2F11108   2.570   1.606   9.884  0.4418 -0.7258 -0.2470
  108OSM    H2G11109   2.428   1.587   9.984 -1.1282 -1.0870 -1.5466
  108OSM    C3F11110   2.545   1.402   9.955  0.5105 -0.0730  0.2880
  108OSM    H3F11111   2.472   1.354  10.024 -2.0274  0.0520 -2.1251
  108OSM    H3G11112   2.645   1.356   9.965  0.5415  0.0821  0.7159
  108OSM    C4F11113   2.494   1.358   9.818 -0.3641 -0.4404  0.8022
  108OSM    H4F11114   2.404   1.414   9.787 -0.2546 -1.5459 -1.7551
  108OSM    H4G11115   2.461   1.252   9.817  1.4023 -1.0571 -1.7892
  108OSM    C5F11116   2.604   1.370   9.707 -0.1287  0.2358 -0.1772
  108OSM    H5F11117   2.694   1.309   9.731 -0.4987 -0.3058 -0.1671
  108OSM    H5G11118   2.649   1.472   9.697  2.8609 -0.7854  1.5256
  108OSM    C6F11119   2.555   1.318   9.565 -0.6698 -0.5496  0.1286
  108OSM    H6F11120   2.464   1.374   9.535 -1.0306 -0.6706  0.9552
  108OSM    H6G11121   2.529   1.210   9.569 -3.1533  0.0145  3.4308
  108OSM    C7F11122   2.662   1.319   9.452  0.3077 -0.7679  0.2214
  108OSM    H7F11123   2.756   1.275   9.493  1.2794  0.2762 -0.8024
  108OSM    H7G11124   2.681   1.425   9.425 -0.5066 -0.5780  0.3764
  108OSM    C8F11125   2.632   1.243   9.327  0.2457 -0.2551  0.4410
  108OSM    H8F11126   2.616   1.134   9.345  0.8094 -0.1460  1.7348
  108OSM    H8G11127   2.726   1.240   9.268  0.2453 -0.7268  0.4600
  108OSM    C9F11128   2.519   1.288   9.241  0.2455 -0.0036 -0.3081
  108OSM    H9F11129   2.426   1.272   9.297  2.3004  1.8231  4.1185
  108OSM   C10F11130   2.519   1.344   9.119 -0.3036 -0.9656 -0.1228
  108OSM   H10F11131   2.420   1.374   9.082 -0.9158 -1.1580  1.2994
  108OSM   C11F11132   2.635   1.372   9.029  0.4729 -0.1859 -0.2902
  108OSM   H11F11133   2.730   1.371   9.087  0.5245  0.3395 -0.3630
  108OSM   H11G11134   2.614   1.469   8.980  2.4263 -0.3974 -1.6523
  108OSM   C12F11135   2.648   1.259   8.929 -0.4608  0.3230  0.3919
  108OSM   H12F11136   2.548   1.231   8.891 -0.4172  2.7603 -1.7437
  108OSM   H12G11137   2.686   1.168   8.979  0.9428  0.2356 -0.7576
  108OSM   C13F11138   2.748   1.286   8.820  0.5720  0.0611  0.2383
  108OSM   H13F11139   2.832   1.335   8.874 -1.1512  2.4222  0.9376
  108OSM   H13G11140   2.723   1.363   8.744  0.5248 -1.2841 -1.1723
  108OSM   C14F11141   2.799   1.160   8.749  0.3644  0.4507 -0.2386
  108OSM   H14F11142   2.719   1.121   8.683  0.0983 -1.6683  1.2487
  108OSM   H14G11143   2.821   1.071   8.812  2.4218 -1.5273 -3.4771
  108OSM   C15F11144   2.922   1.186   8.662  0.2740  0.7079 -0.2369
  108OSM   H15F11145   3.000   1.232   8.725  2.0270  2.4229 -3.3943
  108OSM   H15G11146   2.892   1.244   8.572 -0.2920  0.9314  0.0879
  108OSM   C16F11147   2.984   1.048   8.614 -0.5806  1.2979 -0.0320
  108OSM   H16F11148   2.910   0.985   8.560 -1.6889  1.8048  0.8370
  108OSM   H16G11149   3.006   0.996   8.710 -0.8916 -0.4897 -0.8871
  108OSM   C17F11150   3.120   1.062   8.547  0.1719 -0.2777  0.6225
  108OSM   H17F11151   3.102   1.137   8.468  0.7082 -1.2180 -0.4252
  108OSM   H17G11152   3.142   0.961   8.505  2.2392 -0.8742  2.9187
  108OSM   C18F11153   3.240   1.114   8.634  0.0642  0.2683  0.2956
  108OSM   H18F11154   3.329   1.109   8.568 -0.7226 -0.4669 -0.7389
  108OSM   H18G11155   3.271   1.042   8.713  0.1764 -1.3138 -1.1559
  108OSM   H18H11156   3.237   1.219   8.671  1.7661  0.0486  1.1416
  109OSM      N11157   0.835   4.872  11.259 -0.5997  0.4419 -0.5979
  109OSM    C1511158   0.774   5.003  11.228  0.0603 -0.3810 -0.5427
  109OSM   H15A11159   0.686   4.980  11.169  1.0209 -2.0026 -1.4421
  109OSM   H15B11160   0.843   5.064  11.171 -0.5040 -0.6361 -1.5331
  109OSM   H15C11161   0.740   5.061  11.312 -0.8716 -0.1266 -1.0752
  109OSM    C1411162   0.957   4.893  11.342 -0.2030 -0.0052 -0.2429
  109OSM   H14A11163   0.909   4.936  11.429 -1.2396 -4.0000  1.3813
  109OSM   H14B11164   1.007   4.977  11.296 -1.0301  1.5573  1.5547
  109OSM   H14C11165   1.006   4.801  11.367 -2.7501 -1.5040 -0.3435
  109OSM    C1311166   0.742   4.792  11.345 -0.2533 -0.4056 -0.3085
  109OSM   H13A11167   0.701   4.845  11.429 -0.0373 -1.1047  0.2503
  109OSM   H13B11168   0.805   4.715  11.388 -2.5227 -0.9023  2.3555
  109OSM   H13C11169   0.665   4.742  11.288  0.9942 -1.9982 -0.6720
  109OSM    C1211170   0.860   4.795  11.135 -0.5768 -0.0998  0.3069
  109OSM   H12A11171   0.768   4.793  11.078 -0.0475 -2.0282 -0.5767
  109OSM   H12B11172   0.892   4.694  11.156 -0.9570  0.0474  1.6694
  109OSM    C1111173   0.966   4.856  11.033 -0.1938  0.1394  0.4363
  109OSM   H11A11174   1.064   4.881  11.079  0.4771 -3.7462  1.4239
  109OSM   H11B11175   0.927   4.952  10.993 -1.4045 -0.3298  0.4506
  109OSM      P11176   1.033   4.624  10.951 -0.0566 -0.0064  0.0823
  109OSM    O1311177   1.167   4.637  11.002 -0.3951 -0.5122 -0.4894
  109OSM    O1411178   0.942   4.548  11.033  0.5959  0.5451 -0.1680
  109OSM    O1111179   1.048   4.561  10.803 -0.1089 -0.2519 -0.0216
  109OSM    O1211180   0.976   4.770  10.920  0.2817  0.1477 -0.6632
  109OSM    C1S11181   1.055   4.631  10.681 -0.4021  0.7623  0.0319
  109OSM    H1S11182   1.149   4.690  10.677 -0.7680  1.4852  1.4662
  109OSM    H1T11183   0.957   4.684  10.674 -3.2620 -3.6763  1.9933
  109OSM     NF11184   1.092   4.613  10.440  0.1218  0.1467  0.3650
  109OSM    HNF11185   1.010   4.638  10.389 -1.1190  1.7613  2.9194
  109OSM    C2S11186   1.062   4.538  10.562  0.3578 -0.1972  0.5242
  109OSM    H2S11187   1.147   4.466  10.563  0.1647 -0.4923 -1.0905
  109OSM    C3S11188   0.929   4.448  10.549 -0.3968  0.7268 -0.6658
  109OSM    H3S11189   0.842   4.515  10.537 -1.7708 -0.5801  1.4060
  109OSM     O311190   0.911   4.367  10.665  0.0217  0.4138 -0.2285
  109OSM    HO311191   0.983   4.389  10.724 -0.1026  0.8216 -0.2281
  109OSM    C4S11192   0.948   4.356  10.427  0.0637  0.0105  0.1278
  109OSM    H4S11193   1.008   4.266  10.451 -1.7710 -0.6338  2.7641
  109OSM    C5S11194   0.904   4.373  10.303  0.1785 -0.6889 -0.5165
  109OSM    H5S11195   0.850   4.464  10.275 -1.4428 -1.6701 -0.7527
  109OSM    C6S11196   0.934   4.278  10.190 -0.5231  0.2623  0.0735
  109OSM    H6S11197   0.854   4.204  10.169 -0.5171 -0.4010  2.2196
  109OSM    H6T11198   1.029   4.222  10.202 -0.3212  0.7976  1.0511
  109OSM    C7S11199   0.948   4.375  10.066  0.9193 -0.2954  0.1741
  109OSM    H7S11200   1.026   4.454  10.073  2.1305 -1.4448  0.1652
  109OSM    H7T11201   0.846   4.417  10.063  0.5715 -0.8129  2.8200
  109OSM    C8S11202   0.978   4.297   9.938  0.0775  0.1714 -0.1528
  109OSM    H8S11203   0.902   4.218   9.924  1.1376 -0.7873 -0.6227
  109OSM    H8T11204   1.075   4.245   9.943 -0.6858 -1.6724 -2.5088
  109OSM    C9S11205   0.983   4.387   9.817  0.2012  0.5595  0.2419
  109OSM    H9S11206   1.053   4.473   9.828 -0.6080  1.0327  2.2985
  109OSM    H9T11207   0.875   4.413   9.813 -0.0259 -0.0578  1.6330
  109OSM   C10S11208   0.998   4.308   9.691 -0.4628 -0.0975  0.0819
  109OSM   H10S11209   0.905   4.251   9.672 -1.8317  1.6990  1.1025
  109OSM   H10T11210   1.071   4.230   9.722 -1.8549 -1.6436 -0.3867
  109OSM   C11S11211   1.039   4.388   9.567 -0.0727  1.0749  0.1236
  109OSM   H11S11212   1.129   4.453   9.576 -1.0122  2.2991  1.1544
  109OSM   H11T11213   0.951   4.453   9.549  1.6477  2.9898 -1.8401
  109OSM   C12S11214   1.041   4.306   9.440 -0.0696 -0.1925 -0.4784
  109OSM   H12S11215   0.952   4.247   9.412 -0.2598  0.1648 -0.6348
  109OSM   H12T11216   1.115   4.228   9.468  1.5384  1.7596  1.0371
  109OSM   C13S11217   1.075   4.388   9.316  0.1820 -0.3013  0.2427
  109OSM   H13S11218   1.166   4.448   9.339  0.3862 -0.8458  0.8902
  109OSM   H13T11219   0.988   4.454   9.298 -0.4774 -1.1713  0.1507
  109OSM   C14S11220   1.114   4.314   9.191  0.6221  1.0595  0.2798
  109OSM   H14S11221   1.204   4.256   9.221 -1.1280 -0.0912  4.0225
  109OSM   H14T11222   1.141   4.386   9.111  1.3920 -0.4154 -0.8246
  109OSM   C15S11223   1.010   4.215   9.134 -0.3718  0.3426  0.2335
  109OSM   H15S11224   1.033   4.121   9.190  1.4559  0.4374 -0.2990
  109OSM   H15T11225   1.036   4.204   9.027 -0.9512 -0.4654  0.1604
  109OSM   C16S11226   0.862   4.250   9.140  0.4778 -0.1068  0.3527
  109OSM   H16S11227   0.845   4.360   9.147 -2.6752 -0.5289  1.0735
  109OSM   H16T11228   0.822   4.193   9.226 -1.9001  1.6368  0.4963
  109OSM   C17S11229   0.806   4.214   9.005  0.4098 -0.1790 -0.1815
  109OSM   H17S11230   0.696   4.225   9.016  0.3676  2.0975 -2.0913
  109OSM   H17T11231   0.830   4.109   8.977 -0.1824  0.2295 -2.4732
  109OSM   C18S11232   0.848   4.311   8.899 -0.6255 -1.1937 -0.1938
  109OSM   H18S11233   0.800   4.286   8.802 -2.6482  1.8550 -0.1318
  109OSM   H18T11234   0.957   4.315   8.877 -1.0312 -0.5962 -2.4191
  109OSM   H18U11235   0.807   4.412   8.923 -0.4958 -0.6777 -1.9987
  109OSM    C1F11236   1.209   4.648  10.402 -0.3176 -0.4138 -0.3248
  109OSM     OF11237   1.303   4.649  10.485 -0.0270  0.5032 -0.0084
  109OSM    C2F11238   1.219   4.691  10.260 -1.2932 -0.0617  1.5368
  109OSM    H2F11239   1.124   4.726  10.214 -0.7986 -1.1059 -0.3822
  109OSM    H2G11240   1.264   4.610  10.201 -1.4678  0.7864  0.1952
  109OSM    C3F11241   1.323   4.797  10.237  0.0311 -0.3125  0.5554
  109OSM    H3F11242   1.423   4.754  10.257  1.2419  2.5197  1.2108
  109OSM    H3G11243   1.306   4.883  10.305 -1.9552  0.8897 -1.3310
  109OSM    C4F11244   1.345   4.850  10.086 -0.1116  0.2716 -0.1808
  109OSM    H4F11245   1.415   4.935  10.071  1.5741 -1.3024 -1.8705
  109OSM    H4G11246   1.248   4.902  10.073 -0.7124 -0.4432  1.2290
  109OSM    C5F11247   1.342   4.731   9.993  0.2956 -0.0579  0.1121
  109OSM    H5F11248   1.239   4.690   9.993  0.9647 -1.8134  0.0060
  109OSM    H5G11249   1.423   4.659  10.018  0.4605  0.5872  1.5207
  109OSM    C6F11250   1.353   4.779   9.840  0.3140 -0.4215 -0.6170
  109OSM    H6F11251   1.458   4.802   9.811  1.3133 -1.5445  1.8063
  109OSM    H6G11252   1.286   4.868   9.832  0.6985 -0.1420 -0.7400
  109OSM    C7F11253   1.301   4.672   9.748 -0.1442 -0.0102  0.4978
  109OSM    H7F11254   1.196   4.657   9.782 -0.2959  3.3657  1.9031
  109OSM    H7G11255   1.366   4.583   9.761 -0.2851  0.1444  2.6181
  109OSM    C8F11256   1.293   4.716   9.598  0.7126  0.2081  0.4119
  109OSM    H8F11257   1.243   4.640   9.533 -1.9827  2.7925 -0.7885
  109OSM    H8G11258   1.395   4.720   9.554  0.1161 -1.5468 -1.3094
  109OSM    C9F11259   1.224   4.847   9.571 -0.0991 -0.1795 -0.3303
  109OSM    H9F11260   1.137   4.863   9.636 -0.3148  1.6086 -0.9803
  109OSM   C10F11261   1.258   4.931   9.472  0.0193  0.2906  0.2688
  109OSM   H10F11262   1.189   5.014   9.450 -1.7277 -1.4965 -1.5227
  109OSM   C11F11263   1.365   4.910   9.369  0.6567  0.1695 -0.3748
  109OSM   H11F11264   1.430   4.820   9.377 -1.3449 -1.4695 -1.3793
  109OSM   H11G11265   1.437   4.991   9.349 -0.0101  0.5749 -1.1952
  109OSM   C12F11266   1.274   4.903   9.240  0.5958 -0.3733 -0.3648
  109OSM   H12F11267   1.214   4.997   9.237  0.5236 -0.3849  0.3980
  109OSM   H12G11268   1.195   4.826   9.253 -0.3528  0.7728  0.9887
  109OSM   C13F11269   1.348   4.868   9.113 -0.4746 -0.3709 -0.5638
  109OSM   H13F11270   1.279   4.853   9.027  0.9239  2.7928 -2.4311
  109OSM   H13G11271   1.399   4.771   9.132  0.6146  0.3642  0.4470
  109OSM   C14F11272   1.447   4.981   9.064 -0.1898  0.7069 -0.8744
  109OSM   H14F11273   1.550   4.993   9.106  0.9547 -0.4694 -3.1451
  109OSM   H14G11274   1.389   5.074   9.081  0.7839  1.4310 -1.3399
  109OSM   C15F11275   1.472   4.975   8.911 -0.4883 -0.2473 -0.8433
  109OSM   H15F11276   1.514   5.066   8.864 -1.1551  0.0184 -0.9347
  109OSM   H15G11277   1.376   4.946   8.862 -1.0916 -0.8433  0.6195
  109OSM   C16F11278   1.567   4.861   8.878 -0.3178 -0.6304  0.0185
  109OSM   H16F11279   1.541   4.768   8.932  1.5822 -0.3898  1.4193
  109OSM   H16G11280   1.666   4.873   8.926 -0.0645  0.6940 -0.7662
  109OSM   C17F11281   1.584   4.829   8.729 -0.4900  0.5776 -0.1608
  109OSM   H17F11282   1.486   4.848   8.681 -0.5464  0.1777 -0.2049
  109OSM   H17G11283   1.611   4.723   8.710 -1.8514  0.3883 -1.1331
  109OSM   C18F11284   1.698   4.911   8.660  0.4103  0.4039 -0.2205
  109OSM   H18F11285   1.683   5.020   8.667 -2.8391 -0.0245  1.8633
  109OSM   H18G11286   1.703   4.890   8.551  2.6493  0.3682 -0.1629
  109OSM   H18H11287   1.798   4.876   8.695 -0.6372 -1.2913  1.2767
  110OSM      N11288   2.989   4.859  11.296 -0.0491 -0.9246 -0.1266
  110OSM    C1511289   2.868   4.938  11.341  0.1648 -0.1154 -0.0225
  110OSM   H15A11290   2.801   4.879  11.402 -0.3622 -1.3289 -1.6979
  110OSM   H15B11291   2.816   4.983  11.259 -1.8054  0.0774  1.2536
  110OSM   H15C11292   2.907   5.017  11.403 -0.0983  1.4761 -1.8157
  110OSM    C1411293   3.107   4.945  11.247 -0.6517 -0.5282 -0.1205
  110OSM   H14A11294   3.172   4.958  11.333 -2.5441 -1.6841  1.5952
  110OSM   H14B11295   3.087   5.038  11.197  0.0332 -1.0157 -1.3495
  110OSM   H14C11296   3.179   4.893  11.186  0.6696 -0.8776  1.6361
  110OSM    C1311297   3.030   4.773  11.419 -0.1053 -0.3034 -0.0412
  110OSM   H13A11298   3.107   4.704  11.387 -0.2071 -0.6285  0.4062
  110OSM   H13B11299   2.949   4.712  11.455  1.8880 -3.5860 -0.6820
  110OSM   H13C11300   3.069   4.825  11.505 -2.8887  3.1824 -0.6763
  110OSM    C1211301   2.963   4.764  11.190  0.4020 -0.3853  0.7772
  110OSM   H12A11302   2.890   4.691  11.221  1.0760 -0.5830  1.9493
  110OSM   H12B11303   3.054   4.707  11.179  1.4190  1.3676 -0.2571
  110OSM    C1111304   2.912   4.809  11.053 -0.7388  0.4618 -0.6505
  110OSM   H11A11305   2.933   4.723  10.985 -0.7143 -0.2426  0.2355
  110OSM   H11B11306   2.983   4.882  11.008  2.5365 -1.8902  0.3495
  110OSM      P11307   2.723   4.978  10.988 -0.2089  0.1454 -0.2301
  110OSM    O1311308   2.579   4.968  10.961 -0.0466  0.3984  0.3650
  110OSM    O1411309   2.772   5.093  11.066 -0.0459 -0.4530 -0.4158
  110OSM    O1111310   2.798   4.987  10.850 -0.2211 -0.2355 -0.1047
  110OSM    O1211311   2.770   4.847  11.051 -0.5937  0.3303  0.0192
  110OSM    C1S11312   2.783   4.890  10.752  0.3736  0.0119  0.7778
  110OSM    H1S11313   2.684   4.840  10.750 -0.3532  1.4208  0.0178
  110OSM    H1T11314   2.858   4.810  10.771 -1.2911 -1.2782  2.2667
  110OSM     NF11315   2.791   4.862  10.499 -0.1550 -0.1026 -0.5993
  110OSM    HNF11316   2.869   4.835  10.443  0.7147  1.4668 -0.2143
  110OSM    C2S11317   2.819   4.953  10.611  0.0335 -0.1231 -0.3078
  110OSM    H2S11318   2.749   5.039  10.609  1.5238  1.1970  1.4057
  110OSM    C3S11319   2.963   5.013  10.616  0.1793 -0.2428  0.1512
  110OSM    H3S11320   3.042   4.937  10.632  0.7765  0.3551  0.0723
  110OSM     O311321   2.986   5.100  10.725 -0.6706 -0.4034 -0.3129
  110OSM    HO311322   2.923   5.082  10.796  0.5565 -0.6861  0.7509
  110OSM    C4S11323   2.989   5.088  10.488  0.0690 -0.3449  0.6620
  110OSM    H4S11324   3.046   5.028  10.416  1.5599  1.8040 -0.0562
  110OSM    C5S11325   2.944   5.213  10.452 -0.9550  0.2080  0.3427
  110OSM    H5S11326   2.874   5.263  10.519 -0.3203 -0.4343  1.5123
  110OSM    C6S11327   2.975   5.268  10.308 -0.6330  0.2465 -0.6487
  110OSM    H6S11328   3.068   5.329  10.311  0.1654 -0.9554 -0.1692
  110OSM    H6T11329   2.893   5.337  10.279 -0.5334  1.2331  1.2876
  110OSM    C7S11330   3.002   5.168  10.201  0.2992  0.3827 -0.1687
  110OSM    H7S11331   2.923   5.092  10.183  1.1707 -0.7110  0.4260
  110OSM    H7T11332   3.095   5.111  10.225  0.4060  1.6988  3.0060
  110OSM    C8S11333   3.034   5.240  10.064  0.5820 -0.1142 -0.0793
  110OSM    H8S11334   3.124   5.304  10.073  1.2063 -0.9735 -0.0193
  110OSM    H8T11335   2.945   5.305  10.053 -0.4244 -1.6044 -1.1410
  110OSM    C9S11336   3.045   5.143   9.950 -0.0209 -0.3225  0.3500
  110OSM    H9S11337   2.956   5.078   9.935 -0.4035  0.5470 -1.5132
  110OSM    H9T11338   3.125   5.073   9.984 -0.4329  0.0496  2.2020
  110OSM   C10S11339   3.059   5.199   9.808 -0.0683 -0.5376  0.1176
  110OSM   H10S11340   3.141   5.274   9.812 -1.2434  1.1440 -3.2552
  110OSM   H10T11341   2.968   5.257   9.777 -0.0028 -1.1732 -1.3543
  110OSM   C11S11342   3.100   5.098   9.700 -0.2528 -0.5145  0.5012
  110OSM   H11S11343   3.013   5.031   9.681 -1.0303  0.4439  0.5920
  110OSM   H11T11344   3.187   5.039   9.733 -0.9239 -0.2151  2.9847
  110OSM   C12S11345   3.110   5.174   9.563 -0.4116 -0.0317 -0.4118
  110OSM   H12S11346   3.199   5.240   9.567 -0.2788 -0.2092 -0.3943
  110OSM   H12T11347   3.019   5.233   9.543 -0.2475  0.3361 -0.0814
  110OSM   C13S11348   3.126   5.073   9.450  0.6664  0.6224 -0.2957
  110OSM   H13S11349   3.037   5.006   9.451  1.7008 -0.7980  0.4376
  110OSM   H13T11350   3.214   5.012   9.479  2.0879  3.0182  0.7584
  110OSM   C14S11351   3.167   5.138   9.316 -0.2593  0.4563 -0.2267
  110OSM   H14S11352   3.216   5.055   9.260 -3.5367 -1.8018 -0.0605
  110OSM   H14T11353   3.245   5.217   9.321 -0.7499  1.0338 -1.4545
  110OSM   C15S11354   3.043   5.194   9.244 -0.5749 -0.5142  0.2912
  110OSM   H15S11355   2.987   5.258   9.315  1.4198  2.5706 -0.7064
  110OSM   H15T11356   2.962   5.118   9.234 -3.0285  1.8846  0.9512
  110OSM   C16S11357   3.070   5.279   9.114 -0.8171  0.2489 -0.0052
  110OSM   H16S11358   3.117   5.377   9.139  0.3345 -0.0357 -1.0079
  110OSM   H16T11359   2.970   5.301   9.069 -1.0409  1.5895  1.0546
  110OSM   C17S11360   3.161   5.212   9.018  0.4053  0.0932  0.1207
  110OSM   H17S11361   3.096   5.127   8.987  0.1267  0.1384  0.5803
  110OSM   H17T11362   3.253   5.184   9.073 -0.9662 -2.7170  1.2049
  110OSM   C18S11363   3.188   5.299   8.893  0.2054  0.3180 -0.0589
  110OSM   H18S11364   3.235   5.396   8.920  1.0561  0.6435 -2.4980
  110OSM   H18T11365   3.093   5.316   8.838 -0.9202 -0.7824  1.4302
  110OSM   H18U11366   3.261   5.244   8.831  0.0215 -0.5093  0.4382
  110OSM    C1F11367   2.679   4.808  10.471 -0.6216  0.7684 -0.2748
  110OSM     OF11368   2.584   4.818  10.548 -0.1711 -0.5855 -0.4447
  110OSM    C2F11369   2.684   4.716  10.355  0.2332  0.4324 -0.2888
  110OSM    H2F11370   2.617   4.630  10.375  1.7500 -0.9285 -0.8474
  110OSM    H2G11371   2.785   4.671  10.347 -0.8590 -1.9039 -2.3864
  110OSM    C3F11372   2.648   4.772  10.212 -0.5214 -0.3211 -0.5095
  110OSM    H3F11373   2.547   4.816  10.227 -0.2879  0.3478 -0.8700
  110OSM    H3G11374   2.655   4.700  10.127  1.2831  1.2107 -1.7233
  110OSM    C4F11375   2.721   4.907  10.163  1.1414  0.0806  0.0581
  110OSM    H4F11376   2.830   4.886  10.159  0.6981 -2.2407 -1.9943
  110OSM    H4G11377   2.691   4.980  10.242  2.0013 -0.4339  0.8903
  110OSM    C5F11378   2.659   4.951  10.028 -0.4098  0.0807 -0.5823
  110OSM    H5F11379   2.689   5.054  10.001  0.0910 -0.4355 -2.0959
  110OSM    H5G11380   2.548   4.954  10.035 -0.3274  1.3968  0.5584
  110OSM    C6F11381   2.720   4.878   9.907 -0.1267  0.5141 -0.1726
  110OSM    H6F11382   2.692   4.770   9.906 -0.3594  0.5742 -1.3918
  110OSM    H6G11383   2.830   4.887   9.915 -0.2117  0.3484  1.4131
  110OSM    C7F11384   2.690   4.943   9.767  0.0351  0.1453  0.7122
  110OSM    H7F11385   2.724   5.049   9.769 -2.9886  1.3085 -1.2456
  110OSM    H7G11386   2.582   4.935   9.741  0.6086  0.3159 -2.0085
  110OSM    C8F11387   2.740   4.867   9.647 -0.1905 -0.0831  0.1859
  110OSM    H8F11388   2.715   4.758   9.645  0.3092 -0.2264 -2.4035
  110OSM    H8G11389   2.850   4.857   9.657  0.0400  0.5675 -1.3456
  110OSM    C9F11390   2.687   4.931   9.518 -1.0654 -0.3628  0.0978
  110OSM    H9F11391   2.639   5.028   9.537  0.1397 -0.1244  2.2196
  110OSM   C10F11392   2.691   4.875   9.395 -0.8496  0.0508 -0.4355
  110OSM   H10F11393   2.660   4.928   9.304  0.8996 -0.1392 -1.1848
  110OSM   C11F11394   2.763   4.750   9.356 -0.3760  0.7150  0.4349
  110OSM   H11F11395   2.683   4.686   9.311  0.9257 -0.6996  0.0581
  110OSM   H11G11396   2.803   4.694   9.443  1.0791  0.3886 -0.4246
  110OSM   C12F11397   2.883   4.776   9.265  0.0624  0.1565  0.5856
  110OSM   H12F11398   2.968   4.815   9.326 -0.4704 -0.2772  1.6273
  110OSM   H12G11399   2.859   4.837   9.175 -1.2696 -1.6714 -0.3591
  110OSM   C13F11400   2.926   4.641   9.199  0.0153  0.3411  0.5083
  110OSM   H13F11401   2.850   4.613   9.123  0.1596 -2.0501  1.1543
  110OSM   H13G11402   2.911   4.566   9.280 -2.9656  0.4862  0.1900
  110OSM   C14F11403   3.057   4.639   9.123 -0.5526 -0.2010  0.4035
  110OSM   H14F11404   3.060   4.542   9.069 -1.2325 -0.5773  1.0263
  110OSM   H14G11405   3.142   4.646   9.195  0.0443  0.8105 -0.3662
  110OSM   C15F11406   3.076   4.756   9.023  0.2593  0.0541  0.0288
  110OSM   H15F11407   3.093   4.853   9.076  0.1489  0.4761 -0.6985
  110OSM   H15G11408   2.977   4.773   8.975  0.7903  0.2864 -1.0055
  110OSM   C16F11409   3.188   4.737   8.925  0.2821  0.9543 -0.6151
  110OSM   H16F11410   3.176   4.638   8.875  0.5496  0.2438  0.7020
  110OSM   H16G11411   3.276   4.729   8.991 -1.0428  0.1691  1.1566
  110OSM   C17F11412   3.206   4.848   8.820 -0.3830 -0.3019  0.0893
  110OSM   H17F11413   3.258   4.928   8.877  1.6258 -1.7608  0.4211
  110OSM   H17G11414   3.109   4.875   8.772  0.8249  0.2381 -2.2528
  110OSM   C18F11415   3.314   4.819   8.708  0.1449  0.4298  0.4919
  110OSM   H18F11416   3.333   4.909   8.646  0.1795  1.7690  2.3659
  110OSM   H18G11417   3.272   4.744   8.638  2.9291 -0.3634 -0.4278
  110OSM   H18H11418   3.399   4.774   8.763 -0.6637  0.9794  2.2608
  111OSM      N11419   2.970   3.243  10.996 -0.0712 -0.4664 -0.7219
  111OSM    C1511420   3.100   3.235  10.928  0.4880  0.0230  0.0608
  111OSM   H15A11421   3.129   3.326  10.877 -0.0382  1.1806  1.7308
  111OSM   H15B11422   3.104   3.155  10.856  0.4254  0.9802 -1.0332
  111OSM   H15C11423   3.181   3.229  11.000 -0.9033 -1.6146  1.5808
  111OSM    C1411424   2.956   3.115  11.072  0.0326  0.3243  0.2019
  111OSM   H14A11425   2.950   3.040  10.995 -0.7339  2.7038 -2.2046
  111OSM   H14B11426   2.872   3.128  11.139  0.9557  0.8723  1.3036
  111OSM   H14C11427   3.039   3.102  11.140 -0.6714  0.8009  1.1768
  111OSM    C1311428   2.974   3.363  11.086  0.2221 -0.1389  0.4760
  111OSM   H13A11429   2.876   3.384  11.125 -0.4235 -0.7776 -0.7656
  111OSM   H13B11430   3.007   3.448  11.028  1.8488 -0.2056  1.2411
  111OSM   H13C11431   3.037   3.350  11.173 -1.4872  0.1096  1.8074
  111OSM    C1211432   2.853   3.269  10.897 -0.8930 -0.2798  1.0519
  111OSM   H12A11433   2.768   3.290  10.960 -1.3264 -0.6697  0.5980
  111OSM   H12B11434   2.835   3.171  10.855 -0.3310  0.1015 -0.1209
  111OSM    C1111435   2.863   3.379  10.790  0.2706 -0.3987  0.0812
  111OSM   H11A11436   2.796   3.351  10.706  0.5350 -3.2501  0.7409
  111OSM   H11B11437   2.953   3.370  10.726 -1.3198  0.3207 -2.4180
  111OSM      P11438   2.721   3.572  10.887  0.1342  0.0892 -0.0238
  111OSM    O1311439   2.634   3.485  10.972  0.5557  0.1220 -0.7090
  111OSM    O1411440   2.749   3.715  10.937  0.5552  0.9146 -0.4162
  111OSM    O1111441   2.656   3.586  10.738  0.2511 -0.2722 -0.1125
  111OSM    O1211442   2.861   3.508  10.848  0.5192 -0.1082 -0.1357
  111OSM    C1S11443   2.739   3.668  10.649 -0.0154  0.1971 -0.2906
  111OSM    H1S11444   2.831   3.608  10.626  1.0276 -0.1299  3.9824
  111OSM    H1T11445   2.763   3.772  10.678 -1.0415  0.6824 -1.1481
  111OSM     NF11446   2.764   3.732  10.407 -0.2123  0.2661 -0.3558
  111OSM    HNF11447   2.772   3.831  10.407  0.6492  0.2376  1.2540
  111OSM    C2S11448   2.665   3.694  10.512 -0.7962 -0.7023  0.8075
  111OSM    H2S11449   2.614   3.599  10.486  0.4007 -1.6329  1.7252
  111OSM    C3S11450   2.554   3.795  10.527 -0.4884  0.2648 -0.1610
  111OSM    H3S11451   2.596   3.891  10.561 -1.6382  0.8006 -0.1954
  111OSM     O311452   2.459   3.752  10.626 -0.0448  0.4557 -0.0481
  111OSM    HO311453   2.479   3.663  10.657 -0.8772  0.2472 -0.0913
  111OSM    C4S11454   2.469   3.817  10.410 -0.4176 -0.2253 -0.1433
  111OSM    H4S11455   2.364   3.783  10.400 -1.1109  1.6253  0.4405
  111OSM    C5S11456   2.503   3.908  10.319  0.1763 -0.0343  0.1373
  111OSM    H5S11457   2.600   3.960  10.324  0.2730  0.0960 -2.0998
  111OSM    C6S11458   2.413   3.947  10.206 -0.7748 -0.6767  0.0223
  111OSM    H6S11459   2.382   4.052  10.226  0.8051 -0.3652  1.0302
  111OSM    H6T11460   2.327   3.877  10.202 -0.0349 -1.6760  1.1470
  111OSM    C7S11461   2.500   3.954  10.077 -0.0668  0.0717 -0.0145
  111OSM    H7S11462   2.546   3.853  10.061  0.3732 -0.1850  2.4901
  111OSM    H7T11463   2.581   4.028  10.092  0.3283  0.1685 -2.2896
  111OSM    C8S11464   2.419   3.995   9.948 -0.3765 -0.1562  0.6596
  111OSM    H8S11465   2.362   4.087   9.972  0.0007  0.2398  0.0774
  111OSM    H8T11466   2.347   3.912   9.933 -0.4843 -0.0653  0.6725
  111OSM    C9S11467   2.509   4.020   9.819  0.2521 -0.7568 -0.8936
  111OSM    H9S11468   2.577   3.934   9.804 -0.4941 -1.7806  1.1853
  111OSM    H9T11469   2.575   4.105   9.845 -2.2177  1.0565 -0.1646
  111OSM   C10S11470   2.436   4.064   9.691  0.2366  0.3791 -0.8585
  111OSM   H10S11471   2.376   4.157   9.698  3.2233  2.4514 -0.8267
  111OSM   H10T11472   2.366   3.982   9.667  0.5924 -0.3489  0.4631
  111OSM   C11S11473   2.538   4.075   9.576  1.1190 -0.8596  0.7009
  111OSM   H11S11474   2.484   4.093   9.480  0.4048  0.0203  1.2460
  111OSM   H11T11475   2.589   3.977   9.564  3.3971  0.0186  2.4912
  111OSM   C12S11476   2.642   4.183   9.606  0.2791 -1.1855  0.1812
  111OSM   H12S11477   2.604   4.243   9.692 -0.3930  0.5254 -1.2663
  111OSM   H12T11478   2.643   4.253   9.520 -0.2771 -1.3011  0.0771
  111OSM   C13S11479   2.779   4.110   9.624  0.6153  0.5897 -0.0156
  111OSM   H13S11480   2.795   4.056   9.528  0.1826 -2.5141  1.5287
  111OSM   H13T11481   2.757   4.034   9.702  2.6650  0.2537  0.2787
  111OSM   C14S11482   2.894   4.201   9.655 -0.2409  0.4976 -0.5680
  111OSM   H14S11483   2.931   4.242   9.558  0.4135  0.5311 -0.3081
  111OSM   H14T11484   2.978   4.145   9.702 -0.5119  0.2013 -0.4340
  111OSM   C15S11485   2.873   4.314   9.757 -0.4596 -0.2837  0.9351
  111OSM   H15S11486   2.786   4.377   9.727 -1.3929 -1.2473  1.5680
  111OSM   H15T11487   2.974   4.360   9.767  1.2703 -2.5121 -3.4197
  111OSM   C16S11488   2.836   4.262   9.897  0.1628  0.3829 -0.7451
  111OSM   H16S11489   2.898   4.170   9.910  0.9903  0.7657 -1.8046
  111OSM   H16T11490   2.729   4.239   9.911 -0.4383  3.3037  0.1199
  111OSM   C17S11491   2.864   4.364  10.007  0.2210  0.0350  0.2170
  111OSM   H17S11492   2.802   4.453   9.980 -2.2170 -1.6138  0.0847
  111OSM   H17T11493   2.968   4.401   9.993  0.0578  0.5866  0.4145
  111OSM   C18S11494   2.825   4.327  10.156 -0.4286  0.5882 -0.8118
  111OSM   H18S11495   2.868   4.406  10.221 -0.2128 -0.5042  0.4254
  111OSM   H18T11496   2.880   4.238  10.194 -1.3309  0.1986 -0.4105
  111OSM   H18U11497   2.716   4.320  10.171 -0.1702 -1.5627  0.4959
  111OSM    C1F11498   2.853   3.640  10.371  0.0199  0.1434  0.4779
  111OSM     OF11499   2.826   3.519  10.364  0.6641 -0.0981  0.0613
  111OSM    C2F11500   2.979   3.698  10.316 -0.5627 -0.1238  0.6041
  111OSM    H2F11501   3.003   3.795  10.364 -1.1262  0.2156  0.2000
  111OSM    H2G11502   2.967   3.723  10.208  0.5594  2.7312  1.0760
  111OSM    C3F11503   3.092   3.598  10.337 -0.3855 -0.0095  0.5999
  111OSM    H3F11504   3.074   3.510  10.271 -1.2734  0.6276 -0.0360
  111OSM    H3G11505   3.091   3.557  10.441 -0.1311 -1.0435  0.2079
  111OSM    C4F11506   3.238   3.653  10.304  0.5244  0.0976  0.3744
  111OSM    H4F11507   3.319   3.585  10.338  3.9444  3.6330 -0.0524
  111OSM    H4G11508   3.248   3.755  10.346  2.5404  0.0648  0.0814
  111OSM    C5F11509   3.258   3.681  10.155  0.3919  0.3108 -0.3759
  111OSM    H5F11510   3.363   3.711  10.137 -0.0592  1.3333 -1.4626
  111OSM    H5G11511   3.204   3.775  10.131 -0.7324 -0.6225 -1.7223
  111OSM    C6F11512   3.232   3.556  10.070  0.0309 -0.3500 -0.6209
  111OSM    H6F11513   3.127   3.553  10.035 -0.2577 -0.4009  0.2140
  111OSM    H6G11514   3.260   3.474  10.140 -2.1669  0.9194  1.9127
  111OSM    C7F11515   3.318   3.543   9.944 -0.3792  0.3979 -0.3226
  111OSM    H7F11516   3.295   3.445   9.896 -0.0933  0.4647 -0.5965
  111OSM    H7G11517   3.425   3.532   9.970 -1.1657 -0.1233  3.2017
  111OSM    C8F11518   3.298   3.653   9.849 -0.2265  0.2954  0.0477
  111OSM    H8F11519   3.373   3.630   9.771  1.3056  1.6943  1.0598
  111OSM    H8G11520   3.323   3.757   9.880 -2.1614  0.7885  0.1429
  111OSM    C9F11521   3.154   3.658   9.803 -0.3973  0.7193 -0.5546
  111OSM    H9F11522   3.078   3.699   9.871  0.1300  0.7635  0.0266
  111OSM   C10F11523   3.103   3.587   9.698  0.4240 -0.6115 -0.2260
  111OSM   H10F11524   2.995   3.597   9.678  0.4690  0.7497  0.0954
  111OSM   C11F11525   3.182   3.494   9.614  0.4032  0.2187 -0.5212
  111OSM   H11F11526   3.109   3.421   9.573  1.4663  0.1322 -2.3946
  111OSM   H11G11527   3.253   3.436   9.676  0.1583 -0.8813 -1.2389
  111OSM   C12F11528   3.244   3.557   9.485  0.8406 -0.4334  0.2944
  111OSM   H12F11529   3.284   3.478   9.417  0.8811  0.3320 -0.5944
  111OSM   H12G11530   3.335   3.607   9.523  2.2439 -0.9423 -2.1729
  111OSM   C13F11531   3.168   3.654   9.396  0.2696  0.3771 -0.7877
  111OSM   H13F11532   3.143   3.741   9.460 -1.0864  1.7730 -3.0793
  111OSM   H13G11533   3.067   3.616   9.369  0.3387 -0.3424 -0.0777
  111OSM   C14F11534   3.252   3.695   9.280  0.8610 -0.5902 -0.5152
  111OSM   H14F11535   3.264   3.601   9.222  1.8998 -1.3874  0.9042
  111OSM   H14G11536   3.356   3.723   9.309  0.5894 -0.8089  0.7456
  111OSM   C15F11537   3.192   3.812   9.201 -0.3730 -0.2284 -0.2520
  111OSM   H15F11538   3.277   3.868   9.156 -0.1835 -0.5426 -0.2850
  111OSM   H15G11539   3.146   3.882   9.274  1.9243  0.7679  0.3425
  111OSM   C16F11540   3.100   3.775   9.085  0.4090  0.5993  0.0923
  111OSM   H16F11541   3.019   3.708   9.123  0.9926  1.4499  3.1754
  111OSM   H16G11542   3.154   3.718   9.007  3.0661  2.3896  0.4979
  111OSM   C17F11543   3.024   3.889   9.024 -0.5909  0.4132  0.5648
  111OSM   H17F11544   3.094   3.962   8.980  0.3818 -1.0588 -0.4482
  111OSM   H17G11545   2.963   3.939   9.102  0.7722  1.0748  1.2306
  111OSM   C18F11546   2.925   3.841   8.914  0.2591 -0.3565 -0.3642
  111OSM   H18F11547   2.838   3.794   8.965  0.6900 -1.5952 -0.7519
  111OSM   H18G11548   2.972   3.762   8.852  1.6713 -0.1604  0.4053
  111OSM   H18H11549   2.884   3.922   8.850 -1.0471 -2.3261 -2.1079
  112OSM      N11550   2.823   0.776  11.045 -0.0504 -0.1942  0.1311
  112OSM    C1511551   2.932   0.863  11.098 -0.3426 -0.0678 -0.1901
  112OSM   H15A11552   3.019   0.800  11.108 -0.2211  0.2206  0.7197
  112OSM   H15B11553   2.894   0.896  11.194 -2.0689 -0.7417 -0.6126
  112OSM   H15C11554   2.960   0.949  11.039 -2.2336  1.7709  1.4323
  112OSM    C1411555   2.810   0.660  11.138 -0.4242 -0.3713 -0.0494
  112OSM   H14A11556   2.724   0.604  11.103 -1.6147  0.4331  1.4451
  112OSM   H14B11557   2.781   0.690  11.238 -0.6228 -1.2537  0.1616
  112OSM   H14C11558   2.906   0.613  11.147  1.8350  3.6052 -0.9805
  112OSM    C1311559   2.695   0.846  11.055  0.7102  0.2353  0.3140
  112OSM   H13A11560   2.612   0.785  11.022  0.6905  0.3718  0.1095
  112OSM   H13B11561   2.690   0.941  11.005 -2.3106 -1.0288 -2.1261
  112OSM   H13C11562   2.678   0.867  11.160 -1.0743 -0.2763  0.1661
  112OSM    C1211563   2.879   0.739  10.911 -0.1297 -0.2749 -0.2427
  112OSM   H12A11564   2.798   0.682  10.867  1.0761 -0.9855 -1.5966
  112OSM   H12B11565   2.971   0.683  10.915 -0.8289 -1.5754 -1.2320
  112OSM    C1111566   2.904   0.856  10.812 -0.4017  0.1361 -0.7965
  112OSM   H11A11567   2.952   0.805  10.726  0.2322 -2.5229  1.0170
  112OSM   H11B11568   2.978   0.926  10.858 -0.3517 -1.1014  1.1301
  112OSM      P11569   2.753   1.069  10.794 -0.2632 -0.0701 -0.0941
  112OSM    O1311570   2.608   1.089  10.771 -0.1218 -0.5236  0.1307
  112OSM    O1411571   2.802   1.115  10.928 -0.4559  0.6036  0.3160
  112OSM    O1111572   2.826   1.153  10.677 -0.8968 -0.1148  0.3762
  112OSM    O1211573   2.781   0.917  10.769 -0.9343 -0.2584  0.4182
  112OSM    C1S11574   2.797   1.096  10.545  0.6229  0.1992 -0.5338
  112OSM    H1S11575   2.691   1.126  10.525 -0.2055 -0.3650  2.5493
  112OSM    H1T11576   2.797   0.985  10.545 -0.1806  0.1929 -0.4397
  112OSM     NF11577   2.843   1.111  10.312  0.0591 -0.4173 -0.2806
  112OSM    HNF11578   2.896   1.037  10.273 -1.2548 -2.0914  0.9837
  112OSM    C2S11579   2.896   1.149  10.441  0.3818 -0.3602  0.0200
  112OSM    H2S11580   2.906   1.260  10.440  0.4685 -0.3259 -2.9450
  112OSM    C3S11581   3.043   1.105  10.468  0.1720  0.7638  0.4729
  112OSM    H3S11582   3.053   0.998  10.492 -1.1205  1.1384  3.0386
  112OSM     O311583   3.095   1.170  10.579 -0.4684  0.1247  0.1151
  112OSM    HO311584   3.030   1.142  10.645 -0.6925 -0.0771 -0.1909
  112OSM    C4S11585   3.132   1.137  10.349  0.3515  0.5455  0.3654
  112OSM    H4S11586   3.174   1.239  10.350  1.0328  0.3137  3.0146
  112OSM    C5S11587   3.181   1.052  10.259  0.7349 -0.6046  0.5702
  112OSM    H5S11588   3.158   0.945  10.268  1.6783 -0.8340  0.3381
  112OSM    C6S11589   3.274   1.106  10.148  0.1184  0.3073 -0.8789
  112OSM    H6S11590   3.377   1.068  10.163  0.7402  1.9821 -0.7807
  112OSM    H6T11591   3.271   1.216  10.153  0.7257  0.3259 -0.8633
  112OSM    C7S11592   3.236   1.060  10.006  0.6531 -0.0264 -1.0358
  112OSM    H7S11593   3.127   1.063   9.986  0.5400  0.5533 -0.3588
  112OSM    H7T11594   3.277   0.956  10.005 -0.7451 -0.6616  1.2201
  112OSM    C8S11595   3.303   1.122   9.883 -0.0444 -0.3458 -0.8553
  112OSM    H8S11596   3.411   1.138   9.903  0.1149  1.5929 -2.9017
  112OSM    H8T11597   3.249   1.217   9.863 -1.5695 -0.5584  1.7426
  112OSM    C9S11598   3.290   1.036   9.758  0.5954  0.1997 -0.6067
  112OSM    H9S11599   3.181   1.013   9.751  1.1365 -2.7287 -0.4203
  112OSM    H9T11600   3.335   0.937   9.779 -2.0085 -1.2750 -1.4592
  112OSM   C10S11601   3.359   1.104   9.642 -0.1661  0.1612 -0.4297
  112OSM   H10S11602   3.470   1.105   9.646 -0.1269  3.6390  2.1768
  112OSM   H10T11603   3.317   1.205   9.624  0.9016  0.6258 -0.4094
  112OSM   C11S11604   3.307   1.046   9.505 -0.3960  0.0755 -0.1003
  112OSM   H11S11605   3.196   1.054   9.506 -0.4548 -0.5833  1.2761
  112OSM   H11T11606   3.319   0.938   9.485 -2.7671 -0.0234 -1.3544
  112OSM   C12S11607   3.371   1.117   9.389  0.0267  0.4472  0.9475
  112OSM   H12S11608   3.480   1.109   9.407  0.8390  3.4821 -1.7057
  112OSM   H12T11609   3.365   1.228   9.388  1.7164  0.5653  0.3212
  112OSM   C13S11610   3.324   1.058   9.253  0.1864 -0.7706 -0.3142
  112OSM   H13S11611   3.219   1.090   9.236 -0.5784 -2.6524  0.5930
  112OSM   H13T11612   3.315   0.948   9.253  0.2017 -0.7951 -2.0371
  112OSM   C14S11613   3.419   1.097   9.134 -0.2545 -0.2614 -0.3795
  112OSM   H14S11614   3.525   1.067   9.151 -0.2079  0.2082  0.2361
  112OSM   H14T11615   3.418   1.208   9.134  1.2549 -0.2226 -0.1374
  112OSM   C15S11616   3.373   1.047   8.999 -0.6486  0.4411  0.8130
  112OSM   H15S11617   3.439   1.082   8.917  0.5518 -3.4678 -0.0988
  112OSM   H15T11618   3.278   1.104   8.989 -1.1687 -0.7116 -1.3378
  112OSM   C16S11619   3.362   0.903   8.973  0.1454  0.1906 -0.6025
  112OSM   H16S11620   3.371   0.884   8.864  2.5994 -0.4869 -0.3425
  112OSM   H16T11621   3.263   0.858   8.997 -0.0606  0.3770 -1.0831
  112OSM   C17S11622   3.481   0.820   9.035  0.3360 -0.3951  0.3615
  112OSM   H17S11623   3.471   0.821   9.145 -1.6493 -1.9237  0.2406
  112OSM   H17T11624   3.580   0.868   9.018 -0.9464  1.5250 -2.3899
  112OSM   C18S11625   3.483   0.675   8.993 -0.4283 -0.5191  0.4034
  112OSM   H18S11626   3.385   0.624   9.003  0.4306 -2.1051  0.9177
  112OSM   H18T11627   3.545   0.616   9.063 -1.8473 -2.0629  0.4156
  112OSM   H18U11628   3.533   0.657   8.895  1.1444  0.8550  0.8942
  112OSM    C1F11629   2.745   1.168  10.247  0.5099  0.6074 -0.2374
  112OSM     OF11630   2.692   1.263  10.301  0.0762 -0.3280  0.0567
  112OSM    C2F11631   2.690   1.115  10.119  0.4383  0.3814 -0.2786
  112OSM    H2F11632   2.590   1.157  10.096  0.0642  0.8436  1.9876
  112OSM    H2G11633   2.677   1.005  10.129 -1.4447  0.5688 -0.4071
  112OSM    C3F11634   2.795   1.136   9.995  0.3709  0.4449  0.4927
  112OSM    H3F11635   2.898   1.101  10.020  0.2432 -0.2301  0.1057
  112OSM    H3G11636   2.808   1.245   9.980  0.6690  0.1891 -1.2637
  112OSM    C4F11637   2.739   1.070   9.867  0.3861  0.2619 -0.1282
  112OSM    H4F11638   2.646   1.122   9.835 -0.4123  1.4935  3.6471
  112OSM    H4G11639   2.712   0.963   9.882 -2.3234  0.6427 -1.6083
  112OSM    C5F11640   2.841   1.068   9.758  0.2923 -0.0305  0.7384
  112OSM    H5F11641   2.936   1.029   9.801  0.8593  0.7226  0.1959
  112OSM    H5G11642   2.866   1.171   9.725 -0.8532 -0.6072 -2.2745
  112OSM    C6F11643   2.799   0.981   9.642 -0.6721  0.1226 -0.5618
  112OSM    H6F11644   2.705   1.017   9.596  0.0547  1.5916 -0.9495
  112OSM    H6G11645   2.785   0.874   9.667 -1.8963  0.3785 -0.0872
  112OSM    C7F11646   2.901   0.973   9.523  0.1214  0.0453  0.8971
  112OSM    H7F11647   3.005   0.963   9.562  0.3888 -0.3964  0.0800
  112OSM    H7G11648   2.902   1.072   9.472 -0.2121 -0.6196 -0.4155
  112OSM    C8F11649   2.879   0.855   9.424  0.5798 -0.2229 -0.1327
  112OSM    H8F11650   2.773   0.833   9.401  1.5487 -3.3728 -2.1945
  112OSM    H8G11651   2.916   0.765   9.477 -2.0570 -0.8063  0.8691
  112OSM    C9F11652   2.941   0.873   9.284 -0.7855  0.1510 -0.0783
  112OSM    H9F11653   3.010   0.958   9.275  0.6623 -1.0416 -0.6220
  112OSM   C10F11654   2.936   0.788   9.183 -0.0000  1.2017 -0.2330
  112OSM   H10F11655   2.966   0.822   9.083  0.9168 -0.8102 -0.6955
  112OSM   C11F11656   2.863   0.653   9.190 -0.2546 -0.4355 -0.1084
  112OSM   H11F11657   2.757   0.662   9.157 -0.0187 -0.9423 -1.0532
  112OSM   H11G11658   2.877   0.604   9.288 -0.4714 -2.7170 -1.1637
  112OSM   C12F11659   2.924   0.562   9.084 -0.2642 -0.1249  0.3896
  112OSM   H12F11660   2.885   0.588   8.984  0.7178  0.2417  0.0873
  112OSM   H12G11661   2.882   0.461   9.106  1.2095 -1.0999 -1.0319
  112OSM   C13F11662   3.076   0.547   9.077  0.0899 -0.1579 -0.0997
  112OSM   H13F11663   3.105   0.506   9.176  1.8475 -2.5701 -1.4842
  112OSM   H13G11664   3.135   0.636   9.046 -0.8180 -0.1385 -1.8907
  112OSM   C14F11665   3.112   0.434   8.974  0.5239 -0.0771  0.1059
  112OSM   H14F11666   3.220   0.435   8.949  0.9011 -0.3256  1.6216
  112OSM   H14G11667   3.051   0.471   8.888 -0.6427  0.2631  1.0491
  112OSM   C15F11668   3.083   0.291   9.025  0.5666 -0.6447  0.4268
  112OSM   H15F11669   2.987   0.279   9.079  0.1741 -0.3851 -0.1996
  112OSM   H15G11670   3.159   0.283   9.106  0.1214  0.7449  1.0224
  112OSM   C16F11671   3.096   0.182   8.924 -0.0215 -0.0840  0.2937
  112OSM   H16F11672   3.098   0.085   8.979  1.9913 -0.7452 -0.8354
  112OSM   H16G11673   3.195   0.192   8.875  0.6863  0.3723  1.7387
  112OSM   C17F11674   2.986   0.196   8.819  0.5927  0.4401  0.2134
  112OSM   H17F11675   3.021   0.135   8.733  0.8895 -0.6799  1.0949
  112OSM   H17G11676   2.966   0.304   8.802 -0.5838  0.4993  1.7074
  112OSM   C18F11677   2.846   0.140   8.862 -0.3872  0.4642 -0.6237
  112OSM   H18F11678   2.842   0.034   8.830  0.1134  0.5055 -0.8434
  112OSM   H18G11679   2.768   0.201   8.811  1.0990  3.2218  0.1674
  112OSM   H18H11680   2.835   0.156   8.972  3.8055  3.3151 -0.3401
  113OSM      N11681   3.565   0.473  11.179 -0.8028 -0.0548 -0.1917
  113OSM    C1511682   3.457   0.426  11.261  0.8817  0.3025 -1.0303
  113OSM   H15A11683   3.406   0.512  11.301  0.1097 -0.7966  0.4662
  113OSM   H15B11684   3.491   0.387  11.356 -0.5141 -0.4737 -0.8265
  113OSM   H15C11685   3.387   0.360  11.213 -0.0759 -0.2269  0.9965
  113OSM    C1411686   3.659   0.553  11.262 -0.0985 -0.0691  0.0836
  113OSM   H14A11687   3.674   0.497  11.353  0.7206 -2.5535 -1.4743
  113OSM   H14B11688   3.621   0.652  11.282  0.9959  0.9396 -2.4065
  113OSM   H14C11689   3.749   0.562  11.203 -0.6973  0.9426 -0.6941
  113OSM    C1311690   3.656   0.353  11.148 -0.0213 -0.3892  0.1132
  113OSM   H13A11691   3.667   0.302  11.243  2.2527 -1.2455 -0.5534
  113OSM   H13B11692   3.753   0.372  11.104 -0.0572 -0.6701 -0.0866
  113OSM   H13C11693   3.599   0.284  11.087 -1.7517  0.9048  0.1797
  113OSM    C1211694   3.523   0.551  11.062  0.6409  0.0039  0.5359
  113OSM   H12A11695   3.606   0.593  11.007  1.0776  1.3580  2.1284
  113OSM   H12B11696   3.454   0.626  11.096  1.8758  0.4463  2.2158
  113OSM    C1111697   3.434   0.475  10.951  0.0251  0.2592  0.2428
  113OSM   H11A11698   3.489   0.384  10.920  0.1651  0.0141  1.1877
  113OSM   H11B11699   3.433   0.548  10.867  1.3122  0.8788  0.7387
  113OSM      P11700   3.184   0.552  11.006  0.2771 -0.2058  0.2028
  113OSM    O1311701   3.083   0.511  11.097  0.4875  1.0490  0.1507
  113OSM    O1411702   3.243   0.685  11.022 -0.6392  0.3589 -0.5042
  113OSM    O1111703   3.106   0.549  10.862 -0.2362  0.2087 -0.3007
  113OSM    O1211704   3.301   0.441  10.998 -0.2203 -0.7838 -0.0225
  113OSM    C1S11705   3.142   0.462  10.753 -0.3566 -0.2173 -0.4342
  113OSM    H1S11706   3.080   0.369  10.758  1.5279 -1.4708  3.9489
  113OSM    H1T11707   3.246   0.425  10.756  0.5471  1.9287 -2.4688
  113OSM     NF11708   3.134   0.429  10.505  0.2141 -0.1627  0.3313
  113OSM    HNF11709   3.219   0.406  10.457  1.3842  1.8767  1.2833
  113OSM    C2S11710   3.127   0.530  10.613  0.2301 -0.1268 -0.1531
  113OSM    H2S11711   3.037   0.591  10.593 -1.9149 -3.2554 -0.8262
  113OSM    C3S11712   3.247   0.624  10.607 -0.0989  0.5768 -0.4141
  113OSM    H3S11713   3.337   0.571  10.645 -0.9489 -0.3730  0.3532
  113OSM     O311714   3.234   0.746  10.681 -0.2228  0.6472  0.3400
  113OSM    HO311715   3.175   0.719  10.751  0.4250  1.5009  1.2486
  113OSM    C4S11716   3.260   0.671  10.469  0.1337  0.1454  0.4021
  113OSM    H4S11717   3.191   0.752  10.441  0.4927  1.2882  2.5539
  113OSM    C5S11718   3.376   0.662  10.395  0.1080  0.1474 -1.1604
  113OSM    H5S11719   3.459   0.612  10.446 -1.8841  0.1408  2.4300
  113OSM    C6S11720   3.396   0.723  10.261 -0.0646  0.0336  0.5073
  113OSM    H6S11721   3.504   0.751  10.265 -0.3271  0.9423  1.4328
  113OSM    H6T11722   3.335   0.815  10.248  0.7275  0.4627 -0.3156
  113OSM    C7S11723   3.373   0.623  10.152 -0.4560 -0.1469  0.2203
  113OSM    H7S11724   3.266   0.597  10.139 -0.3105 -1.1319  0.8559
  113OSM    H7T11725   3.417   0.524  10.178 -1.0231 -0.0180  1.7755
  113OSM    C8S11726   3.417   0.660  10.005  0.3123 -0.2561  0.4930
  113OSM    H8S11727   3.521   0.696  10.021  1.0961 -1.5684 -1.3610
  113OSM    H8T11728   3.366   0.753   9.971 -1.5021 -1.3230  0.1508
  113OSM    C9S11729   3.411   0.545   9.906  0.2632  0.4094  0.3741
  113OSM    H9S11730   3.329   0.472   9.922  0.8004 -0.3262 -0.1365
  113OSM    H9T11731   3.502   0.482   9.917  1.1858  1.7430  0.6781
  113OSM   C10S11732   3.424   0.606   9.766  0.2541  0.4886  0.5290
  113OSM   H10S11733   3.519   0.662   9.756 -0.5680  1.7130 -0.9805
  113OSM   H10T11734   3.346   0.685   9.757  1.4457  1.5629 -0.8073
  113OSM   C11S11735   3.409   0.496   9.651  0.1899 -0.5033  0.0255
  113OSM   H11S11736   3.301   0.470   9.661  0.0169  0.3985  0.6456
  113OSM   H11T11737   3.469   0.404   9.672  0.7519 -1.3531 -4.4403
  113OSM   C12S11738   3.453   0.555   9.513  1.3007  0.4266  0.2159
  113OSM   H12S11739   3.563   0.574   9.510  1.8118 -1.6215  2.3459
  113OSM   H12T11740   3.405   0.655   9.516  0.2318 -0.0987  1.5544
  113OSM   C13S11741   3.400   0.487   9.390  0.4432 -0.1619 -0.0673
  113OSM   H13S11742   3.403   0.563   9.309  0.3911  2.9196  2.6129
  113OSM   H13T11743   3.294   0.459   9.409  0.1584  1.0951  0.3055
  113OSM   C14S11744   3.487   0.363   9.358  0.2148  0.7245  0.0261
  113OSM   H14S11745   3.486   0.292   9.443  0.6970  1.2161  0.4565
  113OSM   H14T11746   3.592   0.387   9.331 -0.0687 -0.0507 -1.8943
  113OSM   C15S11747   3.445   0.289   9.228 -0.3666 -0.0473 -0.0500
  113OSM   H15S11748   3.434   0.360   9.144 -0.4479  2.3639  1.9035
  113OSM   H15T11749   3.340   0.261   9.253 -0.7997  0.5307 -1.1485
  113OSM   C16S11750   3.532   0.162   9.197 -0.1224 -0.8921 -0.7320
  113OSM   H16S11751   3.537   0.109   9.295 -2.8952  1.4138  0.8379
  113OSM   H16T11752   3.634   0.193   9.169 -0.2218  0.7816  0.5574
  113OSM   C17S11753   3.479   0.067   9.090 -0.4501  0.8279  0.6284
  113OSM   H17S11754   3.377   0.028   9.112 -0.8137  1.2870 -0.1931
  113OSM   H17T11755   3.554  -0.014   9.084 -0.4612  0.9072 -0.9877
  113OSM   C18S11756   3.486   0.136   8.954  0.2987 -0.7663  0.1778
  113OSM   H18S11757   3.583   0.185   8.930 -0.4698 -1.2427 -4.9608
  113OSM   H18T11758   3.419   0.225   8.946  1.1060 -0.0859  0.7762
  113OSM   H18U11759   3.477   0.067   8.868  2.6975 -1.6212  0.5342
  113OSM    C1F11760   3.035   0.346  10.489  0.3581  0.4792 -0.5138
  113OSM     OF11761   2.936   0.344  10.563  0.5982  0.5685  0.5985
  113OSM    C2F11762   3.067   0.238  10.383 -0.8936 -0.0264 -0.1616
  113OSM    H2F11763   3.160   0.195  10.428 -2.9358 -2.4174  2.0723
  113OSM    H2G11764   3.085   0.291  10.287 -0.1135 -1.4011 -0.8014
  113OSM    C3F11765   2.946   0.146  10.341  0.9436 -0.2311  0.2183
  113OSM    H3F11766   2.859   0.209  10.315  0.6162 -0.4739  0.7001
  113OSM    H3G11767   2.916   0.083  10.428 -0.3798 -0.6721 -0.5279
  113OSM    C4F11768   2.981   0.044  10.229  0.6653 -0.1386  0.1241
  113OSM    H4F11769   3.086   0.023  10.259  0.8406  1.0638  0.4181
  113OSM    H4G11770   2.962   0.098  10.134  1.4661  2.1713  1.1978
  113OSM    C5F11771   2.902  -0.088  10.248 -0.3522  0.6182  0.5310
  113OSM    H5F11772   2.793  -0.078  10.228 -0.6195 -1.8808  0.4595
  113OSM    H5G11773   2.908  -0.118  10.355 -1.5098 -0.3119  0.3577
  113OSM    C6F11774   2.963  -0.187  10.141 -0.5478 -0.2704  0.3199
  113OSM    H6F11775   2.911  -0.285  10.156 -1.4106  0.2230  0.6411
  113OSM    H6G11776   3.073  -0.190  10.150 -0.5325 -1.3066 -0.1028
  113OSM    C7F11777   2.924  -0.154   9.999  0.6878  0.3168 -0.2436
  113OSM    H7F11778   2.972  -0.057   9.974  3.2471 -1.3033 -2.1393
  113OSM    H7G11779   2.815  -0.145   9.981  0.8047  1.4204 -0.4281
  113OSM    C8F11780   2.977  -0.264   9.908  0.1026  0.3671 -0.0827
  113OSM    H8F11781   3.087  -0.249   9.914 -0.0763  1.0771  2.5705
  113OSM    H8G11782   2.943  -0.227   9.808 -2.6376  1.9074  1.3122
  113OSM    C9F11783   2.948  -0.411   9.932 -0.1364  0.9820  0.2680
  113OSM    H9F11784   2.930  -0.448  10.034 -0.9475  0.1201 -0.1676
  113OSM   C10F11785   2.949  -0.513   9.839 -0.0925 -0.0957 -0.5132
  113OSM   H10F11786   2.914  -0.611   9.875  1.7285 -0.0873  1.4496
  113OSM   C11F11787   2.978  -0.503   9.695 -0.4600 -0.1981 -0.3156
  113OSM   H11F11788   2.944  -0.402   9.662  2.4132  1.2379  0.7703
  113OSM   H11G11789   2.933  -0.586   9.637 -1.8024 -2.1848  3.2739
  113OSM   C12F11790   3.131  -0.516   9.663 -0.2614 -0.3102  0.5440
  113OSM   H12F11791   3.188  -0.456   9.737 -1.9314  0.0251  1.6244
  113OSM   H12G11792   3.144  -0.468   9.563  2.8829 -1.2666  0.3994
  113OSM   C13F11793   3.185  -0.658   9.667  0.1485 -0.2580  0.7424
  113OSM   H13F11794   3.136  -0.728   9.597  0.4312 -1.5752  1.8331
  113OSM   H13G11795   3.175  -0.710   9.765 -2.5773  1.6191  1.6085
  113OSM   C14F11796   3.337  -0.665   9.639  0.3751  0.2883  0.6512
  113OSM   H14F11797   3.395  -0.608   9.715  2.3271  0.7646 -1.1015
  113OSM   H14G11798   3.354  -0.606   9.546 -1.1382  0.7235  0.6168
  113OSM   C15F11799   3.389  -0.805   9.626  0.3527  0.3352 -0.3119
  113OSM   H15F11800   3.330  -0.857   9.705  2.3954 -0.9742  0.4109
  113OSM   H15G11801   3.495  -0.823   9.652  0.6054 -1.5150 -2.3428
  113OSM   C16F11802   3.365  -0.865   9.490 -0.7001 -0.7851  0.2268
  113OSM   H16F11803   3.262  -0.856   9.450 -0.8709  3.2281  1.1840
  113OSM   H16G11804   3.398  -0.971   9.498  0.8730 -0.2344  1.6467
  113OSM   C17F11805   3.458  -0.812   9.379 -0.0138  0.0377  0.6119
  113OSM   H17F11806   3.514  -0.900   9.340  0.2255 -0.5278  2.1776
  113OSM   H17G11807   3.536  -0.742   9.416  0.3284  0.5520 -0.9795
  113OSM   C18F11808   3.380  -0.735   9.271 -0.2454 -0.7108 -0.1235
  113OSM   H18F11809   3.294  -0.785   9.221 -1.3132  0.5056  0.4397
  113OSM   H18G11810   3.452  -0.698   9.195 -0.7562  2.0421  0.6132
  113OSM   H18H11811   3.344  -0.643   9.321  1.9201  0.0458  0.1650
  114OSM      N11812   3.862   4.425  11.378 -0.1827 -0.4083  0.2870
  114OSM    C1511813   3.919   4.534  11.463 -0.5933 -0.8568  0.0165
  114OSM   H15A11814   3.854   4.550  11.548 -1.8244 -1.9794 -0.6790
  114OSM   H15B11815   3.922   4.624  11.404  1.4692  0.0498  1.3918
  114OSM   H15C11816   4.008   4.505  11.516 -0.8337 -2.5500 -0.4420
  114OSM    C1411817   3.939   4.419  11.244  0.6152 -0.1648  0.1793
  114OSM   H14A11818   4.046   4.423  11.256  0.3211  1.7879  2.9754
  114OSM   H14B11819   3.922   4.508  11.186  0.6941  1.2722  2.2558
  114OSM   H14C11820   3.916   4.324  11.197  1.3454 -0.2320 -0.0613
  114OSM    C1311821   3.872   4.298  11.454 -0.1806 -0.4720  0.2919
  114OSM   H13A11822   3.978   4.276  11.451 -0.2816 -1.4481  2.3077
  114OSM   H13B11823   3.818   4.218  11.406  0.1242 -0.3787 -0.2188
  114OSM   H13C11824   3.843   4.314  11.557 -1.7748  2.4268 -0.5004
  114OSM    C1211825   3.719   4.470  11.347  0.4021 -0.3962  0.1613
  114OSM   H12A11826   3.719   4.575  11.322 -0.6049 -0.9576 -2.5520
  114OSM   H12B11827   3.674   4.456  11.444  2.9481 -1.5780  1.2618
  114OSM    C1111828   3.644   4.401  11.232 -0.3311  0.0777 -0.5101
  114OSM   H11A11829   3.706   4.403  11.140  0.9632 -0.5850  0.3132
  114OSM   H11B11830   3.545   4.450  11.216 -0.8911 -0.9330 -0.2236
  114OSM      P11831   3.621   4.136  11.182  0.0643 -0.0484 -0.3685
  114OSM    O1311832   3.764   4.091  11.192  0.0716  0.8721  0.2753
  114OSM    O1411833   3.522   4.036  11.233 -0.3621 -0.0443 -0.1720
  114OSM    O1111834   3.577   4.176  11.040 -0.0282  0.2421  0.7137
  114OSM    O1211835   3.610   4.268  11.265  0.1350  0.1542  0.4937
  114OSM    C1S11836   3.613   4.092  10.923 -0.0411  0.4357 -0.8762
  114OSM    H1S11837   3.567   3.993  10.941  0.8658  0.0560 -0.6260
  114OSM    H1T11838   3.723   4.078  10.930  0.0151  1.4795  0.8709
  114OSM     NF11839   3.591   4.080  10.683 -0.5857  0.4973 -0.4894
  114OSM    HNF11840   3.685   4.068  10.652  0.0325 -0.5935  1.6398
  114OSM    C2S11841   3.586   4.171  10.793  0.6669 -0.7183  0.7492
  114OSM    H2S11842   3.489   4.223  10.801  1.1795 -0.0467  4.3408
  114OSM    C3S11843   3.692   4.290  10.790  0.2594  0.5898  0.5776
  114OSM    H3S11844   3.794   4.246  10.789  0.4964  0.9254 -2.8033
  114OSM     O311845   3.684   4.385  10.891 -0.2159 -0.1307  0.7892
  114OSM    HO311846   3.651   4.336  10.967 -0.6830 -0.7172  0.2204
  114OSM    C4S11847   3.682   4.355  10.650  0.7294 -0.0115  0.0170
  114OSM    H4S11848   3.605   4.433  10.646  0.3792 -0.3935 -0.9467
  114OSM    C5S11849   3.738   4.328  10.533  0.1563  0.3259 -0.3656
  114OSM    H5S11850   3.815   4.250  10.528  1.6927  1.8654 -1.9964
  114OSM    C6S11851   3.702   4.406  10.408  0.3141  0.6100 -0.2719
  114OSM    H6S11852   3.751   4.505  10.395 -1.2158  1.3242 -0.7965
  114OSM    H6T11853   3.596   4.438  10.417  0.2887  0.3507  0.5353
  114OSM    C7S11854   3.723   4.307  10.291 -0.0437  0.4137  0.3194
  114OSM    H7S11855   3.661   4.215  10.294 -0.5255  0.7551  1.3875
  114OSM    H7T11856   3.830   4.284  10.272 -0.1130  0.7060 -0.4239
  114OSM    C8S11857   3.684   4.379  10.151 -0.3603  0.0879  0.0555
  114OSM    H8S11858   3.745   4.472  10.149  1.6832 -1.1940 -0.2156
  114OSM    H8T11859   3.576   4.402  10.137 -0.1233  0.2642 -1.7886
  114OSM    C9S11860   3.734   4.290  10.034 -0.5515  0.2750 -0.4970
  114OSM    H9S11861   3.677   4.195  10.033  1.7822 -1.2710  1.4846
  114OSM    H9T11862   3.841   4.268  10.057 -0.6520 -0.2589 -0.5291
  114OSM   C10S11863   3.715   4.360   9.901  0.0191 -0.1382  0.3642
  114OSM   H10S11864   3.791   4.440   9.898  0.0975 -0.2395 -0.4567
  114OSM   H10T11865   3.612   4.401   9.892  0.7413  1.9935  1.1458
  114OSM   C11S11866   3.743   4.259   9.787 -0.0215 -0.4724 -0.1289
  114OSM   H11S11867   3.642   4.216   9.767 -1.0176  1.6968 -0.0784
  114OSM   H11T11868   3.807   4.181   9.833 -2.1406 -0.7160  2.6450
  114OSM   C12S11869   3.790   4.323   9.658 -0.7395  0.0561  0.1701
  114OSM   H12S11870   3.892   4.360   9.682 -0.4839 -0.4940 -0.0685
  114OSM   H12T11871   3.717   4.399   9.623 -2.3560 -0.8507  1.4231
  114OSM   C13S11872   3.801   4.223   9.546  0.0857 -0.2960  0.0443
  114OSM   H13S11873   3.705   4.167   9.556 -0.4767  1.0425  3.1329
  114OSM   H13T11874   3.892   4.159   9.548  1.5371  1.6753  2.6546
  114OSM   C14S11875   3.806   4.296   9.407 -0.3898 -0.1201  0.6676
  114OSM   H14S11876   3.906   4.339   9.388  0.3453 -1.5386  1.1871
  114OSM   H14T11877   3.729   4.375   9.420 -1.0453 -0.8060  1.0371
  114OSM   C15S11878   3.765   4.214   9.285  0.6676  0.2626 -0.5320
  114OSM   H15S11879   3.659   4.181   9.293 -0.2928  2.7841 -1.7055
  114OSM   H15T11880   3.824   4.120   9.278 -0.8707 -0.7671 -0.1541
  114OSM   C16S11881   3.778   4.277   9.147 -0.5906 -0.0071  0.2459
  114OSM   H16S11882   3.885   4.304   9.134 -0.4518 -1.0515 -0.9582
  114OSM   H16T11883   3.708   4.363   9.160 -3.4329 -2.1436  0.1035
  114OSM   C17S11884   3.726   4.185   9.034 -0.3555 -0.2536 -0.8608
  114OSM   H17S11885   3.659   4.254   8.979  1.8534  1.1466 -1.9215
  114OSM   H17T11886   3.671   4.099   9.077 -0.2181 -0.0217 -0.2045
  114OSM   C18S11887   3.834   4.139   8.949  0.3702 -0.3019  1.2861
  114OSM   H18S11888   3.903   4.067   9.000  3.4745  0.1158 -1.9532
  114OSM   H18T11889   3.893   4.225   8.911  0.3865 -0.7096  0.3641
  114OSM   H18U11890   3.780   4.082   8.871  1.1299  0.1036  0.4566
  114OSM    C1F11891   3.500   3.985  10.659  0.9162  0.2624 -0.1024
  114OSM     OF11892   3.394   3.966  10.721  0.0896 -0.0544  0.0967
  114OSM    C2F11893   3.527   3.897  10.549 -0.7682 -0.4843  0.9644
  114OSM    H2F11894   3.441   3.831  10.529 -1.7981  1.1936 -0.4579
  114OSM    H2G11895   3.612   3.831  10.575 -0.9607 -1.9478 -1.8182
  114OSM    C3F11896   3.569   3.971  10.417  0.1692 -0.1154 -0.0298
  114OSM    H3F11897   3.662   4.031  10.426 -0.6546  1.0508  1.1570
  114OSM    H3G11898   3.491   4.046  10.391 -0.1414 -0.2246  0.5514
  114OSM    C4F11899   3.582   3.864  10.306  0.6970 -0.0097 -0.2684
  114OSM    H4F11900   3.480   3.840  10.269 -0.4507  3.3328  0.4309
  114OSM    H4G11901   3.621   3.772  10.355 -1.9557  0.3310  2.8174
  114OSM    C5F11902   3.673   3.903  10.190  0.5100 -0.0210 -0.4985
  114OSM    H5F11903   3.762   3.932  10.250 -0.3352  0.8961  0.3752
  114OSM    H5G11904   3.635   3.996  10.142  2.1970  0.7185 -0.4481
  114OSM    C6F11905   3.688   3.803  10.075 -0.4902 -0.1156 -0.0090
  114OSM    H6F11906   3.591   3.764  10.037 -0.3417  0.1612 -0.6890
  114OSM    H6G11907   3.750   3.726  10.125  1.6773  1.2528 -0.4340
  114OSM    C7F11908   3.772   3.867   9.962  0.4877  0.3107  0.2139
  114OSM    H7F11909   3.841   3.791   9.920 -1.3634 -0.4151 -1.7336
  114OSM    H7G11910   3.830   3.953  10.002 -0.8351  0.4957  1.8262
  114OSM    C8F11911   3.692   3.922   9.845 -0.1580  0.5598 -0.1159
  114OSM    H8F11912   3.757   3.985   9.781 -0.2291  0.9028  0.1438
  114OSM    H8G11913   3.602   3.977   9.882 -0.8223 -1.0582  0.7398
  114OSM    C9F11914   3.638   3.803   9.767  0.1925  0.0758  0.0932
  114OSM    H9F11915   3.565   3.741   9.820  0.1263  0.4284  0.4175
  114OSM   C10F11916   3.677   3.766   9.645 -0.4920  0.0571  0.5710
  114OSM   H10F11917   3.623   3.684   9.596 -0.6651  0.0679  0.7392
  114OSM   C11F11918   3.796   3.820   9.570  0.1331 -0.2142 -0.6429
  114OSM   H11F11919   3.896   3.792   9.610  0.4361  0.0751 -1.1782
  114OSM   H11G11920   3.787   3.930   9.563  0.0196 -0.3214 -2.7776
  114OSM   C12F11921   3.807   3.782   9.421 -0.0648 -0.6315 -0.7670
  114OSM   H12F11922   3.811   3.672   9.410  0.0067 -0.4855 -2.3095
  114OSM   H12G11923   3.907   3.819   9.390 -0.2039  0.7788  0.3337
  114OSM   C13F11924   3.690   3.826   9.340 -0.4406 -0.4054 -0.1543
  114OSM   H13F11925   3.685   3.937   9.329 -3.1563 -0.4687 -0.1499
  114OSM   H13G11926   3.591   3.792   9.378 -1.1958  1.3675 -0.4196
  114OSM   C14F11927   3.716   3.768   9.202 -0.4557  0.4344  0.9897
  114OSM   H14F11928   3.733   3.659   9.219  0.2350  0.4874  0.6632
  114OSM   H14G11929   3.805   3.810   9.151 -1.5368  2.3460  0.5667
  114OSM   C15F11930   3.601   3.793   9.093 -0.4225  0.5659 -0.7962
  114OSM   H15F11931   3.559   3.895   9.106 -1.6963  0.0157 -0.3526
  114OSM   H15G11932   3.523   3.719   9.120  0.8115 -0.4852  0.0212
  114OSM   C16F11933   3.643   3.773   8.952  0.2783  0.4997  0.1662
  114OSM   H16F11934   3.701   3.860   8.915  0.3368  1.2083  1.8527
  114OSM   H16G11935   3.551   3.755   8.892  0.9158  0.1757 -0.7481
  114OSM   C17F11936   3.725   3.639   8.936  0.1531 -0.0689  0.3179
  114OSM   H17F11937   3.678   3.562   9.001 -0.2730 -0.7925 -0.8062
  114OSM   H17G11938   3.826   3.646   8.980  0.8231 -0.6722 -1.0785
  114OSM   C18F11939   3.759   3.595   8.788 -0.0200  0.2064  0.6612
  114OSM   H18F11940   3.830   3.513   8.768  0.4277  0.8958 -0.6974
  114OSM   H18G11941   3.806   3.683   8.738  0.7453  2.5086  4.9656
  114OSM   H18H11942   3.660   3.566   8.747  0.3521 -1.7430  1.0760
  115OSM      N11943   4.647   4.953   5.918 -0.3851 -0.5076  0.2655
  115OSM    C1511944   4.604   4.812   5.913  1.3315 -0.1355  0.0187
  115OSM   H15A11945   4.577   4.768   6.008 -0.9973  0.5595 -0.2540
  115OSM   H15B11946   4.685   4.750   5.879  1.8810 -0.3323  1.5884
  115OSM   H15C11947   4.524   4.790   5.844 -0.3605 -0.1564  1.8873
  115OSM    C1411948   4.678   4.988   5.776 -0.2661  0.4223  0.4758
  115OSM   H14A11949   4.708   5.091   5.760 -0.0854  0.0573 -1.8298
  115OSM   H14B11950   4.593   4.970   5.712  0.9569 -2.2399 -0.5412
  115OSM   H14C11951   4.764   4.932   5.744 -0.2519  1.7274 -2.0137
  115OSM    C1311952   4.546   5.051   5.972 -0.2465 -0.7363 -0.5800
  115OSM   H13A11953   4.552   5.148   5.925 -1.4536 -0.4182 -0.1163
  115OSM   H13B11954   4.569   5.060   6.077 -0.2555  0.9103 -0.6821
  115OSM   H13C11955   4.446   5.011   5.981 -0.4362  0.0970  1.8198
  115OSM    C1211956   4.777   4.971   5.994 -0.1264 -0.3061  0.4631
  115OSM   H12A11957   4.798   5.075   5.976  1.1249 -0.7404 -0.7760
  115OSM   H12B11958   4.858   4.916   5.947  0.8355  0.8940  0.6846
  115OSM    C1111959   4.787   4.927   6.143 -0.4185 -0.4003 -0.5969
  115OSM   H11A11960   4.700   4.972   6.197  0.7788  0.5107  0.6244
  115OSM   H11B11961   4.883   4.966   6.182 -0.3125 -0.2348 -1.0184
  115OSM      P11962   4.915   4.698   6.190  0.2019  0.0365 -0.0551
  115OSM    O1311963   4.885   4.554   6.201 -0.1063 -0.9503  0.6350
  115OSM    O1411964   5.025   4.737   6.099  0.1842  0.0247 -0.0040
  115OSM    O1111965   4.947   4.752   6.334 -0.0677  0.4021 -0.3775
  115OSM    O1211966   4.777   4.784   6.166 -0.2145  0.2636  0.3932
  115OSM    C1S11967   4.872   4.735   6.451 -0.0871 -0.6204 -0.0214
  115OSM    H1S11968   4.806   4.645   6.451  1.0401 -1.4979 -1.5613
  115OSM    H1T11969   4.801   4.819   6.468 -0.5350 -1.3058  1.6652
  115OSM     NF11970   4.886   4.708   6.696 -0.1526 -0.0104  0.3323
  115OSM    HNF11971   4.888   4.781   6.764  0.8559  0.7301 -0.4644
  115OSM    C2S11972   4.964   4.736   6.573 -0.3112 -0.6409  0.1514
  115OSM    H2S11973   5.040   4.655   6.567  0.9627  0.6278 -1.7186
  115OSM    C3S11974   5.028   4.881   6.575  0.5608 -0.2724 -0.2445
  115OSM    H3S11975   4.940   4.945   6.596  1.3943  1.2596 -1.2255
  115OSM     O311976   5.091   4.939   6.462  0.1746  0.2465  0.4033
  115OSM    HO311977   5.052   4.893   6.388 -0.3532 -0.6114  1.2047
  115OSM    C4S11978   5.131   4.890   6.691  0.1031 -0.1520 -0.4392
  115OSM    H4S11979   5.204   4.809   6.702 -2.5863 -2.7027 -0.2811
  115OSM    C5S11980   5.110   4.973   6.794  0.0871  0.3044 -0.4803
  115OSM    H5S11981   5.027   5.045   6.787 -0.2900 -0.2116 -1.6695
  115OSM    C6S11982   5.200   4.968   6.918  0.7256  0.1695  0.3254
  115OSM    H6S11983   5.187   4.876   6.979 -1.6381  2.1397  3.0427
  115OSM    H6T11984   5.168   5.055   6.978 -0.2421  0.4686 -0.5891
  115OSM    C7S11985   5.354   4.976   6.888 -0.3512  0.1067  0.1415
  115OSM    H7S11986   5.378   5.076   6.848 -0.0452  0.4238  1.0844
  115OSM    H7T11987   5.385   4.902   6.812 -1.9884 -0.5363  0.0657
  115OSM    C8S11988   5.453   4.938   7.000 -0.2058  0.2079 -0.4003
  115OSM    H8S11989   5.440   5.011   7.083 -1.4686  0.7729 -1.0758
  115OSM    H8T11990   5.553   4.940   6.951 -0.9870 -2.4608 -2.3391
  115OSM    C9S11991   5.431   4.798   7.063  0.9178  0.4974  0.2205
  115OSM    H9S11992   5.407   4.734   6.975  1.4872  0.1890  0.2820
  115OSM    H9T11993   5.344   4.805   7.132  0.4077 -1.2538 -0.1931
  115OSM   C10S11994   5.544   4.727   7.137 -0.0457 -0.2130 -0.3015
  115OSM   H10S11995   5.625   4.708   7.064  1.2059  1.1533  0.6655
  115OSM   H10T11996   5.510   4.628   7.173  0.5378 -0.3766 -0.1873
  115OSM   C11S11997   5.596   4.801   7.260 -0.0006 -0.0860  0.1936
  115OSM   H11S11998   5.508   4.825   7.323 -2.0280  2.5457 -3.3481
  115OSM   H11T11999   5.655   4.893   7.237 -0.3219  0.1825  0.4414
  115OSM   C12S12000   5.692   4.721   7.351 -0.2142 -0.3890 -0.4450
  115OSM   H12S12001   5.783   4.693   7.295  0.0165 -0.2714 -0.1347
  115OSM   H12T12002   5.634   4.629   7.373 -1.5385  0.6575  0.6435
  115OSM   C13S12003   5.739   4.797   7.483  0.0593 -0.1704  0.4343
  115OSM   H13S12004   5.645   4.808   7.540  1.2388  0.7130  2.3183
  115OSM   H13T12005   5.788   4.894   7.462  0.2556 -0.1994  0.7416
  115OSM   C14S12006   5.831   4.715   7.569 -0.1158 -0.0292  0.1524
  115OSM   H14S12007   5.926   4.702   7.512  1.7227 -0.7483  3.1156
  115OSM   H14T12008   5.789   4.613   7.580 -1.8925  0.5220 -1.0860
  115OSM   C15S12009   5.884   4.764   7.706  0.4650  0.0324  0.2997
  115OSM   H15S12010   5.932   4.863   7.687 -0.0138  0.4304  1.0896
  115OSM   H15T12011   5.959   4.689   7.740 -1.1165 -2.2372 -1.0176
  115OSM   C16S12012   5.770   4.781   7.808  0.3452  0.4410  0.1862
  115OSM   H16S12013   5.711   4.687   7.812  1.8796 -0.5374  0.7957
  115OSM   H16T12014   5.701   4.860   7.773 -0.8588 -1.5074 -2.1936
  115OSM   C17S12015   5.808   4.803   7.960  0.4147  0.6701  0.0080
  115OSM   H17S12016   5.835   4.703   7.999 -2.6017  0.7618  2.7359
  115OSM   H17T12017   5.716   4.827   8.017  0.3537 -1.1206  0.7117
  115OSM   C18S12018   5.911   4.911   7.985 -0.6387 -0.0933  0.0804
  115OSM   H18S12019   5.876   5.014   7.966  3.0009  1.7168  2.1282
  115OSM   H18T12020   6.003   4.890   7.927  0.4183 -0.3458  1.7664
  115OSM   H18U12021   5.939   4.904   8.093 -0.6174  2.2299  0.2637
  115OSM    C1F12022   4.832   4.585   6.710 -0.5816 -0.2770 -0.4049
  115OSM     OF12023   4.823   4.501   6.622 -0.4481  0.1632 -0.9386
  115OSM    C2F12024   4.771   4.557   6.845  0.0023  0.4770  0.0074
  115OSM    H2F12025   4.668   4.597   6.860 -0.8141 -1.1567 -0.9052
  115OSM    H2G12026   4.839   4.605   6.918  1.5068 -0.3225 -0.8292
  115OSM    C3F12027   4.763   4.407   6.877 -1.0987  0.1485  0.8078
  115OSM    H3F12028   4.858   4.360   6.846 -2.8597 -2.0049 -1.7438
  115OSM    H3G12029   4.674   4.365   6.825 -0.0208  1.3718 -2.2220
  115OSM    C4F12030   4.725   4.396   7.027  0.3156 -0.0459 -0.3224
  115OSM    H4F12031   4.623   4.439   7.037 -0.5064 -2.3416  2.2930
  115OSM    H4G12032   4.795   4.456   7.090  2.2131 -2.0126 -0.4445
  115OSM    C5F12033   4.720   4.251   7.076  0.8857 -0.7187  0.7005
  115OSM    H5F12034   4.814   4.194   7.058  0.6466 -0.3643 -2.1015
  115OSM    H5G12035   4.634   4.199   7.029  0.8247 -2.0991  2.2605
  115OSM    C6F12036   4.687   4.234   7.225 -0.1898 -0.2890  0.4694
  115OSM    H6F12037   4.608   4.304   7.260 -0.4006  0.3635 -1.2283
  115OSM    H6G12038   4.767   4.284   7.284 -0.4656  0.0725  0.5408
  115OSM    C7F12039   4.642   4.090   7.253  0.0005  0.0254 -1.0000
  115OSM    H7F12040   4.689   4.018   7.182  0.3824 -1.1916  0.4403
  115OSM    H7G12041   4.533   4.092   7.230  0.3037  1.1167 -2.5031
  115OSM    C8F12042   4.658   4.038   7.397  0.0247  0.1608 -0.2871
  115OSM    H8F12043   4.587   4.095   7.460 -0.3261 -0.7193  0.1279
  115OSM    H8G12044   4.759   4.068   7.431  0.9596  1.1549 -3.5745
  115OSM    C9F12045   4.635   3.888   7.406 -0.4349 -0.2280 -0.6525
  115OSM    H9F12046   4.704   3.824   7.349  0.2483 -0.1708  0.0869
  115OSM   C10F12047   4.525   3.826   7.451  0.0327 -0.2422 -0.2561
  115OSM   H10F12048   4.531   3.716   7.452  1.9747 -0.1733  0.1118
  115OSM   C11F12049   4.406   3.900   7.509  0.7002  0.1691 -0.1315
  115OSM   H11F12050   4.320   3.832   7.491  1.8356 -1.2032 -0.4687
  115OSM   H11G12051   4.374   3.990   7.451 -1.9100  0.1636  1.1422
  115OSM   C12F12052   4.400   3.933   7.659  0.2059 -0.0019 -0.8442
  115OSM   H12F12053   4.299   3.978   7.672  0.1325 -0.3790 -0.0512
  115OSM   H12G12054   4.473   4.010   7.691  0.9710 -0.9347 -0.2833
  115OSM   C13F12055   4.412   3.814   7.753 -0.1986  0.4515 -0.4465
  115OSM   H13F12056   4.516   3.777   7.744 -0.9561 -1.9542 -0.0048
  115OSM   H13G12057   4.341   3.737   7.715 -0.7565  0.0014  1.3870
  115OSM   C14F12058   4.373   3.848   7.899 -0.0510  0.5655 -0.4547
  115OSM   H14F12059   4.325   3.948   7.899  1.1688  1.2136 -2.7616
  115OSM   H14G12060   4.472   3.857   7.950 -1.4691  2.1149  2.2847
  115OSM   C15F12061   4.292   3.734   7.963  0.3590  0.2717  0.0633
  115OSM   H15F12062   4.350   3.640   7.954 -0.5968 -0.1992 -1.6664
  115OSM   H15G12063   4.197   3.727   7.905  0.3021 -1.4488  0.3034
  115OSM   C16F12064   4.245   3.753   8.110  0.2635  0.5716 -0.2716
  115OSM   H16F12065   4.154   3.817   8.109 -0.4442 -0.3760  0.5608
  115OSM   H16G12066   4.319   3.789   8.184  0.2632 -0.3117  0.1746
  115OSM   C17F12067   4.204   3.618   8.178 -0.3692  0.2434  0.0253
  115OSM   H17F12068   4.295   3.558   8.202  0.4299  0.5909 -1.9326
  115OSM   H17G12069   4.141   3.556   8.111  0.5052  2.2323 -2.8076
  115OSM   C18F12070   4.122   3.639   8.308 -0.3118 -0.6329  0.4886
  115OSM   H18F12071   4.027   3.688   8.278 -1.0216 -2.2186  0.0302
  115OSM   H18G12072   4.189   3.699   8.373  0.1522 -1.1684  0.5127
  115OSM   H18H12073   4.089   3.547   8.361 -1.6984  0.2750  1.2740
  116OSM      N12074   5.100   1.559   6.458 -0.0570 -0.1755  0.2387
  116OSM    C1512075   5.164   1.549   6.323 -0.2695  0.3482  0.5927
  116OSM   H15A12076   5.100   1.510   6.245  1.5804  1.2439 -1.4898
  116OSM   H15B12077   5.254   1.489   6.327 -1.4912 -1.6668 -0.5277
  116OSM   H15C12078   5.188   1.649   6.290 -1.2058  1.7524  3.7194
  116OSM    C1412079   5.188   1.634   6.561 -0.0067  0.6871  0.1111
  116OSM   H14A12080   5.133   1.637   6.655 -1.4723 -2.3269 -0.5396
  116OSM   H14B12081   5.221   1.736   6.548  2.2079  0.1834  1.1555
  116OSM   H14C12082   5.283   1.584   6.575  0.4369  1.0269 -1.5511
  116OSM    C1312083   4.974   1.636   6.441  0.0415 -0.2109  0.8572
  116OSM   H13A12084   4.919   1.606   6.353 -1.5307  0.0360  1.7378
  116OSM   H13B12085   5.002   1.739   6.424 -0.2765 -0.5796 -2.7162
  116OSM   H13C12086   4.905   1.641   6.524 -1.4192  0.2180 -0.3454
  116OSM    C1212087   5.073   1.422   6.512 -0.1306  0.2285 -0.1475
  116OSM   H12A12088   4.998   1.373   6.452 -0.2359  1.4408 -1.0385
  116OSM   H12B12089   5.021   1.443   6.604  1.6415 -0.1081  0.9836
  116OSM    C1112090   5.189   1.323   6.537 -0.1788 -0.4901 -0.4378
  116OSM   H11A12091   5.145   1.227   6.572 -1.7816 -0.1683 -1.4739
  116OSM   H11B12092   5.251   1.370   6.618  0.1386 -1.1603 -0.2826
  116OSM      P12093   5.271   1.169   6.351 -0.1507 -0.0484  0.2972
  116OSM    O1312094   5.135   1.133   6.313 -0.5112 -0.0501 -0.2182
  116OSM    O1412095   5.367   1.166   6.237  0.5010 -0.5788 -0.1158
  116OSM    O1112096   5.341   1.065   6.457 -0.2613 -0.3882 -0.5699
  116OSM    O1212097   5.275   1.302   6.423 -0.2955 -0.1939  0.1463
  116OSM    C1S12098   5.470   1.092   6.513  0.4922 -0.5874  0.3704
  116OSM    H1S12099   5.493   1.200   6.509  2.8246 -0.9614  1.9388
  116OSM    H1T12100   5.541   1.042   6.443 -1.5586  1.7467 -3.7903
  116OSM     NF12101   5.609   1.076   6.723 -0.4948  0.3413 -0.2073
  116OSM    HNF12102   5.657   0.995   6.754  0.1196 -0.0234 -1.9457
  116OSM    C2S12103   5.483   1.040   6.662 -0.8554 -0.2296 -0.2323
  116OSM    H2S12104   5.400   1.089   6.719 -0.0403 -0.0989  0.8831
  116OSM    C3S12105   5.466   0.887   6.661  0.0579 -0.4882 -0.1240
  116OSM    H3S12106   5.549   0.834   6.608  2.1235  0.5265  1.9308
  116OSM     O312107   5.351   0.844   6.600  0.4514  0.1042 -0.4201
  116OSM    HO312108   5.331   0.912   6.535  0.5805  1.1016  0.5659
  116OSM    C4S12109   5.464   0.846   6.803  0.2617  0.5978  0.1149
  116OSM    H4S12110   5.555   0.795   6.838 -0.6394  1.0378  3.5538
  116OSM    C5S12111   5.361   0.855   6.892  0.2665  0.4703  0.0864
  116OSM    H5S12112   5.260   0.890   6.866 -0.3598 -0.4898  1.1407
  116OSM    C6S12113   5.356   0.803   7.032  0.2457 -0.2482  0.4219
  116OSM    H6S12114   5.300   0.706   7.028 -0.5226  0.2207 -1.2851
  116OSM    H6T12115   5.297   0.873   7.094 -1.6187 -0.8249 -0.6107
  116OSM    C7S12116   5.496   0.792   7.096 -0.2940  0.4012 -0.5414
  116OSM    H7S12117   5.559   0.883   7.091 -1.5233  1.4168  1.4744
  116OSM    H7T12118   5.546   0.710   7.040  2.1805  0.7959  0.9418
  116OSM    C8S12119   5.489   0.746   7.240  0.4230  0.6798 -0.2482
  116OSM    H8S12120   5.573   0.674   7.237 -0.1439  0.0400 -1.1631
  116OSM    H8T12121   5.390   0.697   7.257  0.4821 -0.1902 -2.1565
  116OSM    C9S12122   5.504   0.858   7.341 -0.2224 -0.5941 -0.4904
  116OSM    H9S12123   5.421   0.929   7.320 -0.4237 -0.9313 -0.8622
  116OSM    H9T12124   5.601   0.907   7.320 -0.6771  0.3725 -0.3788
  116OSM   C10S12125   5.492   0.806   7.488  0.2962 -0.5517  0.2186
  116OSM   H10S12126   5.567   0.725   7.488  1.3396  0.3628  1.6552
  116OSM   H10T12127   5.390   0.765   7.502  1.2252 -2.6658  1.2149
  116OSM   C11S12128   5.497   0.905   7.606  0.2851  0.1194  0.4764
  116OSM   H11S12129   5.409   0.972   7.607 -0.7539 -1.1942  0.3698
  116OSM   H11T12130   5.582   0.974   7.585 -0.9571  1.5722  0.0665
  116OSM   C12S12131   5.530   0.844   7.738  0.1218  0.0355 -0.1343
  116OSM   H12S12132   5.626   0.790   7.733 -1.5217 -3.4088  1.8759
  116OSM   H12T12133   5.445   0.775   7.758 -2.3070  1.9654 -2.9135
  116OSM   C13S12134   5.528   0.957   7.844 -0.1052 -0.0334 -0.1404
  116OSM   H13S12135   5.455   1.038   7.824 -0.9214 -0.3164  1.5170
  116OSM   H13T12136   5.623   1.015   7.842 -1.4317  2.2382 -2.2829
  116OSM   C14S12137   5.495   0.911   7.988 -0.0095 -0.3157  0.4035
  116OSM   H14S12138   5.568   0.832   8.018  0.0754 -0.2086  0.4786
  116OSM   H14T12139   5.400   0.853   7.986 -0.0292 -0.2862 -1.1970
  116OSM   C15S12140   5.497   1.010   8.105  0.2188 -0.3142  1.1194
  116OSM   H15S12141   5.488   0.956   8.202  1.1283  0.3972  1.6243
  116OSM   H15T12142   5.412   1.078   8.083 -0.0125 -0.7477  0.6621
  116OSM   C16S12143   5.627   1.087   8.109 -0.0829 -0.6813 -0.3938
  116OSM   H16S12144   5.668   1.117   8.010  0.0816 -1.9844 -0.7500
  116OSM   H16T12145   5.715   1.032   8.148  0.7016  0.3183 -0.7289
  116OSM   C17S12146   5.614   1.207   8.209  0.5673 -0.2342 -0.4677
  116OSM   H17S12147   5.712   1.259   8.217  0.3839 -0.1254  1.5651
  116OSM   H17T12148   5.593   1.151   8.303  0.1049  0.5107 -0.1172
  116OSM   C18S12149   5.519   1.329   8.187 -0.1578  0.0399 -0.3420
  116OSM   H18S12150   5.536   1.400   8.271  0.1020 -1.6861  1.1420
  116OSM   H18T12151   5.419   1.280   8.190 -0.6042  0.9065 -0.6346
  116OSM   H18U12152   5.542   1.376   8.089 -0.6861  1.6123  0.2520
  116OSM    C1F12153   5.637   1.209   6.759  0.3399  0.0694  0.1887
  116OSM     OF12154   5.558   1.301   6.736  0.0884  0.0330 -0.2837
  116OSM    C2F12155   5.766   1.232   6.837  0.2292  0.2704 -0.5390
  116OSM    H2F12156   5.852   1.183   6.786  1.1003  2.1222 -0.9130
  116OSM    H2G12157   5.749   1.179   6.933 -1.2751  2.0743  0.2639
  116OSM    C3F12158   5.779   1.378   6.876  0.8595 -0.8339  0.6436
  116OSM    H3F12159   5.685   1.410   6.926 -0.1119  0.0695 -1.6420
  116OSM    H3G12160   5.786   1.438   6.783  3.4527 -1.4664  0.3681
  116OSM    C4F12161   5.894   1.420   6.969 -0.5117 -0.1319 -0.0675
  116OSM    H4F12162   5.919   1.335   7.035 -0.3834  0.4498  0.6479
  116OSM    H4G12163   5.860   1.495   7.043  0.3910 -2.6746  3.1682
  116OSM    C5F12164   6.020   1.477   6.903  0.6021  0.6257 -0.1505
  116OSM    H5F12165   5.999   1.580   6.867 -2.5820 -0.4111 -1.6729
  116OSM    H5G12166   6.037   1.410   6.815 -1.7168 -0.2829  0.0094
  116OSM    C6F12167   6.150   1.472   6.981 -0.0299 -0.2650  0.3906
  116OSM    H6F12168   6.197   1.371   6.973  1.7561  0.6345 -1.5498
  116OSM    H6G12169   6.132   1.488   7.089 -0.1211 -1.3138  0.5472
  116OSM    C7F12170   6.261   1.562   6.922 -0.6361 -0.1924  0.2404
  116OSM    H7F12171   6.212   1.661   6.916 -4.3861 -1.7192  2.2525
  116OSM    H7G12172   6.259   1.514   6.822 -1.2494  1.8580 -0.7893
  116OSM    C8F12173   6.396   1.543   6.994  0.3619 -0.5683  0.3568
  116OSM    H8F12174   6.423   1.436   6.979  0.1520 -0.6134  0.2931
  116OSM    H8G12175   6.384   1.572   7.100  0.3532 -1.1407  0.5130
  116OSM    C9F12176   6.504   1.630   6.927  0.3016  0.5170 -0.2719
  116OSM    H9F12177   6.499   1.636   6.817 -1.9581  0.5669 -0.2101
  116OSM   C10F12178   6.600   1.700   6.983 -0.1896 -0.1635 -0.9072
  116OSM   H10F12179   6.675   1.753   6.922  0.3105  0.1726 -0.0220
  116OSM   C11F12180   6.615   1.708   7.137  0.3963 -0.0913  0.0500
  116OSM   H11F12181   6.518   1.744   7.178  0.3664  1.2579 -1.1238
  116OSM   H11G12182   6.673   1.802   7.147 -1.4641  1.2831 -1.3482
  116OSM   C12F12183   6.677   1.584   7.207  0.6206 -0.3392 -0.5178
  116OSM   H12F12184   6.779   1.562   7.169  1.4119  1.5108  0.3962
  116OSM   H12G12185   6.607   1.498   7.209 -0.4409  0.3097  4.5580
  116OSM   C13F12186   6.694   1.616   7.357  1.0766  0.2000 -0.6007
  116OSM   H13F12187   6.613   1.685   7.388 -1.4000 -2.2093 -1.3293
  116OSM   H13G12188   6.781   1.685   7.369  0.0113  1.4028  0.5759
  116OSM   C14F12189   6.697   1.486   7.439 -0.5146 -0.9339  0.3019
  116OSM   H14F12190   6.789   1.441   7.395  0.3447  1.2524 -0.2674
  116OSM   H14G12191   6.607   1.424   7.417 -2.2379  1.8736 -1.0650
  116OSM   C15F12192   6.706   1.515   7.593  0.3503 -0.5765 -1.0682
  116OSM   H15F12193   6.615   1.574   7.618  1.4305  2.0035 -2.7075
  116OSM   H15G12194   6.792   1.582   7.615  1.2141 -1.6624 -1.0503
  116OSM   C16F12195   6.718   1.393   7.682  0.2238  0.1111  0.7128
  116OSM   H16F12196   6.821   1.355   7.663 -0.1580 -0.7999  0.4682
  116OSM   H16G12197   6.645   1.320   7.642  2.6045 -1.9785 -0.0831
  116OSM   C17F12198   6.720   1.426   7.835  0.0126 -0.6428 -0.1244
  116OSM   H17F12199   6.806   1.492   7.856  0.5587 -1.3678 -0.0736
  116OSM   H17G12200   6.738   1.335   7.895 -0.2382 -0.2590  0.5482
  116OSM   C18F12201   6.587   1.495   7.889  0.3292  0.1296  0.1184
  116OSM   H18F12202   6.556   1.585   7.832 -3.8439  0.1655  2.0711
  116OSM   H18G12203   6.598   1.524   7.996 -0.0035  0.9194 -0.0551
  116OSM   H18H12204   6.498   1.430   7.876 -0.2203  0.7474  0.7090
  117OSM      N12205   4.200   2.811   6.142  0.4996 -0.5154 -0.1995
  117OSM    C1512206   4.095   2.835   6.044  0.2442 -0.9760  0.1597
  117OSM   H15A12207   4.072   2.740   5.996 -0.5597  0.0438 -1.5730
  117OSM   H15B12208   4.113   2.914   5.973  0.3960 -1.2418 -0.1034
  117OSM   H15C12209   4.010   2.866   6.101 -0.9260  0.7888 -2.3653
  117OSM    C1412210   4.327   2.785   6.074 -0.3457  0.1359 -0.0013
  117OSM   H14A12211   4.360   2.872   6.018 -2.8758  0.9567 -0.3233
  117OSM   H14B12212   4.309   2.705   6.005 -1.0643 -0.7155  1.1362
  117OSM   H14C12213   4.403   2.756   6.145  1.2848 -0.5112 -1.9165
  117OSM    C1312214   4.223   2.940   6.228  0.1318  0.0174 -0.1443
  117OSM   H13A12215   4.306   2.935   6.296 -1.5129  0.5818  1.9982
  117OSM   H13B12216   4.132   2.973   6.275 -0.3042 -1.1446 -0.1256
  117OSM   H13C12217   4.254   3.008   6.150 -1.6748 -1.6951 -2.4950
  117OSM    C1212218   4.163   2.697   6.233  0.1941 -0.8188 -0.5229
  117OSM   H12A12219   4.069   2.722   6.281  0.0133 -0.1924 -1.1869
  117OSM   H12B12220   4.242   2.686   6.306 -1.0864 -1.1702  0.8475
  117OSM    C1112221   4.145   2.562   6.165 -0.4008 -0.8213 -0.1811
  117OSM   H11A12222   4.149   2.487   6.247  0.2785  0.2228  0.7687
  117OSM   H11B12223   4.236   2.544   6.103 -0.7246  1.4824 -1.4205
  117OSM      P12224   3.894   2.522   6.137  0.5787  0.1805 -0.0113
  117OSM    O1312225   3.791   2.548   6.029  0.0163 -0.6357  0.0438
  117OSM    O1412226   3.896   2.379   6.183 -0.5179  0.0025 -0.0133
  117OSM    O1112227   3.876   2.621   6.261 -0.3769 -0.0152  0.6026
  117OSM    O1212228   4.035   2.551   6.079 -0.1046 -0.0006  0.3550
  117OSM    C1S12229   3.890   2.574   6.394 -0.1880 -0.3243 -0.0848
  117OSM    H1S12230   3.992   2.528   6.400 -0.7825 -1.8126 -0.8579
  117OSM    H1T12231   3.815   2.500   6.428 -0.4469  0.4135  0.9951
  117OSM     NF12232   3.938   2.664   6.628 -0.0716  0.7068 -0.0910
  117OSM    HNF12233   3.875   2.653   6.704 -1.3309  1.1160 -1.0215
  117OSM    C2S12234   3.881   2.693   6.496 -0.0576  0.6088  0.7648
  117OSM    H2S12235   3.946   2.769   6.447  0.7216  0.5721  1.7184
  117OSM    C3S12236   3.736   2.744   6.498  0.7014 -0.4758  0.4351
  117OSM    H3S12237   3.661   2.672   6.539 -0.9326  0.2632 -1.0986
  117OSM     O312238   3.681   2.776   6.369  0.1345  0.2546  0.2242
  117OSM    HO312239   3.735   2.727   6.307  0.9071 -2.7954  3.0462
  117OSM    C4S12240   3.723   2.871   6.574 -0.4969  0.1875  0.5048
  117OSM    H4S12241   3.764   2.963   6.528  0.5888 -1.3576 -1.7751
  117OSM    C5S12242   3.664   2.887   6.692 -0.3390  0.5837 -0.3210
  117OSM    H5S12243   3.640   2.793   6.744 -2.3640 -0.2587 -2.5648
  117OSM    C6S12244   3.672   3.025   6.750  1.0648 -0.3545 -0.6853
  117OSM    H6S12245   3.678   3.096   6.665 -2.2846 -0.1906 -0.9164
  117OSM    H6T12246   3.758   3.035   6.820  2.2573 -0.3060 -2.0980
  117OSM    C7S12247   3.547   3.073   6.832 -0.2366 -0.1407 -0.0577
  117OSM    H7S12248   3.455   3.066   6.769 -3.2541  2.0692  3.7060
  117OSM    H7T12249   3.559   3.174   6.875 -1.1013 -0.0952  0.0914
  117OSM    C8S12250   3.518   2.972   6.948 -0.2081  0.7142  0.2166
  117OSM    H8S12251   3.614   2.931   6.985 -0.6224 -0.4989 -0.0043
  117OSM    H8T12252   3.455   2.887   6.914 -1.6136  1.6450  0.3686
  117OSM    C9S12253   3.417   3.038   7.054 -0.2575 -0.1040  0.3807
  117OSM    H9S12254   3.327   3.084   7.008 -1.6093 -0.7289  2.2901
  117OSM    H9T12255   3.479   3.110   7.112  1.7526 -1.6937  0.3404
  117OSM   C10S12256   3.354   2.947   7.159 -0.0411 -0.3775  0.3922
  117OSM   H10S12257   3.428   2.883   7.212  1.7167 -0.5247 -2.0784
  117OSM   H10T12258   3.291   2.877   7.099  0.0662 -0.2360  0.1171
  117OSM   C11S12259   3.267   3.022   7.253 -0.0980 -0.6598 -0.2137
  117OSM   H11S12260   3.189   2.950   7.288  0.4653 -1.7598 -1.1333
  117OSM   H11T12261   3.207   3.095   7.194 -0.9431 -0.7614  0.4991
  117OSM   C12S12262   3.338   3.087   7.370  0.3595 -0.5804  0.0036
  117OSM   H12S12263   3.272   3.158   7.423  1.5156  1.1851 -0.8119
  117OSM   H12T12264   3.415   3.156   7.330 -1.5280  1.1768 -0.7614
  117OSM   C13S12265   3.396   2.986   7.464  0.0755 -0.3947  0.3283
  117OSM   H13S12266   3.476   2.932   7.408 -0.5702 -0.2311 -0.7862
  117OSM   H13T12267   3.318   2.915   7.499 -0.5777  0.2842  0.2694
  117OSM   C14S12268   3.466   3.045   7.594  0.1085 -0.2110 -0.3464
  117OSM   H14S12269   3.546   3.117   7.563  1.2075 -0.8832  0.8047
  117OSM   H14T12270   3.523   2.963   7.643  2.3629  0.9996 -0.7795
  117OSM   C15S12271   3.379   3.111   7.696  1.1241 -0.1963  0.6190
  117OSM   H15S12272   3.294   3.040   7.706  0.3810  0.2301 -2.0571
  117OSM   H15T12273   3.338   3.208   7.664  0.1638 -0.6215  0.5262
  117OSM   C16S12274   3.436   3.124   7.837  0.0410  0.7857  0.1232
  117OSM   H16S12275   3.398   3.212   7.893 -0.8217  3.0538 -3.6905
  117OSM   H16T12276   3.543   3.153   7.831  0.3154 -0.1419  0.4543
  117OSM   C17S12277   3.433   2.998   7.921  0.5265  0.9291  0.3948
  117OSM   H17S12278   3.474   2.909   7.867  1.2464  1.1536  0.5594
  117OSM   H17T12279   3.327   2.968   7.939  1.2731 -1.8677  0.5958
  117OSM   C18S12280   3.486   3.020   8.063 -0.4312  0.8689  0.3585
  117OSM   H18S12281   3.479   2.928   8.124  1.1851  0.4933  0.0243
  117OSM   H18T12282   3.442   3.109   8.114 -2.0057  1.8458 -2.4875
  117OSM   H18U12283   3.597   3.022   8.053 -0.4310  0.0540  0.1638
  117OSM    C1F12284   4.068   2.643   6.655 -0.2531  0.8437 -0.4212
  117OSM     OF12285   4.155   2.659   6.566  0.1615  0.0271  0.3788
  117OSM    C2F12286   4.113   2.608   6.796  0.1546  0.8134 -0.4029
  117OSM    H2F12287   4.086   2.502   6.816  0.0271  0.7517 -0.8901
  117OSM    H2G12288   4.050   2.658   6.873  1.5717  2.5373 -0.2930
  117OSM    C3F12289   4.263   2.637   6.817 -0.1190  0.7339 -0.2606
  117OSM    H3F12290   4.298   2.738   6.789 -0.0487  0.4342 -1.3118
  117OSM    H3G12291   4.314   2.573   6.742 -0.1968  0.8014 -0.3716
  117OSM    C4F12292   4.304   2.591   6.957 -0.2962  0.0137 -0.0997
  117OSM    H4F12293   4.285   2.482   6.967  1.2115 -0.4335 -1.7050
  117OSM    H4G12294   4.249   2.655   7.030  0.5197 -0.2727  0.7927
  117OSM    C5F12295   4.456   2.615   6.977  0.0581 -1.1548  0.3628
  117OSM    H5F12296   4.455   2.726   6.974 -2.0955 -1.1516 -1.4384
  117OSM    H5G12297   4.531   2.578   6.903 -0.1921 -1.0237  0.0419
  117OSM    C6F12298   4.510   2.570   7.109 -0.5073 -0.3498 -0.3111
  117OSM    H6F12299   4.451   2.621   7.188 -1.6640 -1.2668 -0.5724
  117OSM    H6G12300   4.613   2.612   7.121 -1.3692  1.5932  0.7376
  117OSM    C7F12301   4.507   2.422   7.151  0.5488  0.5884  0.2802
  117OSM    H7F12302   4.547   2.357   7.070  2.1525  2.0358 -0.1465
  117OSM    H7G12303   4.401   2.392   7.162  0.6688 -0.0182 -0.2026
  117OSM    C8F12304   4.584   2.396   7.275 -0.2411  0.1007 -0.1781
  117OSM    H8F12305   4.689   2.417   7.245  0.1777  0.0156  1.1617
  117OSM    H8G12306   4.577   2.287   7.297  2.0058 -0.1495 -0.4331
  117OSM    C9F12307   4.538   2.491   7.387  0.0490  1.1546  0.0095
  117OSM    H9F12308   4.429   2.498   7.386 -0.1869 -1.4163 -0.5551
  117OSM   C10F12309   4.611   2.561   7.476  0.6203  0.7158  0.2605
  117OSM   H10F12310   4.556   2.642   7.527 -0.8186  1.3080 -2.0791
  117OSM   C11F12311   4.756   2.568   7.496 -0.0208 -0.2611  0.6195
  117OSM   H11F12312   4.769   2.653   7.566 -2.3494  0.2965  0.4606
  117OSM   H11G12313   4.790   2.603   7.396 -2.1096  1.4382  0.4222
  117OSM   C12F12314   4.835   2.441   7.534 -0.0148 -1.2688  0.1348
  117OSM   H12F12315   4.945   2.450   7.520 -0.2467  0.2513 -1.0297
  117OSM   H12G12316   4.811   2.364   7.457  2.6700 -0.1893 -1.9662
  117OSM   C13F12317   4.801   2.392   7.676 -0.1173  0.1156 -0.3621
  117OSM   H13F12318   4.841   2.290   7.697 -2.6602 -0.5762  1.6347
  117OSM   H13G12319   4.692   2.371   7.685  0.3846 -2.0671  2.2229
  117OSM   C14F12320   4.841   2.488   7.791 -0.3258 -0.0121 -0.7803
  117OSM   H14F12321   4.799   2.591   7.798 -1.2884 -0.4723  0.7629
  117OSM   H14G12322   4.947   2.511   7.768 -0.4096  1.8780  0.4931
  117OSM   C15F12323   4.833   2.436   7.939 -0.1160 -0.4668 -0.1460
  117OSM   H15F12324   4.903   2.351   7.951 -0.0305 -0.5408 -1.1309
  117OSM   H15G12325   4.729   2.408   7.966  0.0824 -0.4708  0.6628
  117OSM   C16F12326   4.852   2.555   8.038  0.1443  0.1858 -0.1667
  117OSM   H16F12327   4.762   2.620   8.041 -0.9375 -1.2030 -1.0198
  117OSM   H16G12328   4.930   2.627   8.004 -0.4027  0.3791 -1.0779
  117OSM   C17F12329   4.865   2.517   8.184 -0.1424 -0.3164 -0.5537
  117OSM   H17F12330   4.830   2.607   8.240 -0.0863 -0.2151 -0.6802
  117OSM   H17G12331   4.786   2.445   8.215  0.4712 -0.5224  0.5467
  117OSM   C18F12332   5.003   2.490   8.248  0.5907  0.8891 -0.3576
  117OSM   H18F12333   4.980   2.435   8.342 -0.4286  0.4359 -0.8546
  117OSM   H18G12334   5.051   2.589   8.259  3.3395 -0.0319 -2.7852
  117OSM   H18H12335   5.055   2.424   8.175  0.4014 -2.4879  2.3284
  118OSM      N12336   0.062   4.947   6.024 -0.2201  0.3968  0.3546
  118OSM    C1512337  -0.022   4.995   5.911 -0.6736  0.2409 -0.5612
  118OSM   H15A12338   0.018   5.083   5.863  1.2705 -0.0989  0.3594
  118OSM   H15B12339  -0.111   5.023   5.965 -0.8642  1.8205 -1.6193
  118OSM   H15C12340  -0.045   4.927   5.829 -2.1521  0.3477 -0.2770
  118OSM    C1412341   0.211   4.959   5.982  0.0297 -0.3106 -0.3657
  118OSM   H14A12342   0.255   5.057   5.982 -0.1745 -0.1265 -3.2776
  118OSM   H14B12343   0.219   4.932   5.877 -0.1842  1.2827 -0.8201
  118OSM   H14C12344   0.264   4.899   6.054  0.1340  2.5279  2.1149
  118OSM    C1312345   0.034   5.030   6.142 -0.0416  0.0716 -0.4944
  118OSM   H13A12346   0.112   5.036   6.216 -1.0872  2.0405  0.5127
  118OSM   H13B12347  -0.055   4.993   6.190 -0.9855  1.9326 -0.7200
  118OSM   H13C12348   0.005   5.130   6.115 -0.8729  0.3839  1.4030
  118OSM    C1212349   0.026   4.800   6.053 -0.7300  0.1200  0.7444
  118OSM   H12A12350   0.058   4.743   5.966 -1.2803 -1.3204  1.4530
  118OSM   H12B12351  -0.081   4.796   6.067 -0.5286  0.8229  2.8414
  118OSM    C1112352   0.095   4.729   6.172 -0.2971  0.0203 -0.0506
  118OSM   H11A12353   0.057   4.625   6.175 -1.1164  0.3174  1.3051
  118OSM   H11B12354   0.058   4.762   6.272  0.2705 -0.3172  0.2709
  118OSM      P12355   0.330   4.728   6.292 -0.4209 -0.2262  0.0274
  118OSM    O1312356   0.443   4.630   6.270 -0.5091 -0.1801  0.1650
  118OSM    O1412357   0.354   4.873   6.319 -0.2982  0.5441  0.3154
  118OSM    O1112358   0.233   4.662   6.393 -0.0131 -0.0839 -0.2661
  118OSM    O1212359   0.238   4.714   6.158 -0.0652  0.4437 -0.0399
  118OSM    C1S12360   0.293   4.605   6.516 -0.1564  0.2882 -0.0686
  118OSM    H1S12361   0.399   4.640   6.525 -0.7372  2.2449 -0.4434
  118OSM    H1T12362   0.293   4.494   6.509  1.4316  0.3163 -1.1095
  118OSM     NF12363   0.308   4.603   6.748 -0.0837  0.2911 -0.5285
  118OSM    HNF12364   0.286   4.512   6.781  0.3802  0.0198 -0.9570
  118OSM    C2S12365   0.223   4.653   6.642  0.2750  0.4663 -0.1321
  118OSM    H2S12366   0.221   4.764   6.639  0.7492  0.4838  0.0653
  118OSM    C3S12367   0.081   4.600   6.637  0.1480 -0.3956  0.6936
  118OSM    H3S12368   0.088   4.490   6.620 -1.0325 -0.1652 -1.5621
  118OSM     O312369   0.009   4.639   6.520 -0.2872 -0.2653 -0.3218
  118OSM    HO312370   0.074   4.673   6.459 -1.4101 -0.1250 -1.5054
  118OSM    C4S12371   0.011   4.630   6.767 -0.1525 -0.0201  0.7428
  118OSM    H4S12372   0.012   4.542   6.833 -0.7060  0.2309  1.0898
  118OSM    C5S12373  -0.053   4.736   6.807  0.1349  0.3119 -0.3425
  118OSM    H5S12374  -0.064   4.808   6.725  0.0322 -0.7669 -1.3073
  118OSM    C6S12375  -0.124   4.762   6.940 -0.0825  0.0216  0.1638
  118OSM    H6S12376  -0.227   4.719   6.940  1.0054 -2.8914  1.8058
  118OSM    H6T12377  -0.130   4.873   6.938  1.7827  0.1315 -0.7869
  118OSM    C7S12378  -0.069   4.716   7.072 -0.1560 -0.2311  0.2765
  118OSM    H7S12379   0.039   4.740   7.076 -0.5937  1.7984  1.1095
  118OSM    H7T12380  -0.074   4.605   7.066  1.1012 -0.4063  1.8850
  118OSM    C8S12381  -0.142   4.759   7.193  0.0065 -0.1528 -0.6898
  118OSM    H8S12382  -0.245   4.721   7.208  0.8938 -1.4488  2.9835
  118OSM    H8T12383  -0.157   4.869   7.197  1.2015  0.0130 -0.2650
  118OSM    C9S12384  -0.050   4.734   7.319 -0.3242  0.1527  0.5858
  118OSM    H9S12385   0.044   4.792   7.316  0.8291 -1.5024  2.5544
  118OSM    H9T12386  -0.015   4.629   7.312  1.9796  0.8828  0.4941
  118OSM   C10S12387  -0.145   4.747   7.439  0.4683  0.4317 -0.1636
  118OSM   H10S12388  -0.226   4.673   7.453  2.4919 -1.8400  0.0482
  118OSM   H10T12389  -0.191   4.846   7.421  1.8476  0.9286 -1.1303
  118OSM   C11S12390  -0.074   4.751   7.570  0.5644 -0.3507 -0.2493
  118OSM   H11S12391  -0.018   4.847   7.570 -1.2971  0.7976  1.2936
  118OSM   H11T12392  -0.010   4.662   7.587 -0.1658 -0.7759  0.3761
  118OSM   C12S12393  -0.179   4.760   7.687  0.7850 -0.4376  0.2123
  118OSM   H12S12394  -0.250   4.676   7.672 -0.2661  0.4216  0.2373
  118OSM   H12T12395  -0.238   4.854   7.672 -0.5141 -1.2974 -0.2618
  118OSM   C13S12396  -0.118   4.755   7.827 -0.0721 -0.1800 -0.2568
  118OSM   H13S12397  -0.051   4.842   7.840 -1.8015  0.9336  1.8583
  118OSM   H13T12398  -0.040   4.676   7.841  0.3635  0.4969  1.3458
  118OSM   C14S12399  -0.222   4.752   7.942  0.2270  0.1621  0.3194
  118OSM   H14S12400  -0.279   4.657   7.932 -0.6457  0.7290 -0.1920
  118OSM   H14T12401  -0.281   4.845   7.928 -0.7205 -0.4982 -0.1462
  118OSM   C15S12402  -0.177   4.743   8.089 -0.1790  0.1169 -0.1147
  118OSM   H15S12403  -0.098   4.818   8.110 -0.9867  0.2898  2.7420
  118OSM   H15T12404  -0.118   4.652   8.114  0.3022  0.4441 -0.0315
  118OSM   C16S12405  -0.292   4.746   8.187 -0.3059  0.6366 -0.7861
  118OSM   H16S12406  -0.259   4.735   8.293 -2.5110  0.9952 -0.0051
  118OSM   H16T12407  -0.364   4.663   8.170  0.4043 -0.4131  1.0627
  118OSM   C17S12408  -0.380   4.881   8.184 -0.3844 -0.1415  0.0551
  118OSM   H17S12409  -0.319   4.973   8.200 -1.7915  0.6433  1.1699
  118OSM   H17T12410  -0.430   4.862   8.281 -0.9499  1.2480  0.0594
  118OSM   C18S12411  -0.488   4.889   8.076 -0.2042 -0.2140 -0.2886
  118OSM   H18S12412  -0.572   4.936   8.132  0.4114  0.0206  0.4537
  118OSM   H18T12413  -0.521   4.793   8.031 -0.2345  0.2996 -1.4043
  118OSM   H18U12414  -0.459   4.957   7.992  1.5547 -1.2579 -0.5705
  118OSM    C1F12415   0.414   4.666   6.789  0.6908  0.1553  0.6898
  118OSM     OF12416   0.465   4.750   6.723 -0.5983 -0.0706  0.8871
  118OSM    C2F12417   0.463   4.638   6.936 -0.1130 -0.6511  0.2463
  118OSM    H2F12418   0.560   4.584   6.929  0.3715  0.1911  0.3653
  118OSM    H2G12419   0.382   4.582   6.987 -3.0626  2.5300 -0.5707
  118OSM    C3F12420   0.476   4.773   7.012 -0.3433 -0.0122  0.1528
  118OSM    H3F12421   0.385   4.836   7.008 -0.1297  0.2528 -0.9400
  118OSM    H3G12422   0.557   4.839   6.973  1.4240  0.1932  3.7969
  118OSM    C4F12423   0.511   4.752   7.154  0.0610 -0.2109  0.2405
  118OSM    H4F12424   0.512   4.853   7.199  1.4211  0.7472 -1.7855
  118OSM    H4G12425   0.607   4.699   7.171 -2.4052 -5.0665  1.0224
  118OSM    C5F12426   0.402   4.682   7.235  0.1496 -0.2937 -0.2410
  118OSM    H5F12427   0.412   4.572   7.223 -2.5373 -0.7474  1.0126
  118OSM    H5G12428   0.303   4.714   7.199 -0.3978  0.5879  1.8937
  118OSM    C6F12429   0.395   4.708   7.386 -0.2321 -0.2697  0.7640
  118OSM    H6F12430   0.353   4.809   7.404 -0.2464  0.0964 -1.1716
  118OSM    H6G12431   0.500   4.697   7.418 -0.8171 -0.1537  2.8645
  118OSM    C7F12432   0.299   4.616   7.465  0.5787  0.6187  0.6767
  118OSM    H7F12433   0.344   4.515   7.456 -0.6098 -0.0545  2.0344
  118OSM    H7G12434   0.203   4.609   7.411  1.0278  1.8632 -0.3449
  118OSM    C8F12435   0.271   4.640   7.617  0.1632  0.5937  0.2356
  118OSM    H8F12436   0.191   4.564   7.626 -0.6068  1.3931  0.3098
  118OSM    H8G12437   0.233   4.744   7.630  0.6464  0.6408  1.3638
  118OSM    C9F12438   0.386   4.600   7.711 -0.0783 -0.6076 -0.2649
  118OSM    H9F12439   0.487   4.582   7.670  0.8489 -0.9736  2.0323
  118OSM   C10F12440   0.363   4.565   7.838  0.0749  0.1199  0.2125
  118OSM   H10F12441   0.432   4.567   7.923 -1.8763  0.8390  1.8802
  118OSM   C11F12442   0.233   4.565   7.916 -0.0320 -0.2617  1.2848
  118OSM   H11F12443   0.220   4.476   7.981 -2.7752  1.3436  3.1484
  118OSM   H11G12444   0.151   4.562   7.841  0.1107  0.0646  1.1163
  118OSM   C12F12445   0.210   4.689   8.009  0.0356 -0.2723 -0.8873
  118OSM   H12F12446   0.103   4.699   8.037  1.0903  1.9782  3.2193
  118OSM   H12G12447   0.221   4.785   7.954  1.0128 -0.7120 -1.4871
  118OSM   C13F12448   0.297   4.685   8.137 -0.0102  0.5449  0.0331
  118OSM   H13F12449   0.283   4.774   8.202 -0.7370  0.3925  0.0938
  118OSM   H13G12450   0.400   4.684   8.096  0.8508  0.9385  2.0767
  118OSM   C14F12451   0.278   4.557   8.225 -0.0085  0.1242  0.2263
  118OSM   H14F12452   0.311   4.468   8.167  0.8926  1.3726 -1.2342
  118OSM   H14G12453   0.168   4.561   8.241 -0.3018  1.7592 -1.7282
  118OSM   C15F12454   0.355   4.569   8.357  0.1786 -0.1668 -0.3490
  118OSM   H15F12455   0.349   4.475   8.415  1.9085  0.0678  0.2930
  118OSM   H15G12456   0.309   4.651   8.418 -0.6295  0.7607 -2.1186
  118OSM   C16F12457   0.500   4.597   8.346 -0.3622  0.8036  0.0852
  118OSM   H16F12458   0.536   4.556   8.249 -2.0855  1.8866 -1.0628
  118OSM   H16G12459   0.550   4.540   8.427 -0.9709  0.5638  0.2931
  118OSM   C17F12460   0.539   4.746   8.347 -0.6623 -0.2802  0.0604
  118OSM   H17F12461   0.480   4.803   8.273  1.6619 -0.4096 -2.0040
  118OSM   H17G12462   0.648   4.762   8.331 -0.1232 -0.4443  2.9281
  118OSM   C18F12463   0.530   4.812   8.480  0.3382 -0.6165 -1.0517
  118OSM   H18F12464   0.604   4.760   8.544  1.6381 -1.1605 -2.9406
  118OSM   H18G12465   0.428   4.807   8.525 -0.8869  1.9086 -3.2936
  118OSM   H18H12466   0.553   4.920   8.469 -1.2295 -0.1417 -0.0116
  119OSM      N12467   0.020   2.960   5.705  0.4646  0.0576 -0.5938
  119OSM    C1512468  -0.071   2.842   5.733 -0.3345 -0.0372  0.4056
  119OSM   H15A12469  -0.014   2.759   5.772  0.3482 -1.3831 -3.1056
  119OSM   H15B12470  -0.116   2.813   5.639  1.0827  0.2962 -0.4125
  119OSM   H15C12471  -0.151   2.878   5.796 -1.2200  0.1530 -0.7859
  119OSM    C1412472   0.078   3.010   5.827  0.3243  0.8785 -0.4379
  119OSM   H14A12473   0.138   2.940   5.884 -0.3875  2.4122  2.3873
  119OSM   H14B12474   0.004   3.057   5.890  0.7188 -0.6549  1.2681
  119OSM   H14C12475   0.144   3.092   5.803  0.2068  1.0766 -0.0958
  119OSM    C1312476   0.127   2.911   5.611 -0.0544  0.1105  0.3906
  119OSM   H13A12477   0.093   2.868   5.518  0.6643  2.3852 -0.9982
  119OSM   H13B12478   0.193   2.840   5.657  2.2485  0.8917 -1.5367
  119OSM   H13C12479   0.193   2.996   5.597 -1.7358  1.7030  1.5541
  119OSM    C1212480  -0.062   3.068   5.637  0.0028  0.5939  0.9329
  119OSM   H12A12481  -0.057   3.044   5.532  1.3695  1.5851  0.7416
  119OSM   H12B12482  -0.009   3.160   5.657  1.2209 -0.3301  2.1224
  119OSM    C1112483  -0.205   3.080   5.694  0.5129  0.6762 -0.1649
  119OSM   H11A12484  -0.257   2.983   5.682  2.5331 -0.8347  2.2549
  119OSM   H11B12485  -0.254   3.158   5.633 -0.5493 -0.7294 -1.1667
  119OSM      P12486  -0.349   3.136   5.909 -0.3134 -0.0510  0.4277
  119OSM    O1312487  -0.360   3.275   5.965  0.7486  0.7329  0.0100
  119OSM    O1412488  -0.469   3.080   5.831  0.1449  0.3097  0.1149
  119OSM    O1112489  -0.322   3.035   6.032  0.4750 -0.4441 -0.0215
  119OSM    O1212490  -0.210   3.126   5.834 -0.6290  0.2622  0.5569
  119OSM    C1S12491  -0.206   3.045   6.118  0.8040  0.6099  0.4139
  119OSM    H1S12492  -0.117   3.076   6.059  0.0929  0.3092 -0.8548
  119OSM    H1T12493  -0.177   2.942   6.147  1.4430  0.7121  0.1691
  119OSM     NF12494  -0.112   3.171   6.297  0.4413 -0.4428 -0.3300
  119OSM    HNF12495  -0.096   3.137   6.389 -0.0505  0.0361 -0.0632
  119OSM    C2S12496  -0.238   3.129   6.245 -0.1728  0.2685  0.2920
  119OSM    H2S12497  -0.280   3.228   6.217  0.6202  1.0564  1.7571
  119OSM    C3S12498  -0.323   3.060   6.349 -0.0479  0.7642 -0.0681
  119OSM    H3S12499  -0.270   2.970   6.387 -1.4685 -0.7133 -1.4032
  119OSM     O312500  -0.446   3.003   6.297  0.1642  0.3156  0.0912
  119OSM    HO312501  -0.429   3.026   6.206  0.1662  0.8581  0.2229
  119OSM    C4S12502  -0.355   3.160   6.461 -0.2330 -0.4117  0.6126
  119OSM    H4S12503  -0.396   3.254   6.421  0.2404 -0.3981  0.1441
  119OSM    C5S12504  -0.341   3.153   6.592  0.3281  0.1276  0.3199
  119OSM    H5S12505  -0.296   3.061   6.633 -0.8047 -1.0800 -1.0461
  119OSM    C6S12506  -0.385   3.258   6.691  0.7876  0.4152  0.1610
  119OSM    H6S12507  -0.422   3.347   6.637  0.3803  0.8030  1.0584
  119OSM    H6T12508  -0.299   3.295   6.752  1.1695 -1.2919  0.7361
  119OSM    C7S12509  -0.506   3.208   6.771 -0.1251 -0.4988 -0.4196
  119OSM    H7S12510  -0.589   3.153   6.723  0.9054 -0.9718 -1.7115
  119OSM    H7T12511  -0.558   3.299   6.807  0.7969  0.1115 -0.5795
  119OSM    C8S12512  -0.460   3.130   6.902 -0.1003 -0.5416 -0.0717
  119OSM    H8S12513  -0.378   3.179   6.958 -0.2651 -0.8253  0.4234
  119OSM    H8T12514  -0.421   3.036   6.858  0.2698 -0.5337  0.2370
  119OSM    C9S12515  -0.570   3.106   7.000  0.7421  0.0675 -0.1231
  119OSM    H9S12516  -0.648   3.044   6.949 -0.2454  0.1143  1.2736
  119OSM    H9T12517  -0.605   3.206   7.033  1.4001  1.1582 -2.4927
  119OSM   C10S12518  -0.532   3.026   7.122 -0.2351  0.0665  0.2574
  119OSM   H10S12519  -0.438   3.070   7.163 -0.5236 -0.4306  1.4958
  119OSM   H10T12520  -0.511   2.918   7.102 -0.5531 -0.2054  1.2950
  119OSM   C11S12521  -0.648   3.028   7.228  0.8711 -0.2137 -0.2948
  119OSM   H11S12522  -0.748   3.015   7.181  0.5130  0.9704  0.1069
  119OSM   H11T12523  -0.660   3.131   7.267  0.2092 -0.6584  0.7294
  119OSM   C12S12524  -0.622   2.946   7.357 -0.0698 -0.0707  0.8121
  119OSM   H12S12525  -0.675   3.013   7.428 -1.5556  0.1321 -0.4268
  119OSM   H12T12526  -0.514   2.952   7.378  0.1508  0.8896 -0.4415
  119OSM   C13S12527  -0.692   2.809   7.370 -0.3548 -0.2400  0.4119
  119OSM   H13S12528  -0.629   2.745   7.306 -0.1248  0.3071  0.0793
  119OSM   H13T12529  -0.792   2.811   7.321 -0.1165 -1.7796 -0.1876
  119OSM   C14S12530  -0.723   2.763   7.511  0.1600 -0.1216  0.1364
  119OSM   H14S12531  -0.771   2.663   7.505 -0.2233  0.1093 -0.8539
  119OSM   H14T12532  -0.798   2.825   7.564 -1.3357 -1.5184 -0.2859
  119OSM   C15S12533  -0.604   2.748   7.599 -0.0568  0.3468 -0.2276
  119OSM   H15S12534  -0.578   2.851   7.632  0.7149  0.4140 -1.0049
  119OSM   H15T12535  -0.519   2.698   7.549  2.3110  4.3553 -0.6405
  119OSM   C16S12536  -0.655   2.673   7.718 -0.1281 -0.1354 -0.1864
  119OSM   H16S12537  -0.710   2.581   7.690 -3.3007  1.6744 -0.4770
  119OSM   H16T12538  -0.727   2.742   7.769  1.4561  0.9011  0.7445
  119OSM   C17S12539  -0.549   2.651   7.829 -0.4328 -0.3498 -0.4347
  119OSM   H17S12540  -0.465   2.724   7.829  2.2545 -3.2472 -0.0468
  119OSM   H17T12541  -0.492   2.559   7.806  1.9666  1.6090 -3.0234
  119OSM   C18S12542  -0.609   2.635   7.970  0.8630  0.2801  0.0611
  119OSM   H18S12543  -0.525   2.615   8.040 -0.6243 -0.1989  1.7995
  119OSM   H18T12544  -0.680   2.551   7.982  0.8997  0.3079  0.4916
  119OSM   H18U12545  -0.655   2.729   8.009  0.8279 -0.3896  1.7305
  119OSM    C1F12546  -0.023   3.256   6.244 -0.3121  0.8207  0.2735
  119OSM     OF12547  -0.034   3.302   6.130  0.1520  0.1775  0.5392
  119OSM    C2F12548   0.103   3.275   6.325 -0.3446 -0.0554  0.2537
  119OSM    H2F12549   0.181   3.205   6.288  0.4120  1.5960 -1.4633
  119OSM    H2G12550   0.081   3.249   6.431  0.3954 -2.0544 -0.0479
  119OSM    C3F12551   0.153   3.423   6.332  0.5982  0.2417  0.2518
  119OSM    H3F12552   0.068   3.491   6.351  1.5826  1.4033  0.6327
  119OSM    H3G12553   0.197   3.450   6.233 -1.0754 -1.1302 -0.9153
  119OSM    C4F12554   0.263   3.437   6.443  0.8735 -0.6690 -0.2032
  119OSM    H4F12555   0.342   3.358   6.440  1.5823 -0.0375  1.2331
  119OSM    H4G12556   0.208   3.435   6.539  0.1033 -1.2967 -0.6347
  119OSM    C5F12557   0.319   3.580   6.443 -0.1531 -0.2981 -0.8174
  119OSM    H5F12558   0.241   3.650   6.409  0.4048  0.4086 -0.6721
  119OSM    H5G12559   0.398   3.585   6.365  1.4841  1.1361  0.8344
  119OSM    C6F12560   0.378   3.633   6.577  0.1033  0.1624 -0.1291
  119OSM    H6F12561   0.314   3.597   6.660  2.5991 -1.7284  1.0981
  119OSM    H6G12562   0.375   3.744   6.567 -1.1085  0.0500 -1.3488
  119OSM    C7F12563   0.505   3.566   6.621 -1.3839 -0.0363 -0.9887
  119OSM    H7F12564   0.582   3.584   6.543 -0.5547 -4.9857 -1.6069
  119OSM    H7G12565   0.493   3.456   6.630  0.2161 -0.1711 -0.1641
  119OSM    C8F12566   0.551   3.622   6.759 -0.1720  0.3269 -0.0547
  119OSM    H8F12567   0.650   3.579   6.786 -0.9060 -1.1476  0.4040
  119OSM    H8G12568   0.479   3.604   6.841  1.0969  2.4215  1.6319
  119OSM    C9F12569   0.572   3.770   6.773 -0.4424 -0.7396  0.1561
  119OSM    H9F12570   0.560   3.829   6.681 -0.5009  0.6548  1.0486
  119OSM   C10F12571   0.617   3.833   6.886 -0.3897  0.2795 -0.2824
  119OSM   H10F12572   0.614   3.943   6.880  0.7120  0.2598 -2.4328
  119OSM   C11F12573   0.657   3.777   7.018  0.1472 -0.6804  0.1744
  119OSM   H11F12574   0.765   3.789   7.039  0.6654 -0.0511 -2.4062
  119OSM   H11G12575   0.649   3.666   7.022 -1.4818 -0.5604  1.1545
  119OSM   C12F12576   0.562   3.827   7.129 -0.1614 -0.1606  0.1620
  119OSM   H12F12577   0.456   3.805   7.103 -0.4539  0.0063  1.1738
  119OSM   H12G12578   0.561   3.938   7.133  3.2749 -0.0089 -0.3226
  119OSM   C13F12579   0.594   3.771   7.265 -0.5657 -0.4367 -0.1017
  119OSM   H13F12580   0.691   3.807   7.306 -2.5145  1.7207  3.0494
  119OSM   H13G12581   0.610   3.661   7.255  1.2958 -0.2237  0.2524
  119OSM   C14F12582   0.483   3.790   7.371 -0.1849 -0.6255 -0.0748
  119OSM   H14F12583   0.394   3.726   7.355 -0.1498 -0.9314  0.9012
  119OSM   H14G12584   0.451   3.897   7.366  1.5186 -0.0654  0.3892
  119OSM   C15F12585   0.533   3.785   7.518  0.1389  0.4340  0.3487
  119OSM   H15F12586   0.593   3.876   7.537  0.3671  0.3880 -0.1411
  119OSM   H15G12587   0.601   3.698   7.523 -2.9866 -2.1633  2.5834
  119OSM   C16F12588   0.424   3.751   7.624  0.0378 -0.0937  1.0049
  119OSM   H16F12589   0.406   3.642   7.620 -1.0215  0.0596  1.3971
  119OSM   H16G12590   0.332   3.808   7.601 -1.3033 -2.3833  0.3908
  119OSM   C17F12591   0.468   3.806   7.763 -0.2473  0.6580 -0.1616
  119OSM   H17F12592   0.380   3.802   7.830  1.2409  0.0932  1.8759
  119OSM   H17G12593   0.502   3.912   7.761  1.4642  0.2816  2.9505
  119OSM   C18F12594   0.587   3.719   7.818  0.0696  0.5435 -0.1368
  119OSM   H18F12595   0.676   3.699   7.754  1.3047  0.4528  1.5430
  119OSM   H18G12596   0.556   3.620   7.856  0.2006  0.9518  1.1028
  119OSM   H18H12597   0.615   3.760   7.918 -1.9668  1.2602  0.1846
  120OSM      N12598   4.537   1.478   5.887  0.5189  0.1838  0.1502
  120OSM    C1512599   4.599   1.339   5.903 -0.3985 -0.0959 -0.2371
  120OSM   H15A12600   4.692   1.343   5.958 -0.2515  0.5945 -0.5219
  120OSM   H15B12601   4.622   1.294   5.808 -2.1171 -1.0783 -0.2206
  120OSM   H15C12602   4.535   1.268   5.953  0.8129 -0.8168  0.3454
  120OSM    C1412603   4.643   1.561   5.813 -0.3693  0.6257  0.3687
  120OSM   H14A12604   4.604   1.660   5.794  1.5633  0.9286 -2.7614
  120OSM   H14B12605   4.669   1.520   5.717  0.5024  1.6814  0.1403
  120OSM   H14C12606   4.735   1.565   5.870 -1.9767 -1.1568  3.3605
  120OSM    C1312607   4.405   1.468   5.813  0.7161 -0.4774 -0.0872
  120OSM   H13A12608   4.361   1.566   5.828 -1.2101 -1.1131 -1.2619
  120OSM   H13B12609   4.345   1.390   5.856  1.0434  0.0367  1.3655
  120OSM   H13C12610   4.420   1.454   5.707 -0.5395  1.7128 -0.6299
  120OSM    C1212611   4.518   1.533   6.027  0.4900 -0.8823 -0.6138
  120OSM   H12A12612   4.461   1.459   6.081 -2.6982  3.3926  2.5398
  120OSM   H12B12613   4.443   1.610   6.018  1.5159  0.1726 -0.4495
  120OSM    C1112614   4.638   1.591   6.107  0.1718 -0.4231 -0.7383
  120OSM   H11A12615   4.603   1.651   6.194 -0.0723 -0.7996 -0.5725
  120OSM   H11B12616   4.703   1.655   6.045 -1.3018  1.9517  0.0323
  120OSM      P12617   4.688   1.396   6.284 -0.3071  0.1888 -0.2891
  120OSM    O1312618   4.558   1.326   6.271 -0.5999  0.5084 -0.2691
  120OSM    O1412619   4.801   1.318   6.346 -0.2269 -0.2395 -0.2063
  120OSM    O1112620   4.655   1.518   6.380  0.0157 -0.1725 -0.1548
  120OSM    O1212621   4.710   1.475   6.146 -0.2708 -0.4333  0.6367
  120OSM    C1S12622   4.657   1.495   6.522 -0.0824  0.0924 -0.0840
  120OSM    H1S12623   4.757   1.455   6.549  0.3570  1.2322  0.0491
  120OSM    H1T12624   4.573   1.430   6.557 -1.2210  1.9802  0.8741
  120OSM     NF12625   4.642   1.611   6.749  0.7658  0.1013  0.3004
  120OSM    HNF12626   4.564   1.630   6.809 -0.2005 -3.6108  0.4730
  120OSM    C2S12627   4.626   1.623   6.602  0.5481  0.4553 -0.0048
  120OSM    H2S12628   4.699   1.700   6.572  2.4824 -0.7159  1.4452
  120OSM    C3S12629   4.478   1.680   6.569 -0.3553  0.3542  1.0699
  120OSM    H3S12630   4.401   1.612   6.613 -2.7282  1.1849 -1.5162
  120OSM     O312631   4.436   1.662   6.434  0.1835 -0.0166 -0.4614
  120OSM    HO312632   4.483   1.581   6.413 -1.4123 -1.0271 -0.3003
  120OSM    C4S12633   4.470   1.823   6.608  0.1218  0.5893  0.1568
  120OSM    H4S12634   4.518   1.894   6.538  0.0575  1.2220  0.7439
  120OSM    C5S12635   4.392   1.860   6.714  0.1319  0.6030  0.5350
  120OSM    H5S12636   4.337   1.785   6.774 -0.7476 -0.5438 -1.5820
  120OSM    C6S12637   4.359   2.003   6.763  0.3974  0.0839  0.2183
  120OSM    H6S12638   4.250   2.020   6.751  0.5864 -0.5788 -3.2496
  120OSM    H6T12639   4.403   2.068   6.685  2.4264 -0.9279  0.4654
  120OSM    C7S12640   4.425   2.039   6.896  0.8247 -0.1103 -0.4989
  120OSM    H7S12641   4.409   2.147   6.917  1.5047  0.0467 -0.7684
  120OSM    H7T12642   4.535   2.033   6.882  1.2898 -0.3531  2.6707
  120OSM    C8S12643   4.378   1.962   7.025  0.1133 -0.7458 -0.2032
  120OSM    H8S12644   4.394   1.853   7.012 -1.1132 -0.9595 -0.0906
  120OSM    H8T12645   4.271   1.992   7.038  0.2457 -0.1145 -0.5006
  120OSM    C9S12646   4.471   2.002   7.146  0.0985  0.0512  0.3098
  120OSM    H9S12647   4.408   1.994   7.237 -0.0466  0.5199  0.2542
  120OSM    H9T12648   4.500   2.108   7.129  0.6114  0.0021  0.8356
  120OSM   C10S12649   4.597   1.917   7.154 -0.1142 -0.8045 -0.0464
  120OSM   H10S12650   4.664   1.926   7.066  1.4065  2.2128  1.2981
  120OSM   H10T12651   4.562   1.812   7.164  0.9212 -1.0876  0.7991
  120OSM   C11S12652   4.684   1.963   7.271  0.3763  0.0237 -0.3961
  120OSM   H11S12653   4.710   2.070   7.266 -0.0281  0.2287  1.4028
  120OSM   H11T12654   4.777   1.902   7.267 -0.4225 -1.2101 -3.1014
  120OSM   C12S12655   4.614   1.938   7.409 -0.2203  0.2392 -0.2266
  120OSM   H12S12656   4.567   1.838   7.400  1.2112 -0.3163 -2.1611
  120OSM   H12T12657   4.533   2.012   7.421  0.8198  1.2305  1.0165
  120OSM   C13S12658   4.711   1.937   7.534  0.4129  0.0085  0.3874
  120OSM   H13S12659   4.712   2.039   7.577  3.1038  0.7770 -1.2428
  120OSM   H13T12660   4.815   1.918   7.499  0.4784  1.0702 -0.0154
  120OSM   C14S12661   4.663   1.835   7.636  1.0919  0.2186 -0.1592
  120OSM   H14S12662   4.658   1.731   7.600 -1.6444  0.9067 -2.0344
  120OSM   H14T12663   4.560   1.861   7.669  1.3484  2.0378 -0.6357
  120OSM   C15S12664   4.759   1.853   7.760 -0.0624  0.6113 -0.0463
  120OSM   H15S12665   4.712   1.816   7.854  3.6522 -3.1295  0.6247
  120OSM   H15T12666   4.784   1.961   7.775 -0.6576  0.4917  2.1636
  120OSM   C16S12667   4.883   1.764   7.756  0.7386 -0.2329  0.4246
  120OSM   H16S12668   4.945   1.802   7.673  0.4930  1.7920  1.1082
  120OSM   H16T12669   4.845   1.663   7.731 -1.9619  0.9478 -0.6451
  120OSM   C17S12670   4.954   1.768   7.892 -0.0219  0.0539 -0.5513
  120OSM   H17S12671   5.020   1.679   7.902 -0.8489 -0.5778 -0.6274
  120OSM   H17T12672   4.873   1.741   7.962  0.5298  1.5489  0.7278
  120OSM   C18S12673   5.015   1.902   7.932  0.3377  0.2212  0.0452
  120OSM   H18S12674   5.082   1.940   7.852 -0.2515 -0.2941 -0.7031
  120OSM   H18T12675   5.067   1.901   8.030  0.8571  3.0775 -0.1117
  120OSM   H18U12676   4.930   1.972   7.948  0.1734  0.0525 -0.0892
  120OSM    C1F12677   4.752   1.572   6.812  0.5242 -0.0285  0.2795
  120OSM     OF12678   4.858   1.570   6.754  0.3283  0.6480  0.4272
  120OSM    C2F12679   4.750   1.550   6.958 -0.2481 -0.1055 -0.3697
  120OSM    H2F12680   4.784   1.446   6.972 -3.6201 -1.1590  1.0925
  120OSM    H2G12681   4.647   1.557   7.000 -0.5370  2.0609 -1.2736
  120OSM    C3F12682   4.850   1.640   7.026 -0.2825 -0.4101  0.0148
  120OSM    H3F12683   4.831   1.748   7.009 -4.1181 -0.3574  3.0616
  120OSM    H3G12684   4.953   1.616   6.995 -0.3141 -0.6855  0.1202
  120OSM    C4F12685   4.835   1.629   7.179 -0.3105  0.3364 -0.0651
  120OSM    H4F12686   4.741   1.679   7.211 -0.4069 -0.3847  0.8079
  120OSM    H4G12687   4.904   1.698   7.232  0.4995  0.8732 -1.7450
  120OSM    C5F12688   4.842   1.485   7.236  0.6724 -0.0703  1.0472
  120OSM    H5F12689   4.930   1.435   7.192  0.6892  1.3221 -0.6289
  120OSM    H5G12690   4.760   1.428   7.187  0.5725 -0.2943  1.4658
  120OSM    C6F12691   4.842   1.483   7.389 -0.2759  0.1892  0.2392
  120OSM    H6F12692   4.866   1.378   7.416 -1.2125 -0.3508 -0.9302
  120OSM    H6G12693   4.738   1.502   7.425 -1.3531  0.1029 -2.6016
  120OSM    C7F12694   4.943   1.582   7.454 -0.1061 -0.5513 -0.1885
  120OSM    H7F12695   4.929   1.584   7.564 -1.3834  0.3386 -0.3433
  120OSM    H7G12696   4.916   1.687   7.429  0.1200 -0.5410 -0.3866
  120OSM    C8F12697   5.093   1.556   7.422  0.3764 -0.3998 -0.2240
  120OSM    H8F12698   5.120   1.580   7.317  1.6560  0.0735  0.1905
  120OSM    H8G12699   5.114   1.452   7.457 -0.1132 -0.8055 -1.1062
  120OSM    C9F12700   5.189   1.639   7.507 -0.3178  0.0127  0.3750
  120OSM    H9F12701   5.151   1.742   7.508 -0.1397  0.1225 -1.6480
  120OSM   C10F12702   5.303   1.599   7.564 -0.7042 -0.0087  0.8386
  120OSM   H10F12703   5.360   1.673   7.622 -1.1250  0.1200  1.0946
  120OSM   C11F12704   5.372   1.467   7.542 -0.2799  0.0601 -0.4047
  120OSM   H11F12705   5.326   1.389   7.607  0.6126  1.5242  2.1029
  120OSM   H11G12706   5.468   1.476   7.598 -2.0219 -2.0942  3.3802
  120OSM   C12F12707   5.396   1.441   7.394  0.4217 -0.6704  0.8344
  120OSM   H12F12708   5.438   1.534   7.350 -0.0613  0.5146  2.7583
  120OSM   H12G12709   5.293   1.432   7.353  0.4599  1.2021  0.2333
  120OSM   C13F12710   5.472   1.312   7.357 -0.4025  0.0347 -0.2698
  120OSM   H13F12711   5.397   1.230   7.353 -0.7601  0.3838 -3.7688
  120OSM   H13G12712   5.546   1.296   7.439 -0.0276 -1.4706 -0.8860
  120OSM   C14F12713   5.536   1.304   7.221 -0.2105  0.4727  0.3140
  120OSM   H14F12714   5.596   1.213   7.202 -0.4826  0.6010 -1.2547
  120OSM   H14G12715   5.603   1.389   7.195 -0.2956  0.3732 -0.2393
  120OSM   C15F12716   5.423   1.307   7.107  0.2728 -0.5962 -0.3157
  120OSM   H15F12717   5.465   1.363   7.021 -0.5141  1.4350  0.5571
  120OSM   H15G12718   5.335   1.365   7.144  0.8265 -0.6257  1.1093
  120OSM   C16F12719   5.352   1.180   7.073 -0.0807  0.0175 -0.2245
  120OSM   H16F12720   5.351   1.121   7.168 -0.3610  1.7898  0.9204
  120OSM   H16G12721   5.415   1.115   7.009  0.2896 -1.0822  1.1834
  120OSM   C17F12722   5.209   1.190   7.011  0.0769  0.5857  0.0075
  120OSM   H17F12723   5.141   1.224   7.092  1.7059 -1.4563  2.4089
  120OSM   H17G12724   5.178   1.085   6.994  1.4310  0.5430 -2.7508
  120OSM   C18F12725   5.201   1.274   6.886  0.1263 -0.7408  0.2019
  120OSM   H18F12726   5.191   1.380   6.916 -0.3487 -1.1523  1.5681
  120OSM   H18G12727   5.105   1.244   6.839  0.5760 -1.4454 -0.2916
  120OSM   H18H12728   5.290   1.271   6.820  1.8986 -0.0870  2.4241
  121OSM      N12729   6.287   2.572   6.196  0.2475 -0.2105 -0.4321
  121OSM    C1512730   6.359   2.440   6.168  0.1352  0.7015 -0.1699
  121OSM   H15A12731   6.321   2.398   6.076 -1.0981 -2.4745  1.6188
  121OSM   H15B12732   6.324   2.367   6.240  2.5593 -1.5578 -1.1046
  121OSM   H15C12733   6.464   2.465   6.167 -0.3066  2.9025 -2.4276
  121OSM    C1412734   6.141   2.533   6.192 -0.1109 -0.4858  0.1664
  121OSM   H14A12735   6.125   2.497   6.092 -1.9294 -1.3239  0.7259
  121OSM   H14B12736   6.068   2.612   6.204  0.2022 -0.1711  0.0349
  121OSM   H14C12737   6.128   2.456   6.266 -0.3667 -0.1347  0.4931
  121OSM    C1312738   6.318   2.623   6.326 -0.4294  0.3944  0.5535
  121OSM   H13A12739   6.257   2.711   6.343 -0.7701  0.0252  1.2794
  121OSM   H13B12740   6.418   2.664   6.330 -0.9364  2.3791 -2.7927
  121OSM   H13C12741   6.311   2.552   6.407  0.0360  0.9232  1.0723
  121OSM    C1212742   6.332   2.672   6.093 -0.2396 -0.1489 -0.5039
  121OSM   H12A12743   6.258   2.750   6.095  0.5128  0.6298 -1.5086
  121OSM   H12B12744   6.315   2.636   5.992 -2.5653 -2.8172  0.6964
  121OSM    C1112745   6.474   2.729   6.106 -0.1954  0.0504 -0.0920
  121OSM   H11A12746   6.488   2.780   6.204  0.5114  0.0467 -0.1866
  121OSM   H11B12747   6.480   2.822   6.044 -0.1540  0.5542  0.6562
  121OSM      P12748   6.690   2.595   6.177  0.1694  0.1367  0.2368
  121OSM    O1312749   6.685   2.449   6.189 -0.9299 -0.4230  0.3015
  121OSM    O1412750   6.814   2.650   6.131  0.1915  0.3173  0.4885
  121OSM    O1112751   6.639   2.657   6.319 -0.1223 -0.0756  0.7669
  121OSM    O1212752   6.579   2.640   6.080  0.5633  0.1145  0.2706
  121OSM    C1S12753   6.739   2.729   6.392  0.6778 -0.6195 -0.6883
  121OSM    H1S12754   6.756   2.828   6.345  1.3020  0.2933  1.3565
  121OSM    H1T12755   6.838   2.678   6.389  0.3403 -1.2982 -0.5976
  121OSM     NF12756   6.811   2.823   6.604 -0.4676  0.0555 -0.1070
  121OSM    HNF12757   6.857   2.765   6.670 -2.8030 -2.8508 -0.8067
  121OSM    C2S12758   6.703   2.753   6.539  0.2245  0.1591  0.0626
  121OSM    H2S12759   6.618   2.825   6.533  0.3383  0.1509 -2.3722
  121OSM    C3S12760   6.654   2.616   6.611 -0.2389 -0.0936 -0.4032
  121OSM    H3S12761   6.737   2.543   6.614  0.6424  0.9110  0.7603
  121OSM     O312762   6.548   2.559   6.537  0.4981 -1.3316  0.1457
  121OSM    HO312763   6.557   2.601   6.451 -0.8384 -1.6431 -0.1552
  121OSM    C4S12764   6.597   2.645   6.750 -0.1492 -0.0547  0.1816
  121OSM    H4S12765   6.506   2.704   6.768  0.4479  0.0369  3.6471
  121OSM    C5S12766   6.650   2.615   6.869 -0.6948 -0.1771  0.2042
  121OSM    H5S12767   6.743   2.558   6.885 -0.6222  0.1585  1.0507
  121OSM    C6S12768   6.577   2.653   6.995  0.1384 -0.6521  0.4418
  121OSM    H6S12769   6.573   2.569   7.068 -1.2409  0.5425  1.7966
  121OSM    H6T12770   6.471   2.682   6.983  0.1092 -0.8272  0.2628
  121OSM    C7S12771   6.648   2.764   7.076 -0.2071 -0.8942 -0.6216
  121OSM    H7S12772   6.634   2.867   7.038  1.5067 -1.3119 -2.5701
  121OSM    H7T12773   6.756   2.738   7.085 -0.1808 -0.2688  1.2880
  121OSM    C8S12774   6.611   2.776   7.224 -0.8683  0.2146 -0.6215
  121OSM    H8S12775   6.502   2.787   7.239 -0.9237 -2.0448  1.2824
  121OSM    H8T12776   6.654   2.868   7.269 -0.2775 -0.0915 -0.5390
  121OSM    C9S12777   6.668   2.648   7.299  0.0003 -0.4613  0.5171
  121OSM    H9S12778   6.775   2.648   7.271  0.1137 -1.0763  0.9213
  121OSM    H9T12779   6.623   2.556   7.256 -0.2395  0.0926 -0.4382
  121OSM   C10S12780   6.645   2.644   7.454 -0.0792  0.4173  0.9901
  121OSM   H10S12781   6.541   2.683   7.454 -0.6989 -1.1332  0.7316
  121OSM   H10T12782   6.713   2.723   7.492  0.5834  1.1458 -1.5600
  121OSM   C11S12783   6.652   2.510   7.531  0.0130 -0.0907  0.0832
  121OSM   H11S12784   6.757   2.477   7.514  0.5198  1.6027 -0.2201
  121OSM   H11T12785   6.581   2.433   7.493 -1.1249  0.7565  0.4575
  121OSM   C12S12786   6.647   2.526   7.682  0.1605 -0.5791  0.0910
  121OSM   H12S12787   6.547   2.568   7.707  0.9327  1.4681 -0.0828
  121OSM   H12T12788   6.716   2.604   7.721 -1.1585 -0.4190  2.2752
  121OSM   C13S12789   6.652   2.398   7.768 -0.1070 -0.6719  0.5871
  121OSM   H13S12790   6.757   2.362   7.763 -0.1545 -1.0646  1.8461
  121OSM   H13T12791   6.587   2.314   7.738 -1.3383 -0.3687  2.2253
  121OSM   C14S12792   6.608   2.414   7.911 -0.1531  0.1018 -0.4292
  121OSM   H14S12793   6.500   2.443   7.908  0.2526  1.7685  0.1257
  121OSM   H14T12794   6.670   2.497   7.951  0.6696  0.5713 -2.5247
  121OSM   C15S12795   6.633   2.282   7.979  0.5915 -0.7408 -0.1209
  121OSM   H15S12796   6.738   2.254   7.953  0.7915  0.3782 -0.5650
  121OSM   H15T12797   6.560   2.213   7.932 -1.6370  0.7361  1.0125
  121OSM   C16S12798   6.600   2.293   8.130 -1.0623 -0.1588  0.2852
  121OSM   H16S12799   6.505   2.345   8.155  0.9884  3.1211  1.8978
  121OSM   H16T12800   6.677   2.360   8.175 -0.0243 -1.9455  1.2725
  121OSM   C17S12801   6.623   2.158   8.189 -0.5884  0.8183 -1.1552
  121OSM   H17S12802   6.727   2.120   8.177 -1.2430 -0.9319 -1.5397
  121OSM   H17T12803   6.563   2.085   8.131 -1.5489 -0.1245  0.9306
  121OSM   C18S12804   6.579   2.144   8.331 -0.4258  0.6043  0.4214
  121OSM   H18S12805   6.612   2.050   8.381 -2.4991 -0.0238  0.7057
  121OSM   H18T12806   6.470   2.125   8.342 -0.5974  2.7010  3.8851
  121OSM   H18U12807   6.604   2.229   8.398  0.0365  0.3435  0.5869
  121OSM    C1F12808   6.852   2.943   6.568 -0.0354 -0.3240  0.5352
  121OSM     OF12809   6.789   3.003   6.487  0.4928 -0.0596 -0.1921
  121OSM    C2F12810   6.967   3.003   6.641  0.2093 -0.0598 -0.2046
  121OSM    H2F12811   7.031   3.055   6.567 -0.3082  0.3041 -0.3982
  121OSM    H2G12812   7.024   2.936   6.709 -0.1197  0.7084  0.8499
  121OSM    C3F12813   6.910   3.107   6.734 -0.3604  0.9845 -0.6852
  121OSM    H3F12814   6.830   3.164   6.682  0.6129  0.3755 -2.9649
  121OSM    H3G12815   6.989   3.173   6.776  2.4036 -0.9891 -2.4334
  121OSM    C4F12816   6.836   3.047   6.857 -0.1297 -0.1640 -0.5980
  121OSM    H4F12817   6.895   2.969   6.909 -3.5561 -1.9647  0.9214
  121OSM    H4G12818   6.744   2.987   6.837  0.2252 -0.4858 -1.3140
  121OSM    C5F12819   6.805   3.160   6.954 -0.2114 -0.1616 -0.6033
  121OSM    H5F12820   6.715   3.216   6.918 -0.0899  0.0251 -0.6186
  121OSM    H5G12821   6.888   3.233   6.957  0.7408 -1.2664  1.0724
  121OSM    C6F12822   6.780   3.103   7.097 -0.7691  0.3298  0.0039
  121OSM    H6F12823   6.842   3.013   7.120  0.7883  1.3279 -0.2030
  121OSM    H6G12824   6.677   3.062   7.110  0.1459 -2.5705 -1.0362
  121OSM    C7F12825   6.810   3.188   7.228 -0.8164  0.1555 -0.2681
  121OSM    H7F12826   6.915   3.224   7.225 -0.9725  1.1207  2.8288
  121OSM    H7G12827   6.787   3.124   7.316  2.0392 -0.6837 -0.0289
  121OSM    C8F12828   6.732   3.318   7.223 -0.1091 -0.0065  0.1971
  121OSM    H8F12829   6.628   3.293   7.190  0.6459 -0.9479 -1.6201
  121OSM    H8G12830   6.771   3.392   7.150 -0.3078  0.2099  0.3095
  121OSM    C9F12831   6.719   3.373   7.367 -0.1174  0.1245  0.0401
  121OSM    H9F12832   6.779   3.459   7.400  1.7848 -1.5773  1.2036
  121OSM   C10F12833   6.645   3.323   7.467  0.8931 -0.1969  0.4316
  121OSM   H10F12834   6.640   3.366   7.568  0.9945  0.2264  0.2558
  121OSM   C11F12835   6.560   3.201   7.457 -0.0804 -0.4461  0.0791
  121OSM   H11F12836   6.565   3.157   7.355 -0.2222 -0.2998  0.0097
  121OSM   H11G12837   6.461   3.228   7.497  1.4700  1.9276  2.6520
  121OSM   C12F12838   6.602   3.082   7.546 -0.3991  0.4379  0.2608
  121OSM   H12F12839   6.708   3.062   7.521 -0.1742  0.6652  1.0191
  121OSM   H12G12840   6.539   2.996   7.517 -3.2481  1.7666  2.0605
  121OSM   C13F12841   6.590   3.111   7.699 -0.1666  0.3325 -0.1421
  121OSM   H13F12842   6.481   3.127   7.714  0.0815  0.5119  1.6464
  121OSM   H13G12843   6.653   3.196   7.730 -1.2430  0.7612  0.9431
  121OSM   C14F12844   6.630   2.985   7.792  0.8324  0.0531 -0.3465
  121OSM   H14F12845   6.734   2.955   7.767  0.4696 -1.3751 -0.2652
  121OSM   H14G12846   6.564   2.901   7.759 -1.6770  2.2763 -1.3913
  121OSM   C15F12847   6.626   3.005   7.940  0.1217 -0.0829  0.3563
  121OSM   H15F12848   6.697   3.087   7.966 -0.2754  0.0407  1.0687
  121OSM   H15G12849   6.652   2.916   8.001 -3.6548 -1.8919 -0.3850
  121OSM   C16F12850   6.479   3.043   7.974 -0.7070 -1.1294  0.2659
  121OSM   H16F12851   6.417   2.979   7.907 -0.4164 -1.0530 -0.0809
  121OSM   H16G12852   6.456   3.139   7.924 -1.4534 -2.3031 -1.7769
  121OSM   C17F12853   6.449   3.029   8.120  0.3382 -0.4693 -0.1545
  121OSM   H17F12854   6.369   3.104   8.137  0.2102 -0.3513 -1.2482
  121OSM   H17G12855   6.540   3.058   8.177  0.4906 -1.7215  0.2889
  121OSM   C18F12856   6.407   2.897   8.170  0.2593 -0.1431 -0.0317
  121OSM   H18F12857   6.392   2.893   8.280 -1.0825 -0.2379 -0.1981
  121OSM   H18G12858   6.482   2.821   8.141  1.2705  0.6126  0.5468
  121OSM   H18H12859   6.313   2.865   8.120  1.7565 -0.9807 -2.4926
  122OSM      N12860   6.520   4.444   5.939  0.5265 -0.0547  0.0512
  122OSM    C1512861   6.411   4.381   5.861  0.4771 -0.6810 -0.6883
  122OSM   H15A12862   6.332   4.452   5.844 -1.0269 -2.5586 -1.9957
  122OSM   H15B12863   6.372   4.296   5.915  0.5683 -0.9657 -1.0678
  122OSM   H15C12864   6.443   4.359   5.760 -1.5315 -2.2737 -1.0341
  122OSM    C1412865   6.631   4.346   5.950  0.8596  0.1858  0.2264
  122OSM   H14A12866   6.679   4.321   5.856 -0.5009 -2.4821  0.1648
  122OSM   H14B12867   6.596   4.249   5.981  3.3202 -0.7258  0.3924
  122OSM   H14C12868   6.710   4.370   6.020  0.7102 -1.9153  1.1699
  122OSM    C1312869   6.566   4.565   5.857 -0.4696 -0.5755  0.6523
  122OSM   H13A12870   6.604   4.541   5.758 -0.0922  0.7333  0.4602
  122OSM   H13B12871   6.638   4.621   5.915 -1.9510  0.3217  1.6968
  122OSM   H13C12872   6.487   4.637   5.844  0.7017  0.2419 -3.6358
  122OSM    C1212873   6.470   4.494   6.075  0.3122  0.8929  0.0108
  122OSM   H12A12874   6.392   4.566   6.054  0.2780  0.5256 -1.2059
  122OSM   H12B12875   6.550   4.547   6.124 -0.5521  1.4563  0.8659
  122OSM    C1112876   6.414   4.392   6.167  0.5059  0.7303 -0.2611
  122OSM   H11A12877   6.401   4.430   6.271  0.9361 -0.2103  0.1501
  122OSM   H11B12878   6.488   4.313   6.192 -0.4903  0.3355  1.6319
  122OSM      P12879   6.153   4.426   6.167  0.1214  0.4006  0.3730
  122OSM    O1312880   6.192   4.565   6.199  0.0623 -0.4360  0.0115
  122OSM    O1412881   6.040   4.413   6.070 -0.4117  0.0782 -0.3568
  122OSM    O1112882   6.118   4.339   6.296 -0.9232 -0.4526 -0.2991
  122OSM    O1212883   6.282   4.345   6.120  0.0832  0.0576  0.0364
  122OSM    C1S12884   6.146   4.202   6.317 -0.5856  0.3759 -0.0429
  122OSM    H1S12885   6.248   4.176   6.282 -0.1605  3.7459 -1.7866
  122OSM    H1T12886   6.067   4.146   6.263 -0.6963  1.9697 -1.6370
  122OSM     NF12887   6.165   4.016   6.465 -0.1766  0.1692 -0.2118
  122OSM    HNF12888   6.087   3.955   6.454  0.5997 -0.4356 -3.6359
  122OSM    C2S12889   6.129   4.155   6.466  0.3139  0.0613  1.1813
  122OSM    H2S12890   6.199   4.215   6.529  1.1544 -1.6739  1.9692
  122OSM    C3S12891   5.987   4.189   6.519  0.9449  0.8941 -0.5145
  122OSM    H3S12892   5.916   4.133   6.454  1.6507 -0.0601 -0.4809
  122OSM     O312893   5.951   4.322   6.512 -0.8801 -0.1392  0.0844
  122OSM    HO312894   6.017   4.349   6.448 -1.2197 -1.5921 -0.9157
  122OSM    C4S12895   5.970   4.144   6.668  1.3124  0.3553  0.0136
  122OSM    H4S12896   6.049   4.179   6.735  1.3665  2.5794 -1.1071
  122OSM    C5S12897   5.884   4.051   6.711 -0.0099  0.1512 -0.3368
  122OSM    H5S12898   5.812   4.011   6.639  1.4061 -0.7151 -1.3261
  122OSM    C6S12899   5.884   3.989   6.841  0.2949 -0.0169  0.2835
  122OSM    H6S12900   5.851   3.885   6.821  0.6760 -0.0644 -0.1270
  122OSM    H6T12901   5.798   4.031   6.896 -0.2156 -0.3821 -0.2247
  122OSM    C7S12902   6.016   3.972   6.919 -0.7742  0.2153 -0.3472
  122OSM    H7S12903   6.054   4.068   6.960  0.8027  0.3228 -1.9776
  122OSM    H7T12904   6.095   3.923   6.858 -0.9040  1.0509 -1.2078
  122OSM    C8S12905   5.986   3.886   7.041 -0.2586 -0.4047  0.8257
  122OSM    H8S12906   6.082   3.842   7.073  0.7324 -0.1649 -1.6119
  122OSM    H8T12907   5.924   3.797   7.019 -0.0457 -0.1527 -0.8819
  122OSM    C9S12908   5.930   3.968   7.162  0.3316  0.3515 -0.3101
  122OSM    H9S12909   5.834   4.019   7.138  1.0950  1.1900 -1.6621
  122OSM    H9T12910   5.994   4.057   7.178  1.3212 -0.4747  0.4506
  122OSM   C10S12911   5.941   3.887   7.297 -0.5373  0.4304  0.1664
  122OSM   H10S12912   6.046   3.853   7.305 -1.1298 -1.2638  1.1314
  122OSM   H10T12913   5.885   3.793   7.280  2.6578 -1.2821 -1.8625
  122OSM   C11S12914   5.891   3.971   7.416  0.2799 -0.4196 -0.0941
  122OSM   H11S12915   5.784   3.999   7.404  0.1738 -0.7626  0.0510
  122OSM   H11T12916   5.956   4.061   7.419 -1.7810  1.2369 -1.7933
  122OSM   C12S12917   5.910   3.894   7.548  0.4440  0.5870  0.1103
  122OSM   H12S12918   6.014   3.857   7.555 -0.1034 -0.9225  0.7813
  122OSM   H12T12919   5.838   3.810   7.555 -2.0896  2.6891  1.1604
  122OSM   C13S12920   5.882   3.991   7.668  0.4093  0.3643 -0.3727
  122OSM   H13S12921   5.786   4.047   7.675  1.1234  1.6467 -0.4483
  122OSM   H13T12922   5.966   4.063   7.668  2.2230 -1.6040  1.2595
  122OSM   C14S12923   5.905   3.926   7.809 -0.0012  0.1986  0.0208
  122OSM   H14S12924   6.013   3.900   7.804  1.0437  3.7344  0.7778
  122OSM   H14T12925   5.829   3.845   7.814 -0.7666  0.8111 -1.1682
  122OSM   C15S12926   5.881   4.024   7.921 -0.1502 -0.4403  0.5343
  122OSM   H15S12927   5.788   4.083   7.903  0.7167  1.1352  1.0169
  122OSM   H15T12928   5.958   4.104   7.925 -0.3696 -0.1640 -0.5875
  122OSM   C16S12929   5.871   3.951   8.052  0.1599  0.5419 -0.6341
  122OSM   H16S12930   5.825   3.850   8.039 -1.2225  0.4473  3.5663
  122OSM   H16T12931   5.813   3.991   8.137  0.2494 -2.2149  0.8618
  122OSM   C17S12932   6.006   3.914   8.112  0.2917  0.5029 -0.2649
  122OSM   H17S12933   6.071   3.869   8.035 -0.4404 -0.3283 -0.4174
  122OSM   H17T12934   5.984   3.838   8.191  0.0905  1.6837  0.8515
  122OSM   C18S12935   6.091   4.026   8.164 -0.6938  0.1850 -0.9967
  122OSM   H18S12936   6.017   4.099   8.203  0.3527  1.2206 -0.9207
  122OSM   H18T12937   6.147   4.083   8.087 -1.4509  0.8516 -1.0674
  122OSM   H18U12938   6.171   3.988   8.233  0.2946 -0.8194 -2.6334
  122OSM    C1F12939   6.290   3.971   6.465 -0.3826 -1.4458 -0.3531
  122OSM     OF12940   6.391   4.050   6.479  0.2083 -0.7252 -0.1781
  122OSM    C2F12941   6.305   3.820   6.438  0.2789  0.7396 -0.3412
  122OSM    H2F12942   6.318   3.801   6.329  1.8538 -2.2812  0.2802
  122OSM    H2G12943   6.215   3.765   6.473  0.0254  0.9362 -0.6654
  122OSM    C3F12944   6.438   3.766   6.481 -0.2149  0.0917 -0.5230
  122OSM    H3F12945   6.437   3.768   6.592 -1.6916 -1.9963 -0.4293
  122OSM    H3G12946   6.523   3.828   6.445 -0.8070  1.5792  0.5451
  122OSM    C4F12947   6.462   3.622   6.443  0.3297  0.3288 -0.1993
  122OSM    H4F12948   6.457   3.606   6.333  0.7269 -1.6091  0.0262
  122OSM    H4G12949   6.381   3.556   6.482  0.1933  2.0935  2.7728
  122OSM    C5F12950   6.599   3.566   6.495 -0.7188  0.5391 -0.0225
  122OSM    H5F12951   6.689   3.614   6.451 -0.9667  0.0506 -1.0965
  122OSM    H5G12952   6.609   3.461   6.458  1.8981 -1.1027  4.4992
  122OSM    C6F12953   6.622   3.569   6.645 -0.5037  0.2755 -0.5757
  122OSM    H6F12954   6.559   3.501   6.705 -1.3750  0.8323 -0.8337
  122OSM    H6G12955   6.600   3.675   6.672  0.6423  0.7966 -1.5916
  122OSM    C7F12956   6.774   3.544   6.681  0.2225 -0.3621  0.0261
  122OSM    H7F12957   6.834   3.605   6.610 -1.4246 -0.3174 -1.4054
  122OSM    H7G12958   6.804   3.438   6.665  2.6408  0.4402 -1.3004
  122OSM    C8F12959   6.799   3.589   6.828  0.1809  0.1115 -0.2115
  122OSM    H8F12960   6.734   3.526   6.894  1.1316  0.6225  1.2577
  122OSM    H8G12961   6.755   3.687   6.854  1.6582  0.8079 -0.2784
  122OSM    C9F12962   6.944   3.579   6.883 -0.2863  0.7504 -0.0462
  122OSM    H9F12963   6.996   3.486   6.855 -1.7357  0.0787 -0.6292
  122OSM   C10F12964   7.012   3.675   6.944 -0.5977 -0.4135  0.2189
  122OSM   H10F12965   7.117   3.648   6.965 -0.2633  0.8284  0.2041
  122OSM   C11F12966   6.962   3.806   6.987 -0.4456 -0.8541  0.1089
  122OSM   H11F12967   6.857   3.824   6.954 -1.4486  1.8048  4.0625
  122OSM   H11G12968   7.020   3.888   6.940 -0.3772  0.4565  2.3542
  122OSM   C12F12969   6.966   3.826   7.139 -0.4059 -0.5743  0.4507
  122OSM   H12F12970   6.948   3.934   7.158  1.6630  0.4701 -2.7396
  122OSM   H12G12971   7.070   3.798   7.167  0.2800 -0.0806 -1.4671
  122OSM   C13F12972   6.863   3.737   7.216 -0.0556 -0.5112 -0.7962
  122OSM   H13F12973   6.885   3.630   7.201 -1.5310 -0.7874 -1.1579
  122OSM   H13G12974   6.767   3.757   7.164 -0.5207 -0.1855  0.1700
  122OSM   C14F12975   6.849   3.765   7.368  0.1224  0.1224 -0.0063
  122OSM   H14F12976   6.868   3.872   7.390 -0.7624 -0.3610  3.7196
  122OSM   H14G12977   6.931   3.710   7.420 -0.0904  0.6262  0.8670
  122OSM   C15F12978   6.711   3.745   7.430 -0.7352  0.4019 -0.2251
  122OSM   H15F12979   6.666   3.649   7.399  0.9676 -0.6575  0.4807
  122OSM   H15G12980   6.654   3.831   7.389  0.0057  0.2927 -1.5580
  122OSM   C16F12981   6.723   3.749   7.585 -0.3767 -0.2248  0.0090
  122OSM   H16F12982   6.804   3.674   7.601 -0.2401 -1.3168 -4.6139
  122OSM   H16G12983   6.630   3.707   7.628 -1.7153  2.4061 -0.1146
  122OSM   C17F12984   6.765   3.877   7.659 -0.1201 -0.0438  0.3911
  122OSM   H17F12985   6.676   3.943   7.661 -0.1468 -0.0485 -0.3668
  122OSM   H17G12986   6.852   3.929   7.614 -0.3240  0.5257  0.6521
  122OSM   C18F12987   6.792   3.850   7.799  0.7717 -0.2465  0.3329
  122OSM   H18F12988   6.855   3.759   7.813 -0.7238 -1.4983 -0.6889
  122OSM   H18G12989   6.697   3.837   7.856  0.1938 -0.0595 -0.5752
  122OSM   H18H12990   6.839   3.935   7.852 -0.3342  0.7063 -0.1682
  123OSM      N12991   4.422   0.526   6.458 -0.5174 -0.1124 -0.0539
  123OSM    C1512992   4.326   0.549   6.571 -0.2099  0.5696  0.1497
  123OSM   H15A12993   4.227   0.583   6.543 -0.9379  0.9477  2.8879
  123OSM   H15B12994   4.371   0.615   6.645 -0.1596  0.9059 -0.1772
  123OSM   H15C12995   4.309   0.456   6.623  1.0529 -1.2775 -2.5279
  123OSM    C1412996   4.555   0.477   6.506 -0.1030  0.6663  0.3907
  123OSM   H14A12997   4.555   0.374   6.537  0.7391  1.1316  2.0799
  123OSM   H14B12998   4.596   0.547   6.578 -1.3234 -0.7644  2.6049
  123OSM   H14C12999   4.621   0.484   6.421 -0.6570 -2.1221 -0.3808
  123OSM    C1313000   4.364   0.419   6.365  0.0086 -0.1983 -0.4073
  123OSM   H13A13001   4.280   0.466   6.316 -0.1888  1.7264  1.6421
  123OSM   H13B13002   4.326   0.327   6.409  2.0727 -0.9446 -0.1064
  123OSM   H13C13003   4.441   0.391   6.295  0.4563  2.1996 -0.9646
  123OSM    C1213004   4.448   0.657   6.382 -0.2266  0.5712 -0.1606
  123OSM   H12A13005   4.519   0.627   6.307  0.7387 -0.4086  1.0947
  123OSM   H12B13006   4.503   0.725   6.446 -0.4844  1.7719 -1.1695
  123OSM    C1113007   4.331   0.718   6.300 -0.1533  0.3727  0.2177
  123OSM   H11A13008   4.276   0.636   6.248  0.3436  1.1602 -1.6197
  123OSM   H11B13009   4.382   0.786   6.229 -1.9592 -0.0231 -1.5544
  123OSM      P13010   4.218   0.943   6.380  0.4484 -0.0645  0.2530
  123OSM    O1313011   4.341   1.023   6.386 -0.3534  0.0253  0.3707
  123OSM    O1413012   4.124   0.982   6.278  0.9523 -0.0882 -0.8468
  123OSM    O1113013   4.155   0.959   6.520  0.1959  0.2799  0.7265
  123OSM    O1213014   4.241   0.786   6.386  0.3059 -0.5449 -0.3948
  123OSM    C1S13015   4.226   0.956   6.646 -0.6520  0.4818  0.7463
  123OSM    H1S13016   4.290   1.047   6.651 -1.3042  0.8708  3.3886
  123OSM    H1T13017   4.295   0.869   6.638 -0.4637  0.7421 -0.8800
  123OSM     NF13018   4.178   0.981   6.897 -0.0578 -0.3307  0.1183
  123OSM    HNF13019   4.209   0.918   6.968  0.1900  1.1183  1.3388
  123OSM    C2S13020   4.127   0.929   6.769 -0.4756 -0.6821  0.4217
  123OSM    H2S13021   4.036   0.989   6.747  0.8235  0.8052 -1.2268
  123OSM    C3S13022   4.092   0.782   6.766  0.0859 -0.3284  0.3029
  123OSM    H3S13023   4.179   0.713   6.770  0.6563  0.3274 -0.3533
  123OSM     O313024   4.032   0.742   6.645  0.1899 -0.2230 -0.3056
  123OSM    HO313025   4.067   0.808   6.585  1.1105  0.1409  0.6070
  123OSM    C4S13026   3.997   0.751   6.879 -0.6081 -0.0679 -0.4119
  123OSM    H4S13027   4.057   0.717   6.964 -0.3736  0.7312 -0.2479
  123OSM    C5S13028   3.862   0.766   6.891 -0.8258  0.2026  0.3016
  123OSM    H5S13029   3.798   0.813   6.815 -0.0315 -0.9790 -1.1387
  123OSM    C6S13030   3.792   0.721   7.015  0.3155 -0.1811  0.3407
  123OSM    H6S13031   3.730   0.631   6.994 -1.2496  0.8131  0.5646
  123OSM    H6T13032   3.721   0.802   7.040  0.7821  0.2396  0.3085
  123OSM    C7S13033   3.867   0.696   7.148  0.4785  1.3557 -0.3493
  123OSM    H7S13034   3.927   0.787   7.169 -1.1654  2.1373  1.1722
  123OSM    H7T13035   3.924   0.601   7.134 -0.8669  0.6877 -1.6670
  123OSM    C8S13036   3.775   0.672   7.266 -0.0309  0.0464 -0.5873
  123OSM    H8S13037   3.717   0.578   7.251  1.3997 -0.8716 -0.5128
  123OSM    H8T13038   3.709   0.757   7.290  0.7586  0.4053  0.3753
  123OSM    C9S13039   3.871   0.664   7.388 -0.4143 -0.1437 -1.3488
  123OSM    H9S13040   3.931   0.757   7.391  0.3925 -0.5543 -3.0785
  123OSM    H9T13041   3.937   0.576   7.378  1.0489  0.6963  0.3910
  123OSM   C10S13042   3.811   0.647   7.532  0.3366 -0.3926  0.7595
  123OSM   H10S13043   3.763   0.547   7.538 -0.1426 -0.4044 -1.8884
  123OSM   H10T13044   3.733   0.724   7.554  1.4539  0.7189  0.9398
  123OSM   C11S13045   3.926   0.668   7.631 -0.1277  0.2604  0.1355
  123OSM   H11S13046   3.966   0.769   7.607 -2.8777  1.0181 -1.7020
  123OSM   H11T13047   3.999   0.588   7.607  0.5558  1.5496 -2.4509
  123OSM   C12S13048   3.884   0.661   7.777  0.0361  0.9988 -0.8384
  123OSM   H12S13049   3.818   0.573   7.786  1.4737  0.0431  1.0690
  123OSM   H12T13050   3.822   0.749   7.806 -2.5010 -1.2108  0.8357
  123OSM   C13S13051   4.009   0.648   7.872  0.3702 -0.2554 -0.7570
  123OSM   H13S13052   4.073   0.737   7.851  0.0127 -0.0645 -1.0363
  123OSM   H13T13053   4.064   0.555   7.846 -1.7152 -0.8902 -3.1733
  123OSM   C14S13054   3.968   0.644   8.025  0.0576 -0.4698  0.6907
  123OSM   H14S13055   3.900   0.562   8.057 -1.7585  0.9677  0.6501
  123OSM   H14T13056   3.909   0.737   8.039  1.3137  0.1696  2.0238
  123OSM   C15S13057   4.084   0.653   8.121 -0.0650  0.1984  0.0669
  123OSM   H15S13058   4.047   0.678   8.223  1.9563  1.7227  0.4889
  123OSM   H15T13059   4.157   0.731   8.090 -1.5312  1.7924  0.4939
  123OSM   C16S13060   4.171   0.524   8.134 -0.1076 -0.2129 -0.1041
  123OSM   H16S13061   4.256   0.541   8.204  0.1330  1.7821 -0.8100
  123OSM   H16T13062   4.206   0.500   8.031 -1.6033 -1.9810 -0.2474
  123OSM   C17S13063   4.095   0.412   8.202  0.5778 -0.2157 -0.6313
  123OSM   H17S13064   3.992   0.405   8.161  1.2622  1.6720 -2.8949
  123OSM   H17T13065   4.072   0.441   8.307 -2.4597 -0.4736 -1.1382
  123OSM   C18S13066   4.175   0.281   8.205 -0.2701  0.3301 -0.0904
  123OSM   H18S13067   4.223   0.263   8.107  2.7088  1.1765  1.1084
  123OSM   H18T13068   4.105   0.198   8.224 -1.3779  1.6199  1.8294
  123OSM   H18U13069   4.257   0.285   8.280 -1.4179 -0.4414  1.2462
  123OSM    C1F13070   4.200   1.114   6.919 -0.0289  0.3207  0.1623
  123OSM     OF13071   4.182   1.196   6.825 -0.3858 -0.0796 -0.4668
  123OSM    C2F13072   4.250   1.148   7.060 -0.3923  0.3529  0.3668
  123OSM    H2F13073   4.354   1.110   7.050 -0.2199  0.6460  1.0418
  123OSM    H2G13074   4.190   1.091   7.133  0.6337 -2.7771 -1.0604
  123OSM    C3F13075   4.239   1.299   7.095 -0.8500 -0.0067 -0.7205
  123OSM    H3F13076   4.148   1.323   7.154  1.3824  0.4959  2.8313
  123OSM    H3G13077   4.244   1.358   7.001  0.5551 -0.4412 -0.9445
  123OSM    C4F13078   4.358   1.352   7.181 -0.4242  0.3074  0.0789
  123OSM    H4F13079   4.353   1.460   7.204  1.1782  0.1137  1.5635
  123OSM    H4G13080   4.458   1.342   7.133  0.0652  2.7498  0.4739
  123OSM    C5F13081   4.359   1.289   7.319 -0.1291 -0.0392  0.5542
  123OSM    H5F13082   4.394   1.185   7.302  0.6747  0.3716 -0.3850
  123OSM    H5G13083   4.256   1.292   7.360 -0.1506 -0.8543  0.5878
  123OSM    C6F13084   4.458   1.360   7.413  0.5758  0.3449  0.0194
  123OSM    H6F13085   4.452   1.470   7.421 -0.4629  0.4715 -1.8533
  123OSM    H6G13086   4.556   1.335   7.368  0.4849  0.6312 -0.3526
  123OSM    C7F13087   4.458   1.290   7.547  0.2553 -0.2012  0.0217
  123OSM    H7F13088   4.473   1.181   7.534 -0.7786 -0.2998 -0.4787
  123OSM    H7G13089   4.354   1.287   7.586  0.0829  1.9626 -0.1477
  123OSM    C8F13090   4.546   1.347   7.664  0.7510  0.8569 -0.1762
  123OSM    H8F13091   4.512   1.451   7.680  1.0492  0.7192  1.4756
  123OSM    H8G13092   4.645   1.336   7.613  1.0091 -0.9522  0.6394
  123OSM    C9F13093   4.523   1.267   7.788 -0.2986  0.2410  0.3639
  123OSM    H9F13094   4.457   1.179   7.779  0.4357 -0.2290 -0.7309
  123OSM   C10F13095   4.596   1.292   7.898  0.5001 -0.1183 -0.1149
  123OSM   H10F13096   4.604   1.220   7.981 -0.8470 -2.0689 -1.6026
  123OSM   C11F13097   4.698   1.395   7.929 -0.1020 -0.7314 -0.0230
  123OSM   H11F13098   4.708   1.477   7.855  0.3172 -1.0790 -0.3584
  123OSM   H11G13099   4.797   1.351   7.905 -0.5986 -0.2931 -3.3049
  123OSM   C12F13100   4.695   1.472   8.068  0.8847  0.5500 -0.6372
  123OSM   H12F13101   4.619   1.554   8.068  1.2156  0.8728  0.3040
  123OSM   H12G13102   4.791   1.527   8.076 -0.0912  2.3467 -0.6134
  123OSM   C13F13103   4.666   1.382   8.203 -0.4877 -0.1327  0.2139
  123OSM   H13F13104   4.751   1.310   8.198  1.1196  1.5805  1.3639
  123OSM   H13G13105   4.570   1.327   8.196 -0.4810  0.0624 -1.9769
  123OSM   C14F13106   4.691   1.452   8.339  0.3479  0.1824  0.7966
  123OSM   H14F13107   4.711   1.385   8.425 -2.1793  1.2474  2.3410
  123OSM   H14G13108   4.607   1.516   8.376  0.3284  1.2102 -0.9134
  123OSM   C15F13109   4.808   1.550   8.354 -0.3626  0.2398  0.1209
  123OSM   H15F13110   4.799   1.597   8.454  0.6406 -0.2255  0.4418
  123OSM   H15G13111   4.787   1.628   8.278 -0.8146  0.0440  0.0408
  123OSM   C16F13112   4.950   1.492   8.322 -0.0503  0.3722 -0.0497
  123OSM   H16F13113   4.952   1.435   8.227 -0.1645  2.2360 -1.2261
  123OSM   H16G13114   4.959   1.410   8.396  2.6069  1.9781  1.5521
  123OSM   C17F13115   5.073   1.581   8.361  0.0533  0.5835  0.0711
  123OSM   H17F13116   5.071   1.619   8.466 -0.8974  0.2718  0.1738
  123OSM   H17G13117   5.075   1.669   8.294  1.9621 -0.4471 -1.3039
  123OSM   C18F13118   5.206   1.505   8.337  0.3919  0.2148  0.3308
  123OSM   H18F13119   5.210   1.423   8.411  1.6194  0.6826  0.8038
  123OSM   H18G13120   5.295   1.571   8.344 -0.6457  1.6494  0.8305
  123OSM   H18H13121   5.198   1.459   8.237  2.2810 -0.1788  0.3263
  124OSM      N13122   5.304   5.245   6.368  0.5795  0.0375 -0.4772
  124OSM    C1513123   5.419   5.336   6.343 -0.4929  0.1412 -0.2373
  124OSM   H15A13124   5.490   5.322   6.424 -0.4238 -0.7848 -0.4527
  124OSM   H15B13125   5.387   5.434   6.312  0.2932 -0.3372 -2.7987
  124OSM   H15C13126   5.482   5.293   6.266 -1.0333 -2.8259  0.8334
  124OSM    C1413127   5.252   5.282   6.501 -0.1594 -0.1169 -0.7716
  124OSM   H14A13128   5.325   5.290   6.580 -1.6699  2.5460  0.4763
  124OSM   H14B13129   5.180   5.210   6.537  1.9061 -1.6601  0.5061
  124OSM   H14C13130   5.202   5.377   6.499 -1.7149 -0.6695  3.0278
  124OSM    C1313131   5.203   5.247   6.262 -0.5182  0.0567  0.0222
  124OSM   H13A13132   5.144   5.337   6.250 -1.7306 -0.9472 -2.4362
  124OSM   H13B13133   5.124   5.176   6.281 -1.3702  0.7693 -0.7463
  124OSM   H13C13134   5.232   5.217   6.162 -1.4535  1.6480 -0.7752
  124OSM    C1213135   5.355   5.096   6.381 -0.1194 -0.2149  0.5581
  124OSM   H12A13136   5.279   5.034   6.428 -0.7294 -0.7973 -1.1081
  124OSM   H12B13137   5.442   5.102   6.445 -0.0660  1.4548  0.3754
  124OSM    C1113138   5.402   5.020   6.260  0.6958  0.3328  0.9308
  124OSM   H11A13139   5.307   5.000   6.205  1.3634  0.2362 -0.2216
  124OSM   H11B13140   5.441   4.920   6.291  2.5438  0.1253 -1.6936
  124OSM      P13141   5.649   5.068   6.215 -0.2598  0.3426  0.0316
  124OSM    O1313142   5.702   5.004   6.099  0.1014  0.0100 -0.0138
  124OSM    O1413143   5.708   5.197   6.253  0.4303  0.0005  0.4849
  124OSM    O1113144   5.655   4.973   6.334  0.3464  0.0244 -0.7960
  124OSM    O1213145   5.494   5.090   6.182  0.1606  0.1801 -0.4930
  124OSM    C1S13146   5.758   4.975   6.434 -0.3835 -0.3144  0.0559
  124OSM    H1S13147   5.789   5.074   6.474  0.3773 -0.5456  0.0733
  124OSM    H1T13148   5.856   4.937   6.396 -1.6626 -2.1733 -1.5497
  124OSM     NF13149   5.824   4.911   6.667 -0.1539 -0.3706  0.0682
  124OSM    HNF13150   5.888   4.836   6.680 -2.2827 -2.1417  1.0577
  124OSM    C2S13151   5.730   4.886   6.561  0.5804 -0.7440 -0.3246
  124OSM    H2S13152   5.634   4.925   6.600  1.1984  0.8099 -0.2785
  124OSM    C3S13153   5.718   4.732   6.529  1.3708  0.5082 -0.1340
  124OSM    H3S13154   5.813   4.694   6.486  1.1576  0.6717 -0.7560
  124OSM     O313155   5.623   4.706   6.421 -0.5076 -0.3321 -0.4140
  124OSM    HO313156   5.625   4.796   6.387  0.3502  0.0874  0.6659
  124OSM    C4S13157   5.674   4.660   6.649 -0.2971  0.6281 -0.6453
  124OSM    H4S13158   5.570   4.666   6.684  0.0299 -1.6910  0.9301
  124OSM    C5S13159   5.749   4.559   6.707 -0.4429 -0.7932 -0.3421
  124OSM    H5S13160   5.852   4.542   6.673 -1.1254 -2.4552 -1.7290
  124OSM    C6S13161   5.711   4.484   6.827  0.2660  0.4613 -1.0953
  124OSM    H6S13162   5.679   4.382   6.794 -0.4690  0.2007  0.3362
  124OSM    H6T13163   5.620   4.528   6.872  1.1692  2.0767 -0.7899
  124OSM    C7S13164   5.836   4.487   6.919  0.5632 -0.0209 -0.0922
  124OSM    H7S13165   5.867   4.592   6.938  2.7373 -0.3854 -1.2483
  124OSM    H7T13166   5.920   4.437   6.866  0.7516  0.8338 -0.6238
  124OSM    C8S13167   5.811   4.412   7.053 -0.2816 -0.0684 -0.0380
  124OSM    H8S13168   5.791   4.304   7.034  0.3200  0.1403 -2.0380
  124OSM    H8T13169   5.716   4.445   7.100  1.1406 -0.7767  3.6419
  124OSM    C9S13170   5.917   4.430   7.159 -0.2753 -0.2978 -0.2122
  124OSM    H9S13171   5.935   4.538   7.174  0.4408 -0.3151 -0.9289
  124OSM    H9T13172   6.020   4.399   7.134  0.7923  0.3141  2.9042
  124OSM   C10S13173   5.880   4.377   7.298 -0.0601  0.5726  0.3824
  124OSM   H10S13174   5.819   4.284   7.293 -1.8438  1.6867  0.5455
  124OSM   H10T13175   5.803   4.447   7.336 -1.9478 -0.7225 -0.8684
  124OSM   C11S13176   6.006   4.370   7.377  0.6880  0.6108  0.1687
  124OSM   H11S13177   6.072   4.453   7.343 -0.2751  0.5394 -2.0817
  124OSM   H11T13178   6.049   4.271   7.351 -1.1752  0.2149 -1.6854
  124OSM   C12S13179   5.954   4.356   7.520  0.0322 -0.0602 -0.2387
  124OSM   H12S13180   5.887   4.268   7.529 -0.0020  0.0370  0.5367
  124OSM   H12T13181   5.908   4.448   7.563  1.2295  1.8083 -2.6892
  124OSM   C13S13182   6.062   4.339   7.626 -0.0767  1.1153  0.0698
  124OSM   H13S13183   6.143   4.410   7.601 -0.0987  1.1930  0.2158
  124OSM   H13T13184   6.110   4.238   7.626  2.3184  2.1724  1.2467
  124OSM   C14S13185   6.019   4.350   7.779  0.3807 -0.5096  0.6919
  124OSM   H14S13186   5.930   4.286   7.795 -0.6278  0.9291  1.0302
  124OSM   H14T13187   5.976   4.452   7.783 -1.0938 -1.0553 -0.2022
  124OSM   C15S13188   6.132   4.344   7.881 -0.1868 -0.5526  0.3028
  124OSM   H15S13189   6.230   4.354   7.829  0.1985 -1.5460  0.8149
  124OSM   H15T13190   6.127   4.241   7.923 -0.6949 -0.2606  0.9779
  124OSM   C16S13191   6.127   4.448   7.989 -0.0965 -0.0837 -0.4363
  124OSM   H16S13192   6.165   4.547   7.956 -2.0947  0.9639  0.2269
  124OSM   H16T13193   6.201   4.419   8.067  0.1065 -0.1993 -0.6689
  124OSM   C17S13194   5.992   4.467   8.080  0.1502 -0.3232  0.1829
  124OSM   H17S13195   5.966   4.372   8.132 -0.1988  0.8354  2.2428
  124OSM   H17T13196   5.917   4.490   8.001  0.9578 -1.2360 -0.8858
  124OSM   C18S13197   6.010   4.578   8.183 -0.3100  0.2966  0.3615
  124OSM   H18S13198   6.085   4.549   8.260 -0.3533 -1.7207 -0.2984
  124OSM   H18T13199   5.922   4.616   8.241 -1.7505 -1.5280 -0.5286
  124OSM   H18U13200   6.053   4.665   8.129 -1.1871 -0.1231 -1.0692
  124OSM    C1F13201   5.842   5.023   6.737  0.3024  0.4904 -0.2524
  124OSM     OF13202   5.781   5.126   6.708 -0.9644  0.3321 -0.0139
  124OSM    C2F13203   5.931   5.012   6.854  0.4852 -0.0679  0.2522
  124OSM    H2F13204   5.982   5.109   6.871 -0.1182  0.7035 -2.0084
  124OSM    H2G13205   6.017   4.942   6.845 -1.7004 -3.2442  1.9414
  124OSM    C3F13206   5.863   4.963   6.986  0.1641 -0.6902 -0.3393
  124OSM    H3F13207   5.820   4.863   6.966 -0.2642 -0.5123 -0.3105
  124OSM    H3G13208   5.769   5.021   6.997 -0.2634 -1.3204 -0.6287
  124OSM    C4F13209   5.951   4.951   7.112  1.2188 -0.5730  0.1498
  124OSM    H4F13210   5.886   4.956   7.202  0.9260 -1.6419  0.0102
  124OSM    H4G13211   6.008   5.047   7.112 -0.4970  0.4919  0.8211
  124OSM    C5F13212   6.029   4.821   7.098 -0.1123  0.3923 -0.1257
  124OSM    H5F13213   6.049   4.805   6.990  0.5019 -2.6851  0.3502
  124OSM    H5G13214   5.967   4.736   7.132 -3.2941  2.2534 -0.8536
  124OSM    C6F13215   6.166   4.832   7.174 -0.7131 -0.2429 -0.0556
  124OSM    H6F13216   6.209   4.932   7.152 -0.4817 -0.7416 -2.1012
  124OSM    H6G13217   6.240   4.758   7.139  1.1475  1.8278 -0.7420
  124OSM    C7F13218   6.149   4.824   7.329  0.1225 -0.1032 -0.3232
  124OSM    H7F13219   6.080   4.738   7.346 -0.2473 -0.2710 -2.4343
  124OSM    H7G13220   6.092   4.908   7.374 -1.1760 -0.5125 -1.1494
  124OSM    C8F13221   6.279   4.802   7.404  0.1503  0.5294  0.0194
  124OSM    H8F13222   6.363   4.874   7.388  1.2176 -0.5314  0.6852
  124OSM    H8G13223   6.315   4.703   7.367 -0.5222 -1.1728  3.5388
  124OSM    C9F13224   6.243   4.788   7.551  0.2659  0.0828 -0.1559
  124OSM    H9F13225   6.172   4.709   7.579 -1.6350  1.8276  0.2017
  124OSM   C10F13226   6.274   4.868   7.656  0.1819 -0.5305  0.1126
  124OSM   H10F13227   6.242   4.840   7.757 -2.1329 -1.4850 -0.8242
  124OSM   C11F13228   6.356   4.994   7.642  0.4233 -0.0284 -0.0937
  124OSM   H11F13229   6.417   4.996   7.550 -1.8683 -0.0230 -1.6986
  124OSM   H11G13230   6.425   5.006   7.728 -0.4772  2.2139  0.3961
  124OSM   C12F13231   6.271   5.120   7.648 -0.3818 -0.1510  0.7246
  124OSM   H12F13232   6.349   5.198   7.645 -0.0107 -0.5492 -0.3971
  124OSM   H12G13233   6.210   5.145   7.738 -1.3384  0.5723 -0.1003
  124OSM   C13F13234   6.200   5.153   7.518 -0.2380 -0.2178  0.3391
  124OSM   H13F13235   6.113   5.084   7.512  1.3563 -2.2836 -0.3562
  124OSM   H13G13236   6.273   5.124   7.439  0.7904 -1.2348  1.6006
  124OSM   C14F13237   6.176   5.306   7.497  0.3618  0.0839 -0.7015
  124OSM   H14F13238   6.276   5.355   7.504  0.6734 -0.2242 -2.4107
  124OSM   H14G13239   6.116   5.346   7.581  1.0939  2.7030 -1.3090
  124OSM   C15F13240   6.097   5.338   7.370 -0.7228  0.4690 -0.0048
  124OSM   H15F13241   6.092   5.448   7.355  2.7303  0.6305 -0.8315
  124OSM   H15G13242   5.995   5.299   7.387 -0.6661  0.7524  1.0780
  124OSM   C16F13243   6.151   5.259   7.247  0.2252 -0.1246  0.1562
  124OSM   H16F13244   6.117   5.154   7.258  1.1591 -0.3758  0.7749
  124OSM   H16G13245   6.261   5.271   7.256 -0.0039  0.5425  3.1495
  124OSM   C17F13246   6.116   5.334   7.118 -0.3158 -0.2165  0.4669
  124OSM   H17F13247   6.161   5.280   7.032 -0.8326 -0.5381  0.3890
  124OSM   H17G13248   6.166   5.432   7.133  0.7812 -0.6194 -0.4408
  124OSM   C18F13249   5.966   5.353   7.085 -0.4659  0.2025 -0.4724
  124OSM   H18F13250   5.921   5.399   7.175  4.2631  2.0503  1.2733
  124OSM   H18G13251   5.911   5.259   7.067  0.4410 -0.8670  1.9517
  124OSM   H18H13252   5.954   5.416   6.994  0.7647 -0.0479 -0.8244
  125OSM      N13253   1.034   2.853   6.151 -0.0634 -0.9893 -0.1722
  125OSM    C1513254   1.149   2.804   6.075 -0.3333  0.0995  0.1111
  125OSM   H15A13255   1.118   2.712   6.026 -1.9087  0.2700  0.7248
  125OSM   H15B13256   1.235   2.782   6.136  0.3303 -1.5896 -1.3436
  125OSM   H15C13257   1.183   2.872   5.999  0.4029 -1.4348 -0.9980
  125OSM    C1413258   1.005   2.769   6.275  0.0481  0.3471  0.5290
  125OSM   H14A13259   1.087   2.771   6.346  1.4306 -1.3477 -0.9198
  125OSM   H14B13260   0.985   2.667   6.248  0.2633  0.4217  0.0766
  125OSM   H14C13261   0.910   2.795   6.318 -1.0776 -1.3381 -0.8149
  125OSM    C1313262   1.068   2.994   6.197 -0.1848 -0.0930 -0.2511
  125OSM   H13A13263   0.988   3.046   6.247  0.1491  0.6110 -0.4407
  125OSM   H13B13264   1.088   3.045   6.104  0.2832 -1.9617 -1.2377
  125OSM   H13C13265   1.159   3.007   6.254 -0.4975  2.6736 -0.2800
  125OSM    C1213266   0.921   2.857   6.048 -0.1538  0.0753 -0.7984
  125OSM   H12A13267   0.909   2.754   6.019  0.8390 -0.5487  0.8203
  125OSM   H12B13268   0.957   2.901   5.957  0.7420 -0.2183 -0.5986
  125OSM    C1113269   0.786   2.912   6.085 -0.2118 -0.3318  0.7490
  125OSM   H11A13270   0.734   2.856   6.166 -0.6724  0.4361  0.9962
  125OSM   H11B13271   0.716   2.905   5.999 -2.0978 -2.4957  2.3245
  125OSM      P13272   0.665   3.112   6.209  0.2251 -0.0020  0.1102
  125OSM    O1313273   0.658   3.257   6.181 -0.3385 -0.4505 -0.2619
  125OSM    O1413274   0.548   3.030   6.163  0.1372  0.2678  0.0741
  125OSM    O1113275   0.681   3.094   6.360  0.1321 -0.1480  0.1305
  125OSM    O1213276   0.790   3.053   6.136  0.3858  0.4223  0.8896
  125OSM    C1S13277   0.680   2.968   6.426  0.9475  0.5275  0.0104
  125OSM    H1S13278   0.771   2.909   6.406 -0.5899 -2.4588  1.1635
  125OSM    H1T13279   0.597   2.901   6.393  0.7852  1.1147 -0.7929
  125OSM     NF13280   0.695   2.865   6.657  0.0200 -0.2218  0.1624
  125OSM    HNF13281   0.622   2.797   6.667 -0.6916  0.7765  2.4645
  125OSM    C2S13282   0.665   2.986   6.582 -0.4600  0.6469  0.2996
  125OSM    H2S13283   0.740   3.062   6.611  1.0946 -0.6476 -0.1955
  125OSM    C3S13284   0.518   3.031   6.611  0.0190  0.0670 -0.2659
  125OSM    H3S13285   0.447   2.948   6.591  0.1205  0.1459 -1.0023
  125OSM     O313286   0.454   3.133   6.531 -0.0205 -0.1353 -0.0867
  125OSM    HO313287   0.524   3.149   6.467 -0.0465 -2.3652 -0.7704
  125OSM    C4S13288   0.500   3.055   6.760  0.8023 -0.2157  0.1942
  125OSM    H4S13289   0.468   2.972   6.825  0.7653 -0.7848 -0.5430
  125OSM    C5S13290   0.499   3.178   6.820  0.4319  0.7574  0.3095
  125OSM    H5S13291   0.508   3.269   6.760 -1.0003 -0.1085 -1.2967
  125OSM    C6S13292   0.478   3.193   6.968 -0.1808  0.2786 -0.1716
  125OSM    H6S13293   0.577   3.186   7.018 -1.1603 -2.8456  1.5322
  125OSM    H6T13294   0.417   3.110   7.008  0.7738 -0.6769 -0.6349
  125OSM    C7S13295   0.392   3.319   6.996 -0.3226  0.3635  0.2970
  125OSM    H7S13296   0.300   3.314   6.934 -0.5712 -0.3309  0.7164
  125OSM    H7T13297   0.440   3.411   6.958  0.5846  0.9614  2.6846
  125OSM    C8S13298   0.362   3.325   7.150  0.2228 -0.2718  0.9441
  125OSM    H8S13299   0.460   3.309   7.201  0.4569 -0.1919  0.5219
  125OSM    H8T13300   0.302   3.236   7.178 -0.9503 -0.0529 -0.7074
  125OSM    C9S13301   0.295   3.448   7.202  0.1429  0.1915 -0.4002
  125OSM    H9S13302   0.190   3.421   7.178  1.1122 -1.5247 -3.1570
  125OSM    H9T13303   0.321   3.542   7.150 -1.2945  1.6948  1.4758
  125OSM   C10S13304   0.329   3.474   7.346 -0.8079 -0.3694  0.2793
  125OSM   H10S13305   0.274   3.565   7.379 -0.7970 -0.3749  0.3130
  125OSM   H10T13306   0.440   3.482   7.350 -0.9188  0.8095  1.9249
  125OSM   C11S13307   0.287   3.356   7.431  0.2182  0.2995 -0.4580
  125OSM   H11S13308   0.342   3.262   7.409 -0.1286 -0.0785  0.2649
  125OSM   H11T13309   0.186   3.325   7.396 -0.9724  4.0029 -0.7772
  125OSM   C12S13310   0.274   3.391   7.586  0.9266  0.7535  0.9988
  125OSM   H12S13311   0.224   3.489   7.600  1.4438  1.1657  0.0797
  125OSM   H12T13312   0.371   3.406   7.637  0.9718  2.4048  0.4860
  125OSM   C13S13313   0.181   3.295   7.650  0.7420 -0.3385  0.8005
  125OSM   H13S13314   0.223   3.194   7.631  1.3232  0.3577 -2.0098
  125OSM   H13T13315   0.080   3.289   7.603  2.3491 -0.6253 -2.8778
  125OSM   C14S13316   0.160   3.329   7.801 -0.8464  0.3266  0.5003
  125OSM   H14S13317   0.260   3.346   7.846 -1.5053 -0.1494  2.2403
  125OSM   H14T13318   0.123   3.242   7.859  1.7813 -1.4701 -0.3271
  125OSM   C15S13319   0.070   3.449   7.822  0.9181  0.4355 -0.1964
  125OSM   H15S13320  -0.033   3.420   7.794  0.6359  1.9335 -0.7616
  125OSM   H15T13321   0.113   3.538   7.773 -0.4520  1.2362  0.0275
  125OSM   C16S13322   0.050   3.487   7.974  0.1125  0.0720 -0.3436
  125OSM   H16S13323   0.043   3.392   8.031  0.4539  1.3493  1.9557
  125OSM   H16T13324  -0.041   3.551   7.981 -0.7400 -1.2699  1.2366
  125OSM   C17S13325   0.171   3.557   8.025 -0.2395  0.1067 -0.4052
  125OSM   H17S13326   0.163   3.666   8.007 -1.0327 -0.0288 -0.9190
  125OSM   H17T13327   0.266   3.519   7.979  0.8517 -0.9843  2.5305
  125OSM   C18S13328   0.192   3.538   8.170  0.0668 -0.4789 -0.5029
  125OSM   H18S13329   0.185   3.431   8.198 -0.8724 -0.4903 -0.7539
  125OSM   H18T13330   0.110   3.591   8.224 -0.3673 -1.8270  0.2058
  125OSM   H18U13331   0.295   3.564   8.203  0.5417 -4.1692  1.4096
  125OSM    C1F13332   0.819   2.816   6.667  0.3711 -0.3128  0.2882
  125OSM     OF13333   0.915   2.875   6.624  0.4684 -0.5276 -0.3804
  125OSM    C2F13334   0.834   2.691   6.740  0.0810  0.1802 -0.0146
  125OSM    H2F13335   0.913   2.636   6.683  0.3601  0.8895 -0.3246
  125OSM    H2G13336   0.741   2.634   6.717 -1.2680  2.0905  0.4513
  125OSM    C3F13337   0.869   2.705   6.886  0.4795 -0.1604  0.5316
  125OSM    H3F13338   0.975   2.728   6.913  0.4918  0.2275  0.1501
  125OSM    H3G13339   0.848   2.605   6.930 -0.4048 -0.0427  0.3835
  125OSM    C4F13340   0.783   2.806   6.967  0.1963  0.3858  0.6380
  125OSM    H4F13341   0.677   2.779   6.949  1.1610 -3.0820 -0.7561
  125OSM    H4G13342   0.797   2.907   6.921  1.6733 -0.0881 -0.0120
  125OSM    C5F13343   0.822   2.813   7.113 -0.8277  0.1161  0.3762
  125OSM    H5F13344   0.914   2.874   7.123  0.8483 -2.5012  2.0659
  125OSM    H5G13345   0.836   2.708   7.147  0.5944 -0.3117 -1.3473
  125OSM    C6F13346   0.717   2.884   7.194 -0.6145 -0.1475 -0.2729
  125OSM    H6F13347   0.619   2.848   7.156 -1.3381  2.3146 -0.9340
  125OSM    H6G13348   0.712   2.992   7.169 -1.2350  0.0845  0.7938
  125OSM    C7F13349   0.728   2.864   7.340  0.0331 -0.0699 -0.0003
  125OSM    H7F13350   0.815   2.920   7.380  0.9351 -0.0037 -1.9509
  125OSM    H7G13351   0.762   2.760   7.357 -0.2265 -0.2128 -0.3331
  125OSM    C8F13352   0.596   2.895   7.418 -0.3949  0.4391  0.4976
  125OSM    H8F13353   0.577   2.829   7.505  0.1597 -2.2202 -1.2823
  125OSM    H8G13354   0.522   2.864   7.341 -0.6356 -1.3198  1.3776
  125OSM    C9F13355   0.582   3.041   7.456 -0.6314 -0.2748  0.1269
  125OSM    H9F13356   0.548   3.103   7.372 -1.4952 -1.0752 -0.1350
  125OSM   C10F13357   0.590   3.093   7.578 -0.5149 -0.4377  0.2040
  125OSM   H10F13358   0.584   3.203   7.581 -0.7429 -0.4633  1.9625
  125OSM   C11F13359   0.629   3.023   7.709  0.4627 -0.7796  0.9033
  125OSM   H11F13360   0.737   3.002   7.690  0.3859 -1.1333  0.8557
  125OSM   H11G13361   0.579   2.924   7.709  2.2930 -1.7535  0.9684
  125OSM   C12F13362   0.588   3.104   7.829 -0.4420  0.4085  0.2189
  125OSM   H12F13363   0.477   3.100   7.838 -0.5757  2.6483  0.0796
  125OSM   H12G13364   0.622   3.207   7.809  1.9840 -0.4866 -0.6327
  125OSM   C13F13365   0.637   3.059   7.963  0.1696 -0.1952  0.1890
  125OSM   H13F13366   0.748   3.050   7.968  0.1171 -1.6829 -0.7216
  125OSM   H13G13367   0.589   2.961   7.987 -3.3095  1.4769  0.6837
  125OSM   C14F13368   0.601   3.163   8.075  0.3771 -0.0912  0.0977
  125OSM   H14F13369   0.491   3.176   8.084 -0.1194 -1.7993 -2.4846
  125OSM   H14G13370   0.642   3.260   8.038 -0.7053 -0.3420 -1.9078
  125OSM   C15F13371   0.665   3.123   8.213 -0.4250 -0.2265 -0.2369
  125OSM   H15F13372   0.775   3.132   8.199 -0.4008 -0.9533 -0.5938
  125OSM   H15G13373   0.644   3.017   8.240  1.4134 -0.0656  2.0903
  125OSM   C16F13374   0.620   3.209   8.325 -0.0388  0.0309 -0.0698
  125OSM   H16F13375   0.509   3.203   8.317 -0.0625  1.1569 -0.9629
  125OSM   H16G13376   0.653   3.314   8.308  3.1475 -0.9786 -0.7635
  125OSM   C17F13377   0.681   3.172   8.465 -0.3995 -0.5186  0.0157
  125OSM   H17F13378   0.716   3.067   8.473  0.7292 -0.2256 -0.8822
  125OSM   H17G13379   0.602   3.177   8.543 -0.2490 -0.4065  0.1589
  125OSM   C18F13380   0.789   3.265   8.512  0.0102 -0.6362 -0.4578
  125OSM   H18F13381   0.819   3.250   8.617 -1.7747  0.9530  0.3510
  125OSM   H18G13382   0.761   3.367   8.478 -0.4439 -0.5899  0.0391
  125OSM   H18H13383   0.876   3.246   8.445  0.3714  2.4250 -0.9850
  126OSM      N13384   5.934   0.193   6.462  0.0771 -0.0236 -0.0866
  126OSM    C1513385   5.957   0.062   6.517  0.6144  0.8190  0.6891
  126OSM   H15A13386   6.013  -0.001   6.450 -1.4388 -1.2442  0.8067
  126OSM   H15B13387   5.864   0.011   6.534 -0.3837  2.4188  0.1957
  126OSM   H15C13388   6.016   0.083   6.605 -0.2140  2.0546  0.9814
  126OSM    C1413389   6.073   0.244   6.415  0.1185 -0.6362 -0.2325
  126OSM   H14A13390   6.051   0.328   6.350 -3.2259 -0.6243  0.7527
  126OSM   H14B13391   6.141   0.177   6.365  1.1234 -0.0969  0.3944
  126OSM   H14C13392   6.117   0.284   6.504 -1.2000  0.7110 -0.1383
  126OSM    C1313393   5.860   0.187   6.334  0.1487  0.5782 -0.0963
  126OSM   H13A13394   5.838   0.279   6.282 -0.7307  1.0051  1.0218
  126OSM   H13B13395   5.766   0.136   6.349 -0.7900  2.3615  0.2665
  126OSM   H13C13396   5.904   0.126   6.256 -1.3491 -0.8341  0.1163
  126OSM    C1213397   5.871   0.291   6.565 -0.4768 -0.2020  0.3742
  126OSM   H12A13398   5.781   0.250   6.608 -0.9799  0.4195 -0.0707
  126OSM   H12B13399   5.832   0.374   6.508  1.6207  0.0179 -0.8316
  126OSM    C1113400   5.967   0.351   6.676  0.8116  0.5643  0.2710
  126OSM   H11A13401   6.017   0.266   6.727  1.6207  1.5871  1.2076
  126OSM   H11B13402   5.888   0.389   6.745  0.2453 -0.6142  0.3041
  126OSM      P13403   6.005   0.587   6.558 -0.1843 -0.0072 -0.0149
  126OSM    O1313404   6.124   0.640   6.490  0.7149  0.1241  0.0196
  126OSM    O1413405   5.882   0.574   6.486  1.0518 -0.6590 -0.2181
  126OSM    O1113406   5.972   0.671   6.682  0.1561 -0.2331 -0.0885
  126OSM    O1213407   6.054   0.447   6.619 -0.2185  0.6732 -0.2576
  126OSM    C1S13408   6.023   0.638   6.813 -0.1254 -0.4967  0.6035
  126OSM    H1S13409   6.121   0.588   6.809 -0.5763 -1.3147 -0.9884
  126OSM    H1T13410   5.954   0.577   6.875  0.3129 -0.4514  1.1425
  126OSM     NF13411   6.096   0.727   7.032 -0.3637  0.1346 -0.1415
  126OSM    HNF13412   6.036   0.736   7.111 -1.5964 -0.0571 -1.0248
  126OSM    C2S13413   6.040   0.761   6.909  0.3691  0.0604 -0.0367
  126OSM    H2S13414   6.098   0.842   6.861  0.0817 -0.4474 -1.2955
  126OSM    C3S13415   5.899   0.839   6.917 -0.3459 -0.3873 -0.3735
  126OSM    H3S13416   5.823   0.769   6.959 -3.6804  3.7710  1.2293
  126OSM     O313417   5.853   0.876   6.791 -0.0211 -0.6932  0.2310
  126OSM    HO313418   5.887   0.801   6.742  1.5651 -0.3288  0.7099
  126OSM    C4S13419   5.896   0.962   7.010 -1.0982 -0.8955  0.1717
  126OSM    H4S13420   5.928   1.056   6.963 -1.1283 -1.8226 -1.7756
  126OSM    C5S13421   5.845   0.963   7.134 -0.1958 -0.5634 -0.3090
  126OSM    H5S13422   5.789   0.874   7.166 -0.2716  0.1839  1.7832
  126OSM    C6S13423   5.834   1.090   7.214  0.4005 -0.0038 -0.5971
  126OSM    H6S13424   5.769   1.075   7.303  0.6619 -0.8913 -0.5452
  126OSM    H6T13425   5.799   1.183   7.164 -2.2785  1.2247  3.0813
  126OSM    C7S13426   5.970   1.133   7.277  0.0319  0.4878  0.7891
  126OSM    H7S13427   6.050   1.143   7.200  0.5353  0.0326  1.2500
  126OSM    H7T13428   5.999   1.049   7.342  1.4396 -0.9282 -1.5262
  126OSM    C8S13429   5.949   1.255   7.367 -1.0331 -0.0347 -0.2042
  126OSM    H8S13430   5.864   1.317   7.330 -1.6171 -0.2484  0.7323
  126OSM    H8T13431   6.035   1.323   7.382 -0.1518 -0.9493 -1.0236
  126OSM    C9S13432   5.909   1.214   7.515 -0.0806  0.6276 -0.0637
  126OSM    H9S13433   5.949   1.114   7.542 -1.3782 -0.8020 -3.0056
  126OSM    H9T13434   5.800   1.191   7.525  0.3930 -1.0804  1.5930
  126OSM   C10S13435   5.949   1.301   7.633  1.3595 -0.2183  0.2915
  126OSM   H10S13436   5.903   1.402   7.622 -0.2945 -0.7917  1.5268
  126OSM   H10T13437   6.059   1.315   7.641  1.7130 -2.1111 -0.7938
  126OSM   C11S13438   5.905   1.239   7.771  0.1307  0.2376  0.2057
  126OSM   H11S13439   5.948   1.137   7.762  1.6532  1.0061 -2.7384
  126OSM   H11T13440   5.795   1.236   7.777  0.1549  0.3177  0.7556
  126OSM   C12S13441   5.968   1.307   7.892 -0.6080 -0.8505 -0.4241
  126OSM   H12S13442   5.913   1.401   7.910  0.6222  0.1670 -1.7417
  126OSM   H12T13443   6.072   1.326   7.860 -1.1862 -0.2279 -2.0572
  126OSM   C13S13444   5.990   1.214   8.018  0.7123 -0.0890  1.0138
  126OSM   H13S13445   6.052   1.123   8.001  0.7923 -0.4105  2.7853
  126OSM   H13T13446   5.894   1.167   8.047  0.5090 -0.4229 -0.1585
  126OSM   C14S13447   6.046   1.280   8.143  0.4626 -0.3606  0.5255
  126OSM   H14S13448   5.986   1.373   8.151 -0.4172 -0.1545 -4.8468
  126OSM   H14T13449   6.149   1.311   8.117 -0.4229  1.5375 -0.9871
  126OSM   C15S13450   6.039   1.210   8.277  0.3228 -0.5150  0.4075
  126OSM   H15S13451   6.092   1.117   8.245  1.9918  1.1425 -2.0182
  126OSM   H15T13452   5.936   1.171   8.294  0.0397 -0.4961 -1.1205
  126OSM   C16S13453   6.104   1.291   8.392 -0.0703  1.4456  0.0396
  126OSM   H16S13454   6.034   1.375   8.415 -3.2709 -0.8214 -0.7497
  126OSM   H16T13455   6.198   1.329   8.346  1.1075  0.1340  1.2882
  126OSM   C17S13456   6.146   1.210   8.511 -0.2066 -0.9212 -0.4188
  126OSM   H17S13457   6.238   1.160   8.473  0.7819  0.0541  0.6203
  126OSM   H17T13458   6.072   1.130   8.532  0.7066 -1.6965 -0.0599
  126OSM   C18S13459   6.173   1.290   8.638 -0.1286  0.2271  0.6285
  126OSM   H18S13460   6.250   1.368   8.624  0.1354  0.2275  1.9565
  126OSM   H18T13461   6.197   1.223   8.724 -1.2958 -0.2459  0.6071
  126OSM   H18U13462   6.075   1.333   8.669  0.7130  2.1180  0.7813
  126OSM    C1F13463   6.222   0.681   7.051 -0.1251  0.1554 -0.0749
  126OSM     OF13464   6.308   0.685   6.966  0.3311 -0.1675 -0.2760
  126OSM    C2F13465   6.246   0.625   7.180  0.1858  0.5001 -1.1190
  126OSM    H2F13466   6.208   0.520   7.182  1.8247 -0.1847 -2.4204
  126OSM    H2G13467   6.197   0.694   7.252 -0.2876  0.4683 -1.4067
  126OSM    C3F13468   6.396   0.605   7.199 -0.9878  0.5058 -0.5975
  126OSM    H3F13469   6.445   0.704   7.189 -1.0215  0.4532 -1.3324
  126OSM    H3G13470   6.439   0.544   7.117 -1.0917 -1.0635  0.4620
  126OSM    C4F13471   6.436   0.542   7.335 -0.4070 -0.3513 -0.2228
  126OSM    H4F13472   6.401   0.437   7.336 -1.7841  0.0708  1.4541
  126OSM    H4G13473   6.377   0.603   7.407 -0.4638 -1.2291  0.4854
  126OSM    C5F13474   6.589   0.563   7.362 -0.4669  0.5695  0.5476
  126OSM    H5F13475   6.617   0.668   7.384  2.7305 -0.2295  0.8362
  126OSM    H5G13476   6.643   0.538   7.268 -0.3209 -0.7860  0.9649
  126OSM    C6F13477   6.642   0.472   7.476 -0.1894  0.2012  0.0499
  126OSM    H6F13478   6.751   0.484   7.490 -0.4456  2.6239  0.5293
  126OSM    H6G13479   6.623   0.366   7.451 -0.9007  0.4993 -0.7143
  126OSM    C7F13480   6.553   0.487   7.602 -0.7242  0.1243  0.2477
  126OSM    H7F13481   6.449   0.447   7.595  0.2737 -2.6207 -0.0082
  126OSM    H7G13482   6.547   0.598   7.614 -4.7925  0.1141 -0.0405
  126OSM    C8F13483   6.599   0.395   7.718 -0.1812 -0.0976 -0.3351
  126OSM    H8F13484   6.708   0.407   7.735 -0.7007  3.1810  1.5977
  126OSM    H8G13485   6.580   0.289   7.690 -0.8629  0.0378 -0.4138
  126OSM    C9F13486   6.513   0.421   7.842 -0.8697 -0.6776 -0.0514
  126OSM    H9F13487   6.404   0.422   7.833 -0.9709 -0.1696  1.0358
  126OSM   C10F13488   6.557   0.501   7.948  0.3142 -0.0469  0.5754
  126OSM   H10F13489   6.495   0.523   8.036  1.5089  1.5391  1.0647
  126OSM   C11F13490   6.695   0.561   7.972 -0.5096  0.8704  0.0450
  126OSM   H11F13491   6.704   0.655   7.913 -1.6336  2.5954  2.4454
  126OSM   H11G13492   6.775   0.495   7.933  0.6051  2.5394 -0.6162
  126OSM   C12F13493   6.716   0.597   8.122  0.3969 -0.2017  0.4975
  126OSM   H12F13494   6.635   0.663   8.159 -2.1373 -2.0421 -1.2913
  126OSM   H12G13495   6.811   0.653   8.133 -0.6717  1.7358  0.2028
  126OSM   C13F13496   6.717   0.462   8.198 -0.0710 -0.1511  0.1442
  126OSM   H13F13497   6.622   0.404   8.210  0.9167 -2.8329 -3.2567
  126OSM   H13G13498   6.761   0.482   8.298 -0.0245 -0.0863  0.1102
  126OSM   C14F13499   6.821   0.355   8.142 -0.6159 -0.4823 -0.5624
  126OSM   H14F13500   6.907   0.421   8.115 -0.8047 -0.0522 -0.1386
  126OSM   H14G13501   6.787   0.305   8.050  0.2377  0.8918 -1.6728
  126OSM   C15F13502   6.866   0.249   8.245 -0.5277  0.0193  0.0108
  126OSM   H15F13503   6.872   0.293   8.346  1.1307  1.1695 -0.5527
  126OSM   H15G13504   6.960   0.202   8.208 -0.0095  2.1640 -1.6002
  126OSM   C16F13505   6.747   0.146   8.254 -0.1595 -0.3301 -0.2963
  126OSM   H16F13506   6.730   0.112   8.150 -0.1904  0.6439 -0.6145
  126OSM   H16G13507   6.645   0.174   8.287  0.4263 -0.5181  1.8663
  126OSM   C17F13508   6.781   0.017   8.331  0.0588  0.1890 -0.7556
  126OSM   H17F13509   6.791   0.052   8.436 -0.5557  1.3488 -1.0651
  126OSM   H17G13510   6.880  -0.028   8.307  0.4573  0.1334  0.9187
  126OSM   C18F13511   6.678  -0.091   8.307  0.8005 -0.2429 -0.0403
  126OSM   H18F13512   6.587  -0.049   8.354  0.9329 -0.6715  0.6172
  126OSM   H18G13513   6.703  -0.183   8.365  1.9960  0.0933 -0.0048
  126OSM   H18H13514   6.677  -0.114   8.199  1.5875  0.3541 -0.1805
  127OSM      N13515   3.816   0.642   6.355  0.5809  0.2416  0.3150
  127OSM    C1513516   3.718   0.639   6.239 -0.5207 -0.4735  0.9481
  127OSM   H15A13517   3.747   0.593   6.145 -0.4909 -0.4998  0.9703
  127OSM   H15B13518   3.684   0.738   6.214 -0.2993 -1.0669 -2.0896
  127OSM   H15C13519   3.625   0.592   6.268 -0.1173 -2.2107 -0.4088
  127OSM    C1413520   3.960   0.675   6.304 -0.2618 -0.2387  0.3876
  127OSM   H14A13521   4.000   0.598   6.240  0.7074  0.7702 -0.2733
  127OSM   H14B13522   4.030   0.667   6.386  1.1709 -2.7421 -0.9758
  127OSM   H14C13523   3.963   0.770   6.251  2.0973 -0.4834 -0.0442
  127OSM    C1313524   3.782   0.741   6.458  0.1953 -0.6940 -0.3705
  127OSM   H13A13525   3.765   0.841   6.420 -0.9247  0.3688  2.6878
  127OSM   H13B13526   3.854   0.739   6.538  0.1187 -1.0977 -0.3141
  127OSM   H13C13527   3.694   0.701   6.504 -1.0302  1.4441 -0.7004
  127OSM    C1213528   3.821   0.504   6.420 -0.3505 -0.1450 -0.2147
  127OSM   H12A13529   3.888   0.496   6.504  0.0222  3.3719 -0.0439
  127OSM   H12B13530   3.858   0.437   6.344  0.0475  1.3012 -1.3386
  127OSM    C1113531   3.693   0.439   6.489 -0.8858 -0.1605 -0.3165
  127OSM   H11A13532   3.664   0.490   6.584 -0.6991 -2.2989  0.9475
  127OSM   H11B13533   3.728   0.337   6.513  1.0861  0.8480  1.4451
  127OSM      P13534   3.447   0.383   6.440 -0.3332  0.1640 -0.5645
  127OSM    O1313535   3.348   0.425   6.344  0.1159 -0.7942 -0.3076
  127OSM    O1413536   3.459   0.235   6.474 -0.3843 -0.2605 -0.1166
  127OSM    O1113537   3.422   0.463   6.570  0.1489  0.0350 -0.6871
  127OSM    O1213538   3.590   0.436   6.392  0.1927 -0.0643 -0.2614
  127OSM    C1S13539   3.396   0.604   6.581 -0.0723  0.0125  0.1016
  127OSM    H1S13540   3.304   0.621   6.521  1.1691  0.9363 -1.6450
  127OSM    H1T13541   3.478   0.668   6.543 -1.3244  1.0236 -1.0214
  127OSM     NF13542   3.339   0.791   6.715 -0.0799  0.4016  0.3742
  127OSM    HNF13543   3.415   0.844   6.752  1.2465 -1.2279  0.1296
  127OSM    C2S13544   3.364   0.644   6.723 -0.3664 -0.7770  0.2260
  127OSM    H2S13545   3.280   0.585   6.766  0.9966 -1.6125  1.8861
  127OSM    C3S13546   3.487   0.614   6.817  0.0129 -0.5506 -0.2803
  127OSM    H3S13547   3.577   0.665   6.779  1.1127 -1.1694  1.3395
  127OSM     O313548   3.525   0.479   6.810  0.6599 -0.0793  0.2796
  127OSM    HO313549   3.487   0.460   6.723 -0.9090 -1.3378  1.1698
  127OSM    C4S13550   3.455   0.653   6.962  0.2130  0.7188  0.3484
  127OSM    H4S13551   3.488   0.755   6.989 -1.6127  1.2626  0.6722
  127OSM    C5S13552   3.391   0.582   7.062  0.9291 -0.0338  0.2864
  127OSM    H5S13553   3.364   0.477   7.045  2.0594  0.0165 -2.2195
  127OSM    C6S13554   3.370   0.641   7.197 -0.7486  0.1229  0.7095
  127OSM    H6S13555   3.412   0.574   7.274 -0.6098 -0.0106  0.5188
  127OSM    H6T13556   3.265   0.612   7.218 -0.0543 -1.5536  2.0888
  127OSM    C7S13557   3.386   0.792   7.226 -0.5041  0.3402 -0.2105
  127OSM    H7S13558   3.324   0.853   7.157  0.5141 -0.8171 -2.2532
  127OSM    H7T13559   3.495   0.807   7.210 -0.2597 -2.2535 -1.6116
  127OSM    C8S13560   3.333   0.836   7.364 -0.1269 -0.5132  0.5678
  127OSM    H8S13561   3.230   0.797   7.374 -0.3870  0.2636  1.0085
  127OSM    H8T13562   3.322   0.946   7.366 -1.6048 -0.6372  0.4547
  127OSM    C9S13563   3.435   0.789   7.475  0.5303 -0.4288 -0.1158
  127OSM    H9S13564   3.523   0.857   7.465  1.5054 -1.3204  1.8561
  127OSM    H9T13565   3.464   0.682   7.459 -0.8599 -0.5287 -2.4237
  127OSM   C10S13566   3.376   0.813   7.612 -0.1228  0.5597  0.4880
  127OSM   H10S13567   3.279   0.759   7.617  0.9653 -1.5358  0.1503
  127OSM   H10T13568   3.370   0.923   7.626 -0.6502  0.2950  2.8659
  127OSM   C11S13569   3.480   0.776   7.722 -0.2407  0.1964  0.2686
  127OSM   H11S13570   3.584   0.792   7.687  0.0257  0.9437  1.3396
  127OSM   H11T13571   3.467   0.676   7.768 -0.0782 -0.1609 -0.4530
  127OSM   C12S13572   3.463   0.886   7.830  0.0374 -0.3354 -0.2284
  127OSM   H12S13573   3.360   0.889   7.872  1.1007  0.1619  2.6347
  127OSM   H12T13574   3.477   0.993   7.805 -0.2443  0.1228  1.4022
  127OSM   C13S13575   3.547   0.864   7.956  0.3410  0.9467 -1.1208
  127OSM   H13S13576   3.531   0.946   8.028  0.4029 -0.7933  0.9833
  127OSM   H13T13577   3.655   0.864   7.929  0.3037 -0.3684 -1.3569
  127OSM   C14S13578   3.523   0.734   8.026  0.5458 -0.7526 -0.5185
  127OSM   H14S13579   3.541   0.640   7.969  0.1734  0.3372 -2.5188
  127OSM   H14T13580   3.414   0.726   8.041 -0.1918  2.0006 -3.3619
  127OSM   C15S13581   3.583   0.709   8.173 -0.6137 -0.0167  0.2365
  127OSM   H15S13582   3.542   0.780   8.248 -0.3747  0.2593  0.1097
  127OSM   H15T13583   3.691   0.733   8.166 -0.2311 -1.5879  0.5697
  127OSM   C16S13584   3.546   0.571   8.222  0.1986  0.0514  0.7677
  127OSM   H16S13585   3.564   0.495   8.143  0.2238  0.1085  0.7189
  127OSM   H16T13586   3.440   0.572   8.254 -0.0038 -1.2520  0.2050
  127OSM   C17S13587   3.620   0.536   8.345  0.6438  1.0011  1.1658
  127OSM   H17S13588   3.726   0.509   8.326  0.3099  0.6292 -0.2632
  127OSM   H17T13589   3.580   0.439   8.382 -0.8849  1.4706  0.8318
  127OSM   C18S13590   3.624   0.645   8.455  1.0926  0.3869  0.2290
  127OSM   H18S13591   3.685   0.595   8.534  1.0870  0.3581  0.2153
  127OSM   H18T13592   3.528   0.683   8.495  0.9300  2.5546 -1.9869
  127OSM   H18U13593   3.693   0.723   8.417  1.8816 -0.5883 -0.3829
  127OSM    C1F13594   3.216   0.831   6.678  0.2600  0.5135 -0.6939
  127OSM     OF13595   3.121   0.753   6.667  0.2196  0.5519 -0.2230
  127OSM    C2F13596   3.200   0.983   6.658  0.0016  0.2993 -0.0266
  127OSM    H2F13597   3.144   0.998   6.563  0.9358  0.3008 -0.5858
  127OSM    H2G13598   3.304   1.021   6.656  0.3107 -0.4463  0.9897
  127OSM    C3F13599   3.109   1.048   6.769 -0.6884  0.4111  0.0806
  127OSM    H3F13600   3.012   0.994   6.769 -0.4190 -0.0823 -0.9159
  127OSM    H3G13601   3.095   1.152   6.733 -1.4077  0.7010  1.1345
  127OSM    C4F13602   3.171   1.053   6.901 -1.0785  0.5122 -0.2383
  127OSM    H4F13603   3.277   1.084   6.889 -1.0642  0.6124  0.1484
  127OSM    H4G13604   3.173   0.951   6.947  1.9234  0.7846  0.3901
  127OSM    C5F13605   3.098   1.140   7.007  0.9021 -0.5117  0.3679
  127OSM    H5F13606   2.990   1.114   7.016  0.6674  0.2032 -0.2802
  127OSM    H5G13607   3.105   1.248   6.982 -1.1065 -0.3244  0.4235
  127OSM    C6F13608   3.163   1.131   7.151 -0.4295 -0.2783 -0.5707
  127OSM    H6F13609   3.208   1.030   7.166 -0.5299 -0.6356 -2.4943
  127OSM    H6G13610   3.079   1.136   7.225  0.0501 -1.2703  0.0609
  127OSM    C7F13611   3.260   1.247   7.188  0.0789  0.2785 -0.5803
  127OSM    H7F13612   3.213   1.347   7.176 -0.6024 -0.1214 -1.3688
  127OSM    H7G13613   3.347   1.248   7.120  1.1601  3.1941  0.6927
  127OSM    C8F13614   3.306   1.239   7.335  1.0442  0.7690 -0.2360
  127OSM    H8F13615   3.380   1.321   7.348  0.1061  1.9708 -1.9815
  127OSM    H8G13616   3.352   1.140   7.354 -1.4067 -0.0903  1.6823
  127OSM    C9F13617   3.197   1.243   7.446  0.1545 -0.7718 -0.4193
  127OSM    H9F13618   3.092   1.226   7.418 -0.0852 -0.4841  0.2700
  127OSM   C10F13619   3.225   1.251   7.583  0.1800  0.6598  0.0750
  127OSM   H10F13620   3.143   1.277   7.651 -0.3825  2.1086 -1.1048
  127OSM   C11F13621   3.368   1.271   7.636  0.0312  0.1807  0.1528
  127OSM   H11F13622   3.410   1.371   7.615  1.1951 -0.3486 -0.0964
  127OSM   H11G13623   3.436   1.197   7.589  2.2630  2.6215 -0.6548
  127OSM   C12F13624   3.364   1.255   7.789 -0.6783  0.1204  0.2091
  127OSM   H12F13625   3.333   1.153   7.818  1.7661 -0.7188  0.1386
  127OSM   H12G13626   3.290   1.334   7.815 -2.0097 -0.4181 -1.6910
  127OSM   C13F13627   3.504   1.280   7.847 -0.2787 -0.0290 -0.2014
  127OSM   H13F13628   3.558   1.352   7.782 -0.6175 -0.5762 -1.0982
  127OSM   H13G13629   3.564   1.188   7.831 -1.2507 -0.7063 -0.0835
  127OSM   C14F13630   3.487   1.285   8.000  0.0569 -0.1236 -0.8443
  127OSM   H14F13631   3.405   1.214   8.024 -1.1489  1.8863  1.3947
  127OSM   H14G13632   3.454   1.388   8.026  3.0621  0.0189  3.4799
  127OSM   C15F13633   3.617   1.260   8.089  0.7336  0.3338 -0.1627
  127OSM   H15F13634   3.691   1.338   8.063  0.5925 -0.2727 -2.5555
  127OSM   H15G13635   3.646   1.154   8.075  0.9908 -0.2410  3.6572
  127OSM   C16F13636   3.596   1.287   8.239 -0.7262  0.2643  0.0406
  127OSM   H16F13637   3.505   1.230   8.271 -0.4377  1.3444  3.1527
  127OSM   H16G13638   3.585   1.396   8.256 -0.6662  0.9580 -3.6477
  127OSM   C17F13639   3.711   1.238   8.324 -0.9231 -0.0120 -0.3001
  127OSM   H17F13640   3.689   1.257   8.431  0.2911 -2.5650  0.4574
  127OSM   H17G13641   3.800   1.301   8.303 -1.0127  1.0988  2.3269
  127OSM   C18F13642   3.761   1.089   8.288 -0.3520  0.0411 -0.6089
  127OSM   H18F13643   3.675   1.025   8.318 -0.7607  0.0505 -1.7069
  127OSM   H18G13644   3.839   1.057   8.359 -1.6656 -1.8923  0.0646
  127OSM   H18H13645   3.791   1.084   8.181 -1.7232  1.2393 -1.0864
  128OSM      N13646   2.865   5.490   6.024  0.1778  0.8671  0.4207
  128OSM    C1513647   2.752   5.483   5.929 -0.6717  1.1724  0.6983
  128OSM   H15A13648   2.669   5.425   5.966 -1.9747 -0.0868 -3.5616
  128OSM   H15B13649   2.778   5.441   5.833  0.2416  0.9370  1.0398
  128OSM   H15C13650   2.708   5.580   5.911 -1.9651  0.4605 -0.1618
  128OSM    C1413651   2.894   5.344   6.060 -0.3270 -0.3448 -0.2066
  128OSM   H14A13652   2.911   5.283   5.973  0.0631 -2.3158  1.1666
  128OSM   H14B13653   2.809   5.316   6.120  0.1213  0.5925  0.9009
  128OSM   H14C13654   2.974   5.326   6.130 -1.4121  1.4660  1.6289
  128OSM    C1313655   2.986   5.548   5.964  0.1009 -0.1399  0.6484
  128OSM   H13A13656   3.039   5.576   6.054 -1.7278  0.7769  1.4992
  128OSM   H13B13657   2.969   5.635   5.902  1.2718 -0.4390 -0.1292
  128OSM   H13C13658   3.047   5.482   5.905 -0.2685 -0.9186  1.1201
  128OSM    C1213659   2.835   5.564   6.157  0.3373 -0.1575  1.3381
  128OSM   H12A13660   2.841   5.668   6.126  0.3288 -1.2342 -2.9014
  128OSM   H12B13661   2.909   5.545   6.233  0.6617 -0.3734  0.9701
  128OSM    C1113662   2.696   5.536   6.210  0.3246 -0.2012  0.4397
  128OSM   H11A13663   2.619   5.574   6.139 -1.7850  0.8439  3.1540
  128OSM   H11B13664   2.676   5.587   6.306  0.8773 -1.2729  1.1365
  128OSM      P13665   2.523   5.329   6.240 -0.1994  0.3347  0.1433
  128OSM    O1313666   2.431   5.393   6.146 -0.9203  0.3051 -0.1223
  128OSM    O1413667   2.534   5.178   6.234 -0.2070 -0.7056  0.2616
  128OSM    O1113668   2.480   5.367   6.391 -0.1187 -0.1699 -0.1439
  128OSM    O1213669   2.666   5.398   6.227 -0.1996  0.4517 -0.3642
  128OSM    C1S13670   2.591   5.353   6.487 -0.5072  0.2325  0.4583
  128OSM    H1S13671   2.657   5.442   6.476 -0.9754  0.5796  0.4121
  128OSM    H1T13672   2.650   5.259   6.479 -3.0899 -1.5835  1.4099
  128OSM     NF13673   2.644   5.342   6.726  0.1532  0.3432  0.0832
  128OSM    HNF13674   2.652   5.265   6.789 -3.0615  0.4944  0.8315
  128OSM    C2S13675   2.541   5.339   6.632  0.3610  0.7732  0.3548
  128OSM    H2S13676   2.471   5.418   6.669  0.2750  0.7625  0.2149
  128OSM    C3S13677   2.448   5.216   6.641  0.0283  0.2332  0.2178
  128OSM    H3S13678   2.512   5.126   6.632 -0.1728  0.2264 -1.3346
  128OSM     O313679   2.350   5.197   6.544  0.2743  0.2055  0.5932
  128OSM    HO313680   2.363   5.270   6.483 -0.5660  0.0557  0.2217
  128OSM    C4S13681   2.371   5.214   6.774 -0.5019 -0.1093  0.2598
  128OSM    H4S13682   2.354   5.311   6.823 -0.8867 -1.1576  2.3099
  128OSM    C5S13683   2.344   5.102   6.845  0.2192 -0.5147  0.1421
  128OSM    H5S13684   2.382   5.002   6.821 -0.2395 -1.3421  2.5507
  128OSM    C6S13685   2.273   5.126   6.979 -0.0457  0.0538  0.0655
  128OSM    H6S13686   2.169   5.159   6.958 -0.9623 -1.5245  1.8581
  128OSM    H6T13687   2.318   5.204   7.045  0.3614  0.0906 -0.2488
  128OSM    C7S13688   2.278   5.000   7.071 -0.1392  0.0584 -0.0795
  128OSM    H7S13689   2.384   4.972   7.089 -0.1569  1.0478  1.7510
  128OSM    H7T13690   2.220   4.912   7.036  2.3426 -1.8409  0.3414
  128OSM    C8S13691   2.210   5.044   7.202 -0.3743  0.3563  0.5257
  128OSM    H8S13692   2.102   5.069   7.190 -0.3737  0.8959  1.5565
  128OSM    H8T13693   2.260   5.139   7.227  1.4870  0.4773 -3.0468
  128OSM    C9S13694   2.248   4.943   7.318  0.3359 -0.1518  0.5311
  128OSM    H9S13695   2.358   4.932   7.325  0.3163 -0.3270  0.5622
  128OSM    H9T13696   2.211   4.841   7.295 -0.3467  0.6404 -2.4091
  128OSM   C10S13697   2.187   4.979   7.455 -0.1168  0.2176 -0.1234
  128OSM   H10S13698   2.081   4.946   7.457 -0.5709  1.6737  1.6853
  128OSM   H10T13699   2.188   5.089   7.469  0.7640  0.7666 -3.4985
  128OSM   C11S13700   2.249   4.888   7.556  0.0445  0.0802 -0.7024
  128OSM   H11S13701   2.360   4.888   7.554  0.1560  0.8679  1.8015
  128OSM   H11T13702   2.209   4.787   7.534  0.9418  0.0115 -2.1802
  128OSM   C12S13703   2.212   4.924   7.704  0.5052  0.5511  0.1286
  128OSM   H12S13704   2.103   4.909   7.721  0.6685 -1.9446 -0.6075
  128OSM   H12T13705   2.243   5.024   7.738 -1.4063  0.8556  1.1549
  128OSM   C13S13706   2.263   4.813   7.805  0.4388  0.7120  0.0548
  128OSM   H13S13707   2.371   4.801   7.779  0.1538 -1.5227 -0.2669
  128OSM   H13T13708   2.209   4.719   7.781 -0.0703  0.3917  2.2849
  128OSM   C14S13709   2.244   4.852   7.947  0.2956 -0.6077 -0.9624
  128OSM   H14S13710   2.133   4.851   7.955  0.2697 -0.5977 -1.2788
  128OSM   H14T13711   2.281   4.955   7.965 -3.0186  0.4914  0.2057
  128OSM   C15S13712   2.314   4.747   8.035  0.2541 -0.0544 -0.0429
  128OSM   H15S13713   2.421   4.752   8.006  0.2319 -2.0251 -0.6075
  128OSM   H15T13714   2.278   4.649   7.999 -0.9387 -0.4046  1.9961
  128OSM   C16S13715   2.284   4.764   8.184 -0.7019  0.4457 -0.6390
  128OSM   H16S13716   2.343   4.851   8.219  1.1189 -1.5737  1.6690
  128OSM   H16T13717   2.328   4.672   8.228  1.1334  2.4801  2.0855
  128OSM   C17S13718   2.141   4.788   8.209  0.0338 -0.2218 -0.1081
  128OSM   H17S13719   2.100   4.877   8.157  0.4338  1.2096  1.9172
  128OSM   H17T13720   2.133   4.813   8.316 -0.4052 -3.2539  0.6645
  128OSM   C18S13721   2.060   4.655   8.190 -0.0935  0.0265 -0.3666
  128OSM   H18S13722   2.112   4.566   8.231 -0.6226 -0.2202 -0.2215
  128OSM   H18T13723   2.053   4.624   8.083  7.1556 -2.1702 -0.7794
  128OSM   H18U13724   1.967   4.667   8.249  0.3926  1.8929  0.0819
  128OSM    C1F13725   2.713   5.451   6.753  0.5008 -0.1026 -0.7552
  128OSM     OF13726   2.701   5.553   6.686 -0.5309 -0.8017  0.1214
  128OSM    C2F13727   2.830   5.441   6.847  0.3815 -0.0020  0.1593
  128OSM    H2F13728   2.919   5.408   6.789  1.8166  2.4750  0.8167
  128OSM    H2G13729   2.806   5.362   6.922  0.3222 -0.0255  0.1157
  128OSM    C3F13730   2.864   5.572   6.921  0.4528 -0.5401 -0.8182
  128OSM    H3F13731   2.782   5.599   6.990  1.1495  1.0631 -0.5866
  128OSM    H3G13732   2.892   5.656   6.853  0.7695  1.1210  1.2697
  128OSM    C4F13733   2.985   5.546   7.009 -0.2421 -0.2995 -0.0498
  128OSM    H4F13734   3.063   5.522   6.935  0.6402 -0.7126  0.9909
  128OSM    H4G13735   2.950   5.461   7.073 -0.4022  0.0321  0.3059
  128OSM    C5F13736   3.020   5.665   7.100 -0.0553  0.7728  0.1751
  128OSM    H5F13737   3.051   5.756   7.044 -1.3023  1.3842  0.4538
  128OSM    H5G13738   3.107   5.633   7.161  0.2155  1.7718  0.3249
  128OSM    C6F13739   2.911   5.708   7.202  0.0641  0.8010  1.0791
  128OSM    H6F13740   2.872   5.611   7.237  1.1410 -0.5118 -1.1424
  128OSM    H6G13741   2.832   5.763   7.147  1.2325  2.4438  0.9635
  128OSM    C7F13742   2.965   5.797   7.316  0.0244  0.0479  0.1696
  128OSM    H7F13743   3.011   5.889   7.275  0.5557  0.9998  2.7459
  128OSM    H7G13744   3.048   5.736   7.359  0.4297 -0.1580 -0.8666
  128OSM    C8F13745   2.860   5.827   7.423 -0.1639 -0.8495  0.5008
  128OSM    H8F13746   2.823   5.730   7.463  3.1872 -2.1555  0.7999
  128OSM    H8G13747   2.778   5.869   7.360  0.6157 -1.4000 -0.9486
  128OSM    C9F13748   2.909   5.931   7.521 -0.2013  0.2016  0.0724
  128OSM    H9F13749   2.899   6.036   7.491 -2.3265  0.3635  1.1279
  128OSM   C10F13750   2.953   5.903   7.645 -0.4205  0.5617 -0.0642
  128OSM   H10F13751   2.998   5.982   7.707 -2.3357 -0.4334  2.8134
  128OSM   C11F13752   2.963   5.771   7.712 -0.2149  0.3350 -0.5710
  128OSM   H11F13753   3.068   5.747   7.738  0.0043 -1.9078 -3.0991
  128OSM   H11G13754   2.925   5.685   7.652 -0.9766  0.4943 -0.3369
  128OSM   C12F13755   2.880   5.778   7.839 -0.1391 -0.1989  0.2279
  128OSM   H12F13756   2.860   5.681   7.890  0.0486  0.4565  1.6122
  128OSM   H12G13757   2.782   5.825   7.820  0.6249  1.5548  0.4153
  128OSM   C13F13758   2.960   5.850   7.949  0.7848  0.0206 -0.4276
  128OSM   H13F13759   3.024   5.935   7.916  2.1100  0.5785  3.1118
  128OSM   H13G13760   3.045   5.796   7.994  0.5501  1.1018  1.4481
  128OSM   C14F13761   2.861   5.894   8.062 -0.2484 -0.6241  0.8675
  128OSM   H14F13762   2.824   5.798   8.106 -0.9435 -0.2086  1.2127
  128OSM   H14G13763   2.782   5.954   8.012 -0.1611 -1.4612 -0.2981
  128OSM   C15F13764   2.935   5.969   8.169 -0.1270  0.9163 -0.4273
  128OSM   H15F13765   2.964   6.066   8.124  0.6707  0.8551 -0.0667
  128OSM   H15G13766   3.025   5.905   8.187  0.1306  1.9404  2.4256
  128OSM   C16F13767   2.859   5.965   8.309 -0.9045 -0.3221  0.2254
  128OSM   H16F13768   2.799   5.872   8.315 -1.0857 -0.1278  2.1786
  128OSM   H16G13769   2.801   6.059   8.319  1.1158  1.2695 -1.9510
  128OSM   C17F13770   2.956   5.930   8.428 -0.6579  0.1332  0.6816
  128OSM   H17F13771   3.041   6.000   8.433 -0.1999 -0.0627 -2.2519
  128OSM   H17G13772   2.996   5.828   8.406 -0.5572  0.5534 -1.3554
  128OSM   C18F13773   2.888   5.934   8.562  0.0108  0.1375  0.2951
  128OSM   H18F13774   2.950   5.919   8.653 -1.7128  0.6115  1.6044
  128OSM   H18G13775   2.789   5.889   8.586 -0.6395  0.7548 -1.1028
  128OSM   H18H13776   2.873   6.044   8.570  0.4542  0.1294  1.6586
  129OSM      N13777   1.914   6.444   6.152  0.1279 -0.1805 -0.1150
  129OSM    C1513778   1.865   6.393   6.292 -0.1567  0.1014  0.6559
  129OSM   H15A13779   1.856   6.286   6.281 -0.1192  0.0910  0.7265
  129OSM   H15B13780   1.766   6.430   6.312 -0.0869 -0.7673  2.8915
  129OSM   H15C13781   1.924   6.420   6.378 -0.8102  0.1521  1.0955
  129OSM    C1413782   1.818   6.401   6.044  0.2228 -0.4263  0.1095
  129OSM   H14A13783   1.843   6.464   5.960 -0.8847  1.5295  1.1753
  129OSM   H14B13784   1.712   6.412   6.064 -0.1232 -0.9500 -1.2650
  129OSM   H14C13785   1.832   6.299   6.012  0.9399 -0.3353  0.1299
  129OSM    C1313786   1.914   6.597   6.156 -0.9859  0.2389 -1.1141
  129OSM   H13A13787   1.933   6.656   6.068 -0.6810  2.4817  0.3763
  129OSM   H13B13788   1.996   6.619   6.223 -1.5464 -0.2381 -0.2428
  129OSM   H13C13789   1.821   6.631   6.199  0.8793  3.6843  0.6275
  129OSM    C1213790   2.052   6.386   6.109  0.2269  0.2465 -0.5361
  129OSM   H12A13791   2.062   6.446   6.019 -1.3690 -0.1138 -0.9859
  129OSM   H12B13792   2.040   6.283   6.081  3.8994 -0.0595 -1.4970
  129OSM    C1113793   2.173   6.407   6.200 -0.1329  0.9614  0.2331
  129OSM   H11A13794   2.263   6.355   6.161 -0.8312  0.6219 -0.9836
  129OSM   H11B13795   2.146   6.359   6.296 -0.9704 -1.8171 -1.2884
  129OSM      P13796   2.330   6.582   6.290 -0.4709 -0.2207  0.0098
  129OSM    O1313797   2.390   6.468   6.363  0.3192  0.0818  0.3180
  129OSM    O1413798   2.427   6.644   6.200 -0.4876  0.0538 -0.1033
  129OSM    O1113799   2.280   6.692   6.392 -0.7735  0.2753  0.7711
  129OSM    O1213800   2.202   6.545   6.213 -0.6957 -0.2953  0.2416
  129OSM    C1S13801   2.143   6.685   6.436  0.0789 -0.0562  0.3279
  129OSM    H1S13802   2.096   6.593   6.395 -0.3516  0.7665 -1.0934
  129OSM    H1T13803   2.081   6.763   6.388  1.6255  0.6472 -0.6205
  129OSM     NF13804   1.999   6.640   6.641 -0.0929  0.3400  0.5837
  129OSM    HNF13805   1.948   6.696   6.706 -1.3150  1.5128 -1.2808
  129OSM    C2S13806   2.135   6.681   6.593 -0.3419 -0.6131  0.0439
  129OSM    H2S13807   2.204   6.604   6.632  1.0856  0.6411  0.0893
  129OSM    C3S13808   2.176   6.825   6.651  0.5415 -0.0753 -0.1605
  129OSM    H3S13809   2.096   6.891   6.610 -2.3016 -2.6904  0.8806
  129OSM     O313810   2.298   6.863   6.591 -0.5721  0.1686  0.2402
  129OSM    HO313811   2.308   6.806   6.515  2.2433  0.8205 -0.0147
  129OSM    C4S13812   2.169   6.843   6.803  0.1217  0.7421  1.2478
  129OSM    H4S13813   2.067   6.850   6.845 -0.0537  0.2422  0.9193
  129OSM    C5S13814   2.268   6.826   6.889  1.0796  0.4774 -0.0883
  129OSM    H5S13815   2.363   6.796   6.842 -0.8702 -2.3837 -2.5776
  129OSM    C6S13816   2.254   6.843   7.038  0.4784  0.1075  0.5619
  129OSM    H6S13817   2.347   6.901   7.056 -0.6303  2.3618 -0.6004
  129OSM    H6T13818   2.274   6.749   7.092  1.7245  1.1849  2.0473
  129OSM    C7S13819   2.136   6.924   7.108 -0.8254 -0.0641 -0.6404
  129OSM    H7S13820   2.096   7.006   7.046  1.3294  1.3492 -0.2642
  129OSM    H7T13821   2.188   6.973   7.193 -1.6402 -0.2765 -0.0041
  129OSM    C8S13822   2.015   6.848   7.157  0.6418  0.6028  0.9036
  129OSM    H8S13823   2.057   6.762   7.214  0.6346  1.1750  1.7913
  129OSM    H8T13824   1.950   6.797   7.082  1.1687  1.3482 -0.0801
  129OSM    C9S13825   1.918   6.924   7.244  0.4349 -0.1910  0.3974
  129OSM    H9S13826   1.913   7.026   7.202 -2.8586 -1.1337 -1.8731
  129OSM    H9T13827   1.950   6.933   7.350 -1.4156  1.0112  0.8995
  129OSM   C10S13828   1.781   6.863   7.262 -0.1547  0.1531 -0.1590
  129OSM   H10S13829   1.801   6.754   7.264  0.6468  0.2734 -1.0630
  129OSM   H10T13830   1.720   6.886   7.172  1.0315  0.1730 -0.9799
  129OSM   C11S13831   1.706   6.916   7.380 -0.4654 -0.3993 -0.0865
  129OSM   H11S13832   1.676   7.021   7.359  0.5173 -0.4380 -1.9755
  129OSM   H11T13833   1.770   6.933   7.469 -1.3010 -0.4898  0.5372
  129OSM   C12S13834   1.579   6.835   7.413  0.6753 -0.1865 -0.4661
  129OSM   H12S13835   1.506   6.840   7.330 -0.4727 -1.2063  0.4371
  129OSM   H12T13836   1.533   6.887   7.500 -1.2291  0.7307 -1.9477
  129OSM   C13S13837   1.604   6.688   7.458 -0.2779 -0.3895  0.7719
  129OSM   H13S13838   1.663   6.634   7.380  0.5868  0.1611  1.0289
  129OSM   H13T13839   1.510   6.629   7.466 -0.6395  0.2373  1.2284
  129OSM   C14S13840   1.668   6.674   7.604 -0.3102 -1.0065 -0.1641
  129OSM   H14S13841   1.609   6.730   7.680 -0.1334 -1.1106  0.0515
  129OSM   H14T13842   1.763   6.731   7.599  0.3738 -2.1396 -0.4075
  129OSM   C15S13843   1.684   6.527   7.645  0.1429 -0.7604  0.4130
  129OSM   H15S13844   1.729   6.460   7.568  1.6269  0.5028  0.1462
  129OSM   H15T13845   1.579   6.492   7.660  0.4627 -1.0215  2.3656
  129OSM   C16S13846   1.758   6.504   7.774  0.0199 -0.5948 -0.7261
  129OSM   H16S13847   1.850   6.566   7.766  0.1646 -0.4785  1.2297
  129OSM   H16T13848   1.779   6.395   7.783 -1.9804 -0.9103  0.9794
  129OSM   C17S13849   1.685   6.543   7.907  0.1814 -0.0076 -0.4164
  129OSM   H17S13850   1.585   6.494   7.897  0.3775 -0.2409 -1.2687
  129OSM   H17T13851   1.670   6.652   7.901 -0.4704 -0.0814 -0.2608
  129OSM   C18S13852   1.749   6.510   8.038  0.0042 -0.0009  0.5314
  129OSM   H18S13853   1.847   6.560   8.054  0.2190 -0.5055  0.8006
  129OSM   H18T13854   1.775   6.402   8.038  2.3814  0.4504 -1.7727
  129OSM   H18U13855   1.683   6.539   8.122 -1.1615 -0.7930 -0.0830
  129OSM    C1F13856   1.963   6.513   6.626  0.2399 -0.7986 -0.2327
  129OSM     OF13857   2.041   6.432   6.573 -0.1868 -0.2324  0.1307
  129OSM    C2F13858   1.833   6.470   6.682  0.6870 -0.3185 -1.1197
  129OSM    H2F13859   1.769   6.413   6.612 -0.0539 -1.4608  0.4237
  129OSM    H2G13860   1.776   6.559   6.715 -0.9407 -1.0184 -1.9012
  129OSM    C3F13861   1.835   6.378   6.807 -0.1844 -0.2055 -0.6001
  129OSM    H3F13862   1.894   6.289   6.776  2.7989  0.4414  2.5015
  129OSM    H3G13863   1.732   6.349   6.836  0.8527 -2.5449  1.1613
  129OSM    C4F13864   1.911   6.441   6.925  0.6297 -0.1791  0.2064
  129OSM    H4F13865   1.859   6.531   6.964  0.3486 -0.6343  0.9088
  129OSM    H4G13866   2.008   6.485   6.893 -0.2756  2.4770  0.8227
  129OSM    C5F13867   1.944   6.336   7.035  0.0594 -0.0575  0.2653
  129OSM    H5F13868   2.016   6.256   7.006  1.4838  1.3664 -0.2828
  129OSM    H5G13869   1.858   6.278   7.076  1.6642 -1.1747  2.2756
  129OSM    C6F13870   2.011   6.399   7.160 -0.5692 -0.0971  0.1954
  129OSM    H6F13871   1.951   6.492   7.174  0.4763  0.7202 -0.6171
  129OSM    H6G13872   2.112   6.431   7.128 -0.6611 -0.7188 -0.7662
  129OSM    C7F13873   1.999   6.313   7.294 -0.2769 -0.0729 -0.3873
  129OSM    H7F13874   2.031   6.209   7.272 -1.1948 -0.6676  0.9522
  129OSM    H7G13875   1.893   6.319   7.328  0.1643 -1.2794  1.3062
  129OSM    C8F13876   2.086   6.358   7.413 -0.0676 -0.7321 -0.2099
  129OSM    H8F13877   2.193   6.347   7.385  0.0376  2.1938 -1.4388
  129OSM    H8G13878   2.053   6.294   7.497 -2.7483  3.0221  1.9246
  129OSM    C9F13879   2.053   6.505   7.459 -0.2989  0.1398 -0.5458
  129OSM    H9F13880   1.957   6.554   7.439  0.0637  0.8953 -0.4811
  129OSM   C10F13881   2.130   6.568   7.545 -0.0616 -0.0160  0.6646
  129OSM   H10F13882   2.111   6.673   7.573 -0.0401 -0.0534  0.8214
  129OSM   C11F13883   2.256   6.525   7.608 -0.7662 -0.4776 -0.1499
  129OSM   H11F13884   2.337   6.539   7.533 -1.8131  0.4121 -1.1574
  129OSM   H11G13885   2.258   6.415   7.622  3.1718 -0.6784 -0.9979
  129OSM   C12F13886   2.295   6.598   7.740 -0.4765 -0.2872 -0.3115
  129OSM   H12F13887   2.304   6.707   7.720  0.6024 -0.6600 -2.0334
  129OSM   H12G13888   2.393   6.549   7.762  0.2973 -0.0499 -2.8867
  129OSM   C13F13889   2.210   6.567   7.864 -0.5865 -0.2050  0.3195
  129OSM   H13F13890   2.102   6.589   7.850 -0.6646 -0.5505  0.3784
  129OSM   H13G13891   2.251   6.633   7.944 -0.5078 -0.1767  0.2564
  129OSM   C14F13892   2.222   6.415   7.898 -0.4707  0.5375 -1.0642
  129OSM   H14F13893   2.325   6.374   7.900 -0.8269 -0.3363  0.0110
  129OSM   H14G13894   2.164   6.357   7.823  0.8870 -0.0215 -1.7108
  129OSM   C15F13895   2.156   6.390   8.032  0.0112  0.1737 -0.3598
  129OSM   H15F13896   2.140   6.281   8.044 -0.0337 -0.0098 -1.8891
  129OSM   H15G13897   2.051   6.426   8.020  0.3015  0.5797 -1.8617
  129OSM   C16F13898   2.233   6.438   8.153 -0.2293  0.1677 -0.0654
  129OSM   H16F13899   2.279   6.537   8.133  1.4574 -0.3820  0.8983
  129OSM   H16G13900   2.316   6.364   8.159 -0.9893 -0.5950  2.0802
  129OSM   C17F13901   2.163   6.422   8.282 -0.6976  0.1298  0.4076
  129OSM   H17F13902   2.129   6.320   8.310 -2.7647  0.3949 -0.8929
  129OSM   H17G13903   2.064   6.472   8.291 -0.0813  1.6393 -0.8660
  129OSM   C18F13904   2.258   6.462   8.396  0.2945  0.2574 -0.2305
  129OSM   H18F13905   2.352   6.403   8.391 -0.0980 -0.3152 -1.1856
  129OSM   H18G13906   2.216   6.446   8.498  0.5578  1.3326  0.0639
  129OSM   H18H13907   2.273   6.572   8.404  0.3121  0.1344  2.4989
  130OSM      N13908   3.129   4.361   6.438  0.0432 -0.0924 -0.1110
  130OSM    C1513909   3.033   4.403   6.321 -0.9175 -0.3734  0.4411
  130OSM   H15A13910   2.967   4.320   6.298 -1.0147 -0.1110 -0.2392
  130OSM   H15B13911   3.099   4.423   6.239 -1.7545  1.7508  0.2124
  130OSM   H15C13912   2.975   4.490   6.348 -0.5388 -0.5757  2.0324
  130OSM    C1413913   3.198   4.486   6.493  0.4157 -0.5527  0.1907
  130OSM   H14A13914   3.267   4.453   6.569 -1.1114 -1.8724  1.0643
  130OSM   H14B13915   3.126   4.556   6.532  0.8890 -0.2951  0.6072
  130OSM   H14C13916   3.240   4.532   6.405  0.0533 -1.3585 -0.4206
  130OSM    C1313917   3.048   4.301   6.542 -0.3254  1.0409  0.0165
  130OSM   H13A13918   2.965   4.362   6.577 -0.6699 -0.1771  1.4573
  130OSM   H13B13919   3.103   4.275   6.631 -1.7435 -1.0427  0.3717
  130OSM   H13C13920   2.997   4.215   6.499  0.5692  0.2905  0.4217
  130OSM    C1213921   3.238   4.265   6.388 -0.3659  0.4713 -0.3428
  130OSM   H12A13922   3.318   4.269   6.461 -0.9412 -0.5701  0.3677
  130OSM   H12B13923   3.275   4.306   6.296  0.8895  1.8644  0.7349
  130OSM    C1113924   3.203   4.117   6.377  0.5092  0.6635  0.6261
  130OSM   H11A13925   3.156   4.082   6.471  0.4409 -1.3153 -0.0880
  130OSM   H11B13926   3.291   4.048   6.372 -0.2514 -0.2490 -1.1110
  130OSM      P13927   2.976   4.001   6.261 -0.2557  0.0288  0.1358
  130OSM    O1313928   2.859   4.094   6.243 -0.2224  0.0885 -0.0049
  130OSM    O1413929   2.979   3.879   6.175 -0.5363  0.0932  0.0058
  130OSM    O1113930   2.971   3.949   6.417 -0.1133  0.8657  0.2666
  130OSM    O1213931   3.111   4.088   6.265  0.6976 -0.8742 -0.4238
  130OSM    C1S13932   2.840   3.951   6.469  0.1433  0.2438  0.3073
  130OSM    H1S13933   2.767   3.890   6.411  0.4845 -1.5199  1.6463
  130OSM    H1T13934   2.802   4.054   6.486 -0.2946 -0.0032  0.8737
  130OSM     NF13935   2.717   3.921   6.670  0.4670  0.0413  1.3165
  130OSM    HNF13936   2.718   4.000   6.731  1.3082  1.1895 -0.1259
  130OSM    C2S13937   2.837   3.885   6.605 -0.2029  1.1278  0.3271
  130OSM    H2S13938   2.856   3.775   6.598 -0.9372  0.9327  1.2442
  130OSM    C3S13939   2.959   3.934   6.689  0.0381 -0.9275 -0.2182
  130OSM    H3S13940   2.965   4.043   6.672  2.1440 -0.2574  3.7028
  130OSM     O313941   3.088   3.891   6.651 -0.7087  0.5425 -0.5637
  130OSM    HO313942   3.078   3.861   6.560 -0.8170 -0.5301 -0.2042
  130OSM    C4S13943   2.935   3.894   6.836 -0.5447  0.2784 -0.2670
  130OSM    H4S13944   2.866   3.958   6.893 -0.7421 -0.7419  0.6794
  130OSM    C5S13945   3.006   3.796   6.908  0.0981 -0.4427 -0.1052
  130OSM    H5S13946   3.082   3.734   6.858  1.1637  0.3410  0.5263
  130OSM    C6S13947   2.983   3.777   7.058 -0.0212 -0.1463 -0.1559
  130OSM    H6S13948   3.074   3.733   7.104  0.8721  1.2064 -0.5600
  130OSM    H6T13949   2.898   3.709   7.082  0.4614 -0.8930 -0.5221
  130OSM    C7S13950   2.954   3.900   7.144  0.1507 -0.5265  0.0493
  130OSM    H7S13951   2.858   3.943   7.110  1.5288  1.3614 -1.7318
  130OSM    H7T13952   3.025   3.982   7.118 -0.8703  1.1992  2.3433
  130OSM    C8S13953   2.957   3.884   7.301  0.4695  0.1647  0.2670
  130OSM    H8S13954   2.943   3.987   7.339  2.5613  0.0637  1.4705
  130OSM    H8T13955   3.056   3.851   7.341  0.7470 -0.8050 -1.1160
  130OSM    C9S13956   2.852   3.780   7.346  0.0313  0.4474  0.2103
  130OSM    H9S13957   2.903   3.682   7.361 -0.6543  0.0659  0.0536
  130OSM    H9T13958   2.768   3.765   7.276 -1.5019  1.0505  1.8515
  130OSM   C10S13959   2.764   3.838   7.464 -0.1042  0.5762 -0.4986
  130OSM   H10S13960   2.722   3.936   7.433  0.9217  1.0902 -0.2967
  130OSM   H10T13961   2.833   3.869   7.546  0.7212 -1.2112 -0.4572
  130OSM   C11S13962   2.664   3.735   7.525 -0.5075  0.0203 -0.2813
  130OSM   H11S13963   2.590   3.719   7.443 -1.1343 -0.0867  0.3020
  130OSM   H11T13964   2.610   3.785   7.608 -2.1869  0.0843 -1.3524
  130OSM   C12S13965   2.723   3.595   7.555  0.5860 -0.1479  0.2596
  130OSM   H12S13966   2.818   3.591   7.612  0.7129 -0.3974  0.0302
  130OSM   H12T13967   2.745   3.538   7.462  1.7163  0.3246  0.2182
  130OSM   C13S13968   2.621   3.499   7.632 -0.2607 -0.8352 -0.5104
  130OSM   H13S13969   2.652   3.396   7.603  0.9421 -0.5728 -0.2178
  130OSM   H13T13970   2.517   3.521   7.600  0.6263  1.0390 -2.3113
  130OSM   C14S13971   2.640   3.530   7.785  0.6479  0.2609  0.6188
  130OSM   H14S13972   2.605   3.630   7.817 -1.0990 -0.4343  0.9774
  130OSM   H14T13973   2.747   3.530   7.816  1.1968 -0.1779 -1.1323
  130OSM   C15S13974   2.587   3.422   7.881 -0.1242 -0.4172 -0.3017
  130OSM   H15S13975   2.634   3.327   7.848 -2.0627 -2.1447  1.5782
  130OSM   H15T13976   2.477   3.417   7.868 -0.1630  2.0599 -1.6349
  130OSM   C16S13977   2.626   3.464   8.023  0.4337  0.4802 -0.7387
  130OSM   H16S13978   2.592   3.569   8.037  3.6700  1.4597  0.7588
  130OSM   H16T13979   2.736   3.461   8.034  0.6978 -0.3120 -3.0783
  130OSM   C17S13980   2.562   3.377   8.136  0.0666  0.8426 -1.7411
  130OSM   H17S13981   2.456   3.355   8.109 -0.3088 -1.0688  0.9068
  130OSM   H17T13982   2.566   3.427   8.235  0.2764 -1.9654 -0.2523
  130OSM   C18S13983   2.638   3.241   8.151 -0.2598 -0.2837  0.0893
  130OSM   H18S13984   2.745   3.273   8.153 -0.4375  0.3425 -0.1550
  130OSM   H18T13985   2.614   3.201   8.050 -4.9284  1.4332  0.2565
  130OSM   H18U13986   2.601   3.175   8.232 -0.7079 -1.1625 -0.8194
  130OSM    C1F13987   2.602   3.861   6.637 -0.1070  0.2436  0.5426
  130OSM     OF13988   2.600   3.762   6.560  0.7769  0.1126 -0.4457
  130OSM    C2F13989   2.477   3.919   6.705  0.4698  0.4351  0.2808
  130OSM    H2F13990   2.497   4.025   6.732 -0.8816  0.1038  2.8739
  130OSM    H2G13991   2.452   3.864   6.798 -0.1137  0.2495  0.0215
  130OSM    C3F13992   2.358   3.910   6.605 -0.3687 -0.1995 -0.2407
  130OSM    H3F13993   2.330   3.804   6.582 -1.2782  0.2678 -1.4412
  130OSM    H3G13994   2.387   3.945   6.504 -0.5232 -0.7093 -0.4669
  130OSM    C4F13995   2.236   4.000   6.640 -0.2703  0.1338  0.8073
  130OSM    H4F13996   2.149   3.974   6.577  0.7781 -2.1066  0.1779
  130OSM    H4G13997   2.268   4.106   6.631 -0.4851  0.3604  2.3952
  130OSM    C5F13998   2.192   3.983   6.788  0.3332 -0.5479  0.2268
  130OSM    H5F13999   2.115   4.061   6.808 -0.3923 -1.3302  0.5455
  130OSM    H5G14000   2.281   4.014   6.847  1.3388 -0.2651 -1.3999
  130OSM    C6F14001   2.133   3.846   6.824 -0.2583  0.2296  0.4974
  130OSM    H6F14002   2.217   3.776   6.843 -0.3667  0.7731  3.2752
  130OSM    H6G14003   2.060   3.806   6.749 -0.8763  0.5474  0.9205
  130OSM    C7F14004   2.066   3.850   6.961  0.2083  0.2542 -0.7015
  130OSM    H7F14005   1.988   3.927   6.977  1.4817  1.7535 -1.4350
  130OSM    H7G14006   2.152   3.880   7.024 -0.8023  1.2106  0.2632
  130OSM    C8F14007   2.027   3.702   7.009  0.1119  0.0058  0.1063
  130OSM    H8F14008   2.003   3.717   7.117  0.7385 -1.3334  0.4444
  130OSM    H8G14009   2.117   3.637   7.007  2.9131  3.5647 -0.9716
  130OSM    C9F14010   1.909   3.644   6.932  0.0142 -0.4732  0.0384
  130OSM    H9F14011   1.935   3.593   6.838 -0.6158 -0.8645  0.0660
  130OSM   C10F14012   1.783   3.670   6.969 -0.2530 -0.5850 -0.3794
  130OSM   H10F14013   1.699   3.635   6.907 -0.5701 -0.9371  0.2329
  130OSM   C11F14014   1.748   3.746   7.097 -0.5009  1.0832  0.6414
  130OSM   H11F14015   1.803   3.841   7.113  2.5995 -0.0458 -2.2774
  130OSM   H11G14016   1.781   3.681   7.181 -0.6762  2.1015  1.5281
  130OSM   C12F14017   1.597   3.784   7.123  0.2028 -0.2243 -0.3109
  130OSM   H12F14018   1.524   3.711   7.081 -1.0815 -0.7355  2.5672
  130OSM   H12G14019   1.595   3.877   7.061 -0.2320  0.6769  1.0107
  130OSM   C13F14020   1.562   3.809   7.270  0.9373 -0.3778 -0.7266
  130OSM   H13F14021   1.465   3.864   7.273  1.0165 -0.2626  1.4183
  130OSM   H13G14022   1.634   3.883   7.312  0.3495  0.1723 -0.6756
  130OSM   C14F14023   1.542   3.691   7.369 -0.3126 -0.3317 -0.0443
  130OSM   H14F14024   1.639   3.636   7.370 -1.3149 -2.1907 -0.0425
  130OSM   H14G14025   1.464   3.620   7.332 -0.9141  0.2473  0.1014
  130OSM   C15F14026   1.503   3.728   7.509 -0.3716  0.1558 -0.3177
  130OSM   H15F14027   1.408   3.785   7.505 -0.1231  0.5880 -0.0847
  130OSM   H15G14028   1.587   3.795   7.537  0.7572 -0.7838 -1.3304
  130OSM   C16F14029   1.508   3.607   7.608 -0.1942 -0.4735 -0.1775
  130OSM   H16F14030   1.607   3.558   7.600 -0.6732 -1.4325 -0.4317
  130OSM   H16G14031   1.424   3.539   7.579 -1.0829 -0.0205  1.2467
  130OSM   C17F14032   1.483   3.647   7.748  0.4003 -0.2881 -0.5523
  130OSM   H17F14033   1.380   3.684   7.762  0.4299 -1.0665  2.2857
  130OSM   H17G14034   1.555   3.725   7.783  0.7986 -1.5437  1.6381
  130OSM   C18F14035   1.503   3.527   7.849  0.0496 -0.1172 -0.0709
  130OSM   H18F14036   1.439   3.443   7.816 -0.7813 -0.4419  2.1909
  130OSM   H18G14037   1.461   3.559   7.947 -1.8326 -2.4382 -0.0258
  130OSM   H18H14038   1.606   3.489   7.858 -0.2133 -0.6753  0.7646
  131OSM      N14039   3.249   1.830   5.786  0.6422 -0.2106  0.2514
  131OSM    C1514040   3.389   1.777   5.777 -0.1841 -0.4147 -0.1222
  131OSM   H15A14041   3.393   1.686   5.719  0.5143 -2.3092  2.6593
  131OSM   H15B14042   3.433   1.766   5.876 -1.2444 -1.6038  0.2518
  131OSM   H15C14043   3.454   1.850   5.732 -2.3064  1.4785 -0.2862
  131OSM    C1414044   3.242   1.953   5.872  0.4973  0.2669 -0.4328
  131OSM   H14A14045   3.146   1.971   5.918  1.8326  1.0454  2.2088
  131OSM   H14B14046   3.274   2.038   5.813 -0.7768  1.4318  0.4808
  131OSM   H14C14047   3.307   1.941   5.957 -1.7837 -2.9972  1.0850
  131OSM    C1314048   3.209   1.871   5.647  0.1950 -0.2570  0.6340
  131OSM   H13A14049   3.202   1.786   5.581  0.6659  0.1188  0.0947
  131OSM   H13B14050   3.274   1.948   5.609 -0.2125  0.0826  0.6195
  131OSM   H13C14051   3.112   1.919   5.652  0.0550 -0.4695  0.0116
  131OSM    C1214052   3.164   1.715   5.840 -0.3180  0.7493  0.3222
  131OSM   H12A14053   3.225   1.682   5.922 -1.2667 -0.9140  0.3871
  131OSM   H12B14054   3.156   1.636   5.767 -4.7527  2.3440 -1.2781
  131OSM    C1114055   3.029   1.760   5.902  0.1325 -0.1530 -0.2345
  131OSM   H11A14056   2.974   1.837   5.844  1.2325  0.7946 -0.0525
  131OSM   H11B14057   3.039   1.809   6.001  1.7413 -0.8124 -0.0374
  131OSM      P14058   2.907   1.567   6.037 -0.0597  0.0922  0.0685
  131OSM    O1314059   2.807   1.467   5.996 -0.4686 -0.1012 -0.0126
  131OSM    O1414060   3.028   1.523   6.107  0.3091 -0.1898  0.1090
  131OSM    O1114061   2.842   1.688   6.106  0.1314  0.3904 -0.4054
  131OSM    O1214062   2.960   1.639   5.905  0.0081  0.4284 -0.8002
  131OSM    C1S14063   2.849   1.702   6.249  0.0146  0.8482  0.0077
  131OSM    H1S14064   2.933   1.653   6.303 -0.5595  0.7418  0.8335
  131OSM    H1T14065   2.755   1.661   6.293  1.2990 -2.4526 -0.0484
  131OSM     NF14066   2.849   1.847   6.438 -0.1564 -0.3954  0.5366
  131OSM    HNF14067   2.756   1.850   6.474  0.1995 -1.6184  1.6665
  131OSM    C2S14068   2.852   1.851   6.292 -0.5065 -0.9072  0.0845
  131OSM    H2S14069   2.951   1.892   6.263  0.0010 -2.5543 -0.5858
  131OSM    C3S14070   2.730   1.923   6.223  0.2298 -0.0406 -0.0940
  131OSM    H3S14071   2.640   1.860   6.235  0.0471  0.0777 -0.7739
  131OSM     O314072   2.742   1.933   6.081 -0.8431  0.5183  0.5625
  131OSM    HO314073   2.817   1.878   6.056 -0.9754  1.0988 -1.2476
  131OSM    C4S14074   2.715   2.055   6.288  0.2284 -0.2223 -0.0969
  131OSM    H4S14075   2.807   2.112   6.310 -0.5657  0.5053  1.4768
  131OSM    C5S14076   2.597   2.115   6.312 -0.0307 -0.0476 -0.4708
  131OSM    H5S14077   2.500   2.066   6.297 -0.3693 -0.2533  1.8990
  131OSM    C6S14078   2.587   2.247   6.377 -0.0805  0.5548  0.2728
  131OSM    H6S14079   2.551   2.325   6.307  0.0330  0.9071  0.6000
  131OSM    H6T14080   2.683   2.292   6.410 -0.5939  1.7798  0.1503
  131OSM    C7S14081   2.505   2.240   6.507  0.1366 -0.5608 -0.0011
  131OSM    H7S14082   2.400   2.216   6.479  0.2905 -0.3933 -0.7281
  131OSM    H7T14083   2.494   2.334   6.564  1.0890 -1.2047  1.3016
  131OSM    C8S14084   2.564   2.137   6.601 -0.4452  0.5874  0.4340
  131OSM    H8S14085   2.671   2.166   6.602 -0.5123  1.4310 -3.0932
  131OSM    H8T14086   2.555   2.032   6.565 -0.5476  0.8343 -0.2860
  131OSM    C9S14087   2.521   2.170   6.746 -0.1251  0.3001 -0.3366
  131OSM    H9S14088   2.411   2.154   6.752 -0.3054  1.7485  0.5906
  131OSM    H9T14089   2.549   2.274   6.771 -0.9404  0.4523 -0.0378
  131OSM   C10S14090   2.583   2.071   6.855  0.0895 -0.1945 -0.0795
  131OSM   H10S14091   2.670   2.011   6.819 -0.7033 -0.3730 -1.7736
  131OSM   H10T14092   2.507   1.997   6.890 -0.6812  0.8416  0.5053
  131OSM   C11S14093   2.631   2.142   6.985 -0.5421 -0.0892 -0.5731
  131OSM   H11S14094   2.560   2.212   7.033  1.8079  0.7376  1.9356
  131OSM   H11T14095   2.712   2.216   6.969 -1.2144  1.0706  1.1343
  131OSM   C12S14096   2.685   2.043   7.085 -0.0468 -0.5657 -0.0573
  131OSM   H12S14097   2.774   1.989   7.045  0.7317  1.5765 -1.4579
  131OSM   H12T14098   2.617   1.956   7.091 -0.6936 -0.0241  0.6580
  131OSM   C13S14099   2.707   2.099   7.220  0.8224 -0.2779 -0.0734
  131OSM   H13S14100   2.623   2.171   7.234  0.2190 -0.1754 -3.4552
  131OSM   H13T14101   2.807   2.148   7.223  1.4959 -1.5545 -1.0912
  131OSM   C14S14102   2.706   1.988   7.326  0.3315  0.0792  0.1913
  131OSM   H14S14103   2.779   1.910   7.292  0.5642  0.3117  0.1564
  131OSM   H14T14104   2.607   1.937   7.318  1.0929 -1.6612  1.1851
  131OSM   C15S14105   2.744   2.037   7.462  0.2695 -0.2249  0.4867
  131OSM   H15S14106   2.844   2.084   7.456 -0.4253  1.7772  2.6721
  131OSM   H15T14107   2.768   1.952   7.529  2.2143  0.0625  0.1951
  131OSM   C16S14108   2.648   2.139   7.527 -0.1958 -0.5611 -0.0267
  131OSM   H16S14109   2.545   2.128   7.488  0.0946  1.3111 -1.4401
  131OSM   H16T14110   2.680   2.244   7.507 -2.3870  0.3210  0.8068
  131OSM   C17S14111   2.633   2.131   7.681 -0.0762  0.1181  0.2053
  131OSM   H17S14112   2.584   2.035   7.705  0.6911  0.1197  1.9644
  131OSM   H17T14113   2.557   2.204   7.716 -0.7233 -0.2401 -0.4377
  131OSM   C18S14114   2.763   2.140   7.763 -0.0282  0.1239 -0.3429
  131OSM   H18S14115   2.751   2.145   7.873 -1.5441 -1.0480 -0.4196
  131OSM   H18T14116   2.824   2.230   7.741  1.4710 -0.5223  1.0253
  131OSM   H18U14117   2.821   2.050   7.731 -1.5942 -0.7672 -0.8003
  131OSM    C1F14118   2.959   1.824   6.508  0.6791  0.5982 -0.0151
  131OSM     OF14119   3.070   1.823   6.456 -0.2081 -0.0259 -0.8788
  131OSM    C2F14120   2.938   1.808   6.658  0.7753  0.6409 -0.6953
  131OSM    H2F14121   2.908   1.703   6.678 -0.3878  1.2486  0.9105
  131OSM    H2G14122   2.848   1.866   6.687 -0.0376  0.0296 -1.8872
  131OSM    C3F14123   3.053   1.863   6.745 -0.1390  0.0977 -0.1760
  131OSM    H3F14124   3.046   1.973   6.737 -0.1208  0.0398 -1.1506
  131OSM    H3G14125   3.150   1.833   6.699  0.2363 -1.4348  1.4708
  131OSM    C4F14126   3.031   1.817   6.886  0.2789 -0.3186 -0.0878
  131OSM    H4F14127   3.081   1.724   6.919 -0.4582  0.1249  2.5663
  131OSM    H4G14128   2.921   1.811   6.898 -0.3446 -0.4190 -4.4769
  131OSM    C5F14129   3.091   1.920   6.979 -0.7418  0.1051 -0.1993
  131OSM    H5F14130   3.050   2.022   6.960 -1.8698  0.3511  2.9824
  131OSM    H5G14131   3.198   1.928   6.952  0.0850 -0.6116  2.5816
  131OSM    C6F14132   3.064   1.887   7.126 -0.6156  0.5589 -0.5141
  131OSM    H6F14133   3.083   1.780   7.146 -2.9442  0.3742  1.1572
  131OSM    H6G14134   2.956   1.906   7.148 -0.7405  0.0350 -0.6686
  131OSM    C7F14135   3.152   1.963   7.221  0.4873 -0.2502  0.0508
  131OSM    H7F14136   3.123   2.068   7.201 -0.4703 -0.6602 -0.7697
  131OSM    H7G14137   3.261   1.951   7.200  0.9334 -1.2688  2.5435
  131OSM    C8F14138   3.137   1.931   7.373 -0.4926 -0.8078 -0.1158
  131OSM    H8F14139   3.158   1.823   7.390  0.6481 -0.8958 -1.8474
  131OSM    H8G14140   3.039   1.959   7.418 -0.2899 -2.1741  1.2300
  131OSM    C9F14141   3.246   1.999   7.455  0.8783  0.1678  0.5890
  131OSM    H9F14142   3.344   2.016   7.410  1.4787  1.1718  2.2092
  131OSM   C10F14143   3.245   2.043   7.580 -1.0211 -0.7609  0.3612
  131OSM   H10F14144   3.335   2.096   7.613 -0.0989  0.4074 -3.5323
  131OSM   C11F14145   3.128   2.032   7.679  0.0782 -0.0566 -0.1923
  131OSM   H11F14146   3.037   2.000   7.624  0.1997  0.2313 -0.5629
  131OSM   H11G14147   3.112   2.133   7.723  1.4543  0.7435 -1.4414
  131OSM   C12F14148   3.157   1.935   7.797 -0.6565 -0.4579 -0.2959
  131OSM   H12F14149   3.072   1.958   7.866  0.4556  0.8186  0.7089
  131OSM   H12G14150   3.252   1.958   7.850 -0.0767 -3.0822 -0.0555
  131OSM   C13F14151   3.158   1.779   7.780 -0.2063  0.2128 -0.3872
  131OSM   H13F14152   3.243   1.749   7.714 -0.3543 -0.6944 -0.1856
  131OSM   H13G14153   3.064   1.757   7.726 -1.0769  0.6980  0.8930
  131OSM   C14F14154   3.164   1.699   7.914 -0.2693  0.1059  0.5161
  131OSM   H14F14155   3.091   1.751   7.978 -1.7853 -0.5737 -0.5950
  131OSM   H14G14156   3.265   1.686   7.959 -0.3298  1.4615  1.1008
  131OSM   C15F14157   3.112   1.555   7.900 -0.0719 -0.9281 -0.0611
  131OSM   H15F14158   3.163   1.503   7.816  1.6361 -0.5311  0.7013
  131OSM   H15G14159   3.001   1.547   7.888 -0.2329 -0.3908  1.0158
  131OSM   C16F14160   3.142   1.476   8.024 -0.6114 -0.3959  0.6860
  131OSM   H16F14161   3.245   1.498   8.059 -0.7591 -0.5640  1.2358
  131OSM   H16G14162   3.146   1.367   8.006 -2.2845 -0.3544 -0.1621
  131OSM   C17F14163   3.056   1.509   8.150  0.5874 -0.4625 -0.1607
  131OSM   H17F14164   2.965   1.446   8.158  0.9807 -1.1292 -0.7571
  131OSM   H17G14165   3.019   1.614   8.145  1.5514 -0.0980  0.1038
  131OSM   C18F14166   3.133   1.505   8.282  0.0897  0.1468  0.5431
  131OSM   H18F14167   3.074   1.536   8.370  0.1174  0.5259  0.4315
  131OSM   H18G14168   3.219   1.574   8.275 -0.3795  0.6298 -0.8590
  131OSM   H18H14169   3.174   1.402   8.292 -0.7778 -0.3262 -0.4522
  132OSM      N14170   4.076   5.170   6.143  0.3009 -0.0744 -0.1793
  132OSM    C1514171   4.170   5.210   6.024 -0.1198  0.7390  0.8639
  132OSM   H15A14172   4.129   5.188   5.926 -0.8576 -1.5178  1.6051
  132OSM   H15B14173   4.249   5.136   6.028 -0.6596 -0.0576 -1.5184
  132OSM   H15C14174   4.205   5.311   6.037  0.0862  0.5523  1.8071
  132OSM    C1414175   4.015   5.035   6.123  0.4666 -0.4416  0.0291
  132OSM   H14A14176   3.918   5.027   6.170 -0.0044 -1.7884 -1.0712
  132OSM   H14B14177   4.091   4.965   6.154  1.7322  0.7569 -0.3195
  132OSM   H14C14178   3.993   5.010   6.020  0.4151 -0.7198  0.1048
  132OSM    C1314179   4.146   5.167   6.276 -0.0332  0.3534  0.3215
  132OSM   H13A14180   4.151   5.063   6.304 -2.2349  0.3367  0.8228
  132OSM   H13B14181   4.097   5.205   6.364 -1.3608 -1.4056  0.3864
  132OSM   H13C14182   4.245   5.210   6.264 -0.6006  2.2659  2.0744
  132OSM    C1214183   3.969   5.278   6.144 -0.2117 -0.2247  0.3254
  132OSM   H12A14184   3.922   5.273   6.047 -0.1763 -0.9522  0.3376
  132OSM   H12B14185   4.021   5.372   6.156  0.8695 -0.4573 -1.9203
  132OSM    C1114186   3.863   5.261   6.255  0.6855  0.3685 -0.5240
  132OSM   H11A14187   3.844   5.154   6.279 -0.7416  0.6258 -0.4425
  132OSM   H11B14188   3.762   5.292   6.221  0.1394  1.3201  1.8186
  132OSM      P14189   3.878   5.484   6.397  0.3438 -0.0320 -0.2931
  132OSM    O1314190   3.998   5.537   6.466 -0.1065  0.0645 -0.2759
  132OSM    O1414191   3.843   5.549   6.271  0.1555  0.0447  0.2080
  132OSM    O1114192   3.753   5.501   6.497 -0.1768 -0.5431  0.0410
  132OSM    O1214193   3.894   5.327   6.382  0.0514  0.4520  0.3091
  132OSM    C1S14194   3.746   5.449   6.635 -0.2798  0.2639 -0.0229
  132OSM    H1S14195   3.840   5.392   6.649 -1.7312 -2.1071  0.6110
  132OSM    H1T14196   3.664   5.375   6.647 -0.3092  0.1502 -0.8672
  132OSM     NF14197   3.722   5.505   6.883 -0.1749 -0.8841 -0.1074
  132OSM    HNF14198   3.635   5.487   6.928  0.0120  0.4014  0.8195
  132OSM    C2S14199   3.723   5.561   6.748  1.2347  0.1123 -0.0211
  132OSM    H2S14200   3.807   5.634   6.740  1.7608  0.1511  3.9153
  132OSM    C3S14201   3.585   5.631   6.714  1.0219  0.0317 -0.2414
  132OSM    H3S14202   3.512   5.552   6.688 -0.5024  1.3398 -0.0276
  132OSM     O314203   3.591   5.702   6.586 -0.5077 -0.2162 -0.1956
  132OSM    HO314204   3.645   5.640   6.535  0.2615 -0.4603  0.8813
  132OSM    C4S14205   3.526   5.729   6.814 -0.1879  0.0852  0.3732
  132OSM    H4S14206   3.559   5.832   6.793  0.3346  0.0910  1.1882
  132OSM    C5S14207   3.425   5.720   6.902  0.0910 -0.1658  0.9397
  132OSM    H5S14208   3.368   5.627   6.916  2.2218 -1.9734 -1.5773
  132OSM    C6S14209   3.363   5.835   6.977 -0.1215 -0.2876  0.2736
  132OSM    H6S14210   3.253   5.842   6.967 -0.2815 -0.1830  1.7481
  132OSM    H6T14211   3.397   5.926   6.923 -1.1040 -1.3297 -2.2454
  132OSM    C7S14212   3.402   5.851   7.129  0.1537 -0.1620 -0.4541
  132OSM    H7S14213   3.357   5.770   7.190  0.3670  1.5141  2.0890
  132OSM    H7T14214   3.368   5.946   7.174 -1.4975  0.2218 -2.4085
  132OSM    C8S14215   3.553   5.852   7.149 -0.6186  0.1611 -0.6841
  132OSM    H8S14216   3.604   5.937   7.100 -0.1060  1.2952  1.6793
  132OSM    H8T14217   3.602   5.762   7.104  1.6461  1.7866 -1.6663
  132OSM    C9S14218   3.595   5.862   7.295 -0.3562 -0.5544  0.2193
  132OSM    H9S14219   3.557   5.961   7.328 -1.1946 -0.4673 -0.9523
  132OSM    H9T14220   3.706   5.872   7.297 -0.5461  2.5211  0.5571
  132OSM   C10S14221   3.550   5.744   7.381  0.0613 -0.2101 -0.1909
  132OSM   H10S14222   3.585   5.658   7.319  1.2835  0.7816 -0.9288
  132OSM   H10T14223   3.439   5.740   7.382 -0.0691 -0.2058 -3.1942
  132OSM   C11S14224   3.618   5.757   7.515  0.1415  0.0231 -0.4152
  132OSM   H11S14225   3.600   5.862   7.547 -0.1558 -0.4501  1.0593
  132OSM   H11T14226   3.725   5.736   7.500  0.3970  1.9148 -1.5316
  132OSM   C12S14227   3.554   5.663   7.614  0.1313  0.2940 -0.1768
  132OSM   H12S14228   3.630   5.613   7.678  0.3992  0.1601 -0.5897
  132OSM   H12T14229   3.509   5.571   7.572  2.4328 -0.8651 -0.2724
  132OSM   C13S14230   3.451   5.719   7.713 -0.2966 -0.3902  0.3161
  132OSM   H13S14231   3.419   5.626   7.764  1.6236 -0.3109  1.7717
  132OSM   H13T14232   3.382   5.774   7.645  0.3637  0.7435  0.5400
  132OSM   C14S14233   3.503   5.810   7.822  0.1802  0.2645  0.6284
  132OSM   H14S14234   3.498   5.915   7.785  2.0597 -0.6903 -2.8166
  132OSM   H14T14235   3.608   5.781   7.842 -0.8197 -3.7322  0.9892
  132OSM   C15S14236   3.433   5.786   7.955  0.0340 -0.1098  0.0055
  132OSM   H15S14237   3.428   5.679   7.984  1.6536 -0.6623 -1.5988
  132OSM   H15T14238   3.329   5.823   7.953 -0.1776 -0.4930  1.6984
  132OSM   C16S14239   3.499   5.869   8.071  0.5516  0.8881 -0.3456
  132OSM   H16S14240   3.482   5.976   8.048 -1.2159  0.3648 -1.6930
  132OSM   H16T14241   3.609   5.858   8.054  0.3789  0.2375 -1.0888
  132OSM   C17S14242   3.453   5.830   8.206 -0.3462 -0.0594 -0.0467
  132OSM   H17S14243   3.478   5.722   8.216  0.3127  0.1307  0.4238
  132OSM   H17T14244   3.344   5.839   8.224 -0.2490  0.5485  0.2551
  132OSM   C18S14245   3.536   5.897   8.316  0.1070  0.6415  0.1611
  132OSM   H18S14246   3.527   6.005   8.290  1.2353 -0.2392 -4.8954
  132OSM   H18T14247   3.640   5.858   8.307 -0.0937  0.3660 -1.0359
  132OSM   H18U14248   3.499   5.862   8.415 -1.9734  2.3593  0.0510
  132OSM    C1F14249   3.828   5.455   6.946 -0.5328  0.0311 -0.1412
  132OSM     OF14250   3.935   5.438   6.884 -0.3743 -0.1439 -0.5544
  132OSM    C2F14251   3.813   5.415   7.089 -0.0605  1.0342 -0.9658
  132OSM    H2F14252   3.741   5.331   7.096  1.2855 -0.2334 -1.6371
  132OSM    H2G14253   3.774   5.497   7.152  0.5373  0.2949  0.4025
  132OSM    C3F14254   3.946   5.343   7.140 -0.3709  0.4868 -0.4168
  132OSM    H3F14255   4.020   5.426   7.151  0.5425 -0.0612 -2.1096
  132OSM    H3G14256   3.985   5.268   7.068  1.7942  0.3142  0.8362
  132OSM    C4F14257   3.930   5.279   7.286 -0.2283 -0.6410  0.0878
  132OSM    H4F14258   4.032   5.267   7.328 -0.4694  3.4311  2.3356
  132OSM    H4G14259   3.879   5.180   7.278 -0.1513 -0.6749  0.0136
  132OSM    C5F14260   3.859   5.365   7.391 -0.3141 -0.1864  0.9904
  132OSM    H5F14261   3.751   5.358   7.367 -0.1310  0.2379 -0.0010
  132OSM    H5G14262   3.889   5.471   7.375 -3.6556  0.8491  0.8198
  132OSM    C6F14263   3.885   5.321   7.537  0.2201 -0.0836 -0.3693
  132OSM    H6F14264   3.994   5.320   7.556  0.3076  0.1723 -0.8543
  132OSM    H6G14265   3.839   5.220   7.550  1.5314 -0.6629 -0.0857
  132OSM    C7F14266   3.840   5.431   7.639  0.1399  0.1844 -0.2778
  132OSM    H7F14267   3.730   5.412   7.636  0.3617 -1.1359 -1.6850
  132OSM    H7G14268   3.855   5.524   7.580  1.4906  0.8317  1.0011
  132OSM    C8F14269   3.901   5.435   7.779 -0.2679 -0.7569 -0.5180
  132OSM    H8F14270   4.009   5.410   7.766 -0.4734 -1.4355 -0.9794
  132OSM    H8G14271   3.855   5.351   7.835  1.1329 -1.2048  0.0156
  132OSM    C9F14272   3.868   5.565   7.847 -0.4494  0.0394 -0.3308
  132OSM    H9F14273   3.864   5.643   7.769 -1.3191 -0.2367 -0.5796
  132OSM   C10F14274   3.847   5.590   7.981  0.1278  0.0069  0.3856
  132OSM   H10F14275   3.822   5.693   8.010 -1.6148 -0.0718 -0.7035
  132OSM   C11F14276   3.872   5.489   8.085 -0.2583 -0.4033 -0.0375
  132OSM   H11F14277   3.895   5.387   8.047  0.2043  0.6144 -2.7488
  132OSM   H11G14278   3.780   5.480   8.147 -1.3201 -0.7450 -1.5965
  132OSM   C12F14279   4.000   5.536   8.153  0.1865 -0.4446 -0.1447
  132OSM   H12F14280   4.073   5.544   8.069  1.3200 -0.2172  0.8245
  132OSM   H12G14281   4.031   5.457   8.224 -0.3423  0.8523  1.5952
  132OSM   C13F14282   3.991   5.661   8.251 -0.4232 -0.1719 -0.5769
  132OSM   H13F14283   3.895   5.652   8.307 -0.4123  3.1477  0.1796
  132OSM   H13G14284   3.980   5.752   8.188  0.6133 -1.4638 -2.7478
  132OSM   C14F14285   4.117   5.668   8.338  0.4681  0.5831 -0.0916
  132OSM   H14F14286   4.130   5.579   8.402  0.3466  0.1636 -0.6501
  132OSM   H14G14287   4.115   5.752   8.411  0.5616  1.6191 -1.2507
  132OSM   C15F14288   4.238   5.687   8.249 -0.3806  0.0662  0.0489
  132OSM   H15F14289   4.240   5.786   8.200  2.1245 -0.9062 -2.0643
  132OSM   H15G14290   4.250   5.613   8.167  0.6811  0.4106 -0.1233
  132OSM   C16F14291   4.372   5.670   8.329  0.1632  0.3960  0.3297
  132OSM   H16F14292   4.384   5.566   8.366 -0.8187  0.7977  1.8761
  132OSM   H16G14293   4.347   5.738   8.413 -1.3222 -0.7021  0.8225
  132OSM   C17F14294   4.499   5.720   8.251  0.4201  0.1782  0.0537
  132OSM   H17F14295   4.588   5.715   8.317 -0.1936 -0.4396  0.8763
  132OSM   H17G14296   4.481   5.825   8.219  1.6070  0.2341 -0.4607
  132OSM   C18F14297   4.533   5.634   8.132 -0.0790  0.0144  0.0439
  132OSM   H18F14298   4.457   5.646   8.052 -1.0380  0.6912  1.0312
  132OSM   H18G14299   4.548   5.527   8.157 -0.0543  0.4726  2.2044
  132OSM   H18H14300   4.623   5.677   8.083 -0.5298  1.3073  0.3109
  133SAPE     N14301   5.538   1.408  10.833 -0.4190 -0.0007  0.2228
  133SAPE   HN114302   5.476   1.325  10.821  0.0628 -0.2995 -0.2713
  133SAPE   HN214303   5.580   1.401  10.928 -0.5148 -0.8470  0.2142
  133SAPE   HN314304   5.478   1.492  10.828 -1.5880 -0.7828  0.7027
  133SAPE   C1214305   5.649   1.401  10.735  0.5712 -0.0574  0.1619
  133SAPE  H12A14306   5.603   1.389  10.635  0.2387  1.9899  0.0212
  133SAPE  H12B14307   5.711   1.319  10.777  2.4474  0.4918 -1.4279
  133SAPE   C1114308   5.724   1.532  10.745 -0.0905 -0.3173 -0.2672
  133SAPE  H11A14309   5.663   1.605  10.687 -0.4127 -0.8281 -0.5757
  133SAPE  H11B14310   5.822   1.516  10.695  0.7795  0.9460  0.9615
  133SAPE     P14311   5.703   1.723  10.923  0.1367  0.0591  0.3583
  133SAPE   O1314312   5.555   1.717  10.905  0.2806 -0.0509 -0.6334
  133SAPE   O1414313   5.754   1.757  11.056 -0.5468  0.5152  0.2528
  133SAPE   O1214314   5.758   1.583  10.882 -0.3259 -0.8206  0.0493
  133SAPE   O1114315   5.762   1.823  10.825  0.0119 -0.1516  1.0876
  133SAPE    C114316   5.888   1.892  10.842  0.0011  0.4224 -0.2922
  133SAPE    HA14317   5.881   1.992  10.890 -0.6172 -0.4233  1.4541
  133SAPE    HB14318   5.945   1.832  10.915 -1.8965 -2.8015 -1.2222
  133SAPE    C214319   5.954   1.893  10.707  0.2857 -0.4503 -0.3779
  133SAPE    HS14320   6.054   1.935  10.732  0.0502  0.3012 -0.6742
  133SAPE   O2114321   5.886   1.972  10.612 -0.2511 -0.5728  0.0345
  133SAPE   C2114322   5.923   2.099  10.604  1.2485 -0.5512  0.1215
  133SAPE   O2214323   6.008   2.148  10.681  0.1994 -0.1657 -0.1266
  133SAPE   C2214324   5.869   2.168  10.472  0.0496  0.1364 -0.4447
  133SAPE   H2R14325   5.785   2.106  10.435  0.3254 -0.7377  0.3407
  133SAPE   H2S14326   5.846   2.273  10.497  2.6962  0.3486  1.5213
  133SAPE    C314327   5.976   1.746  10.652  0.1219  0.3346 -0.3871
  133SAPE    HX14328   5.874   1.727  10.614  1.5055 -0.7498 -3.9909
  133SAPE    HY14329   6.030   1.672  10.715  1.9600 -0.4176 -2.6746
  133SAPE   O3114330   6.057   1.750  10.535 -0.1412 -0.0818  0.4649
  133SAPE   C3114331   6.191   1.769  10.559 -0.1105 -0.4381  0.7007
  133SAPE   O3214332   6.240   1.804  10.665  0.1154  0.0942 -0.2073
  133SAPE   C3214333   6.263   1.751  10.423 -0.3409  0.1744  0.1223
  133SAPE   H2X14334   6.193   1.757  10.337 -0.7403 -0.4697  0.3931
  133SAPE   H2Y14335   6.311   1.651  10.421  0.7013  0.6752 -1.1006
  133SAPE   C2314336   5.984   2.183  10.374 -0.2111 -0.2431 -0.4587
  133SAPE   H3R14337   6.068   2.239  10.421  1.4791 -3.2309  0.3147
  133SAPE   H3S14338   5.939   2.243  10.292  2.7598  0.5285 -1.6578
  133SAPE   C2414339   6.036   2.060  10.299 -0.1868  0.3324 -0.6448
  133SAPE   H4R14340   6.066   1.985  10.375 -1.3991  2.2865  1.9248
  133SAPE   H4S14341   6.133   2.090  10.255  0.3737  2.3216  1.7146
  133SAPE   C2514342   5.944   1.997  10.202  0.8716 -0.1652 -0.1975
  133SAPE   H5R14343   5.849   1.956  10.241  0.6244 -0.0394 -0.6549
  133SAPE   C2614344   5.947   2.017  10.067  0.1480 -0.4867 -0.0850
  133SAPE   H6R14345   5.875   1.966  10.001  0.8466  0.4464 -1.6152
  133SAPE   C2714346   6.051   2.104   9.999 -0.5140  0.0634  0.2532
  133SAPE   H7R14347   6.122   2.029   9.958 -0.1674  0.1879  0.6219
  133SAPE   H7S14348   6.099   2.174  10.070 -0.2960 -0.0462  0.2131
  133SAPE   C2814349   5.985   2.180   9.882  0.3441 -0.5352 -0.1430
  133SAPE   H8R14350   5.882   2.214   9.901  0.7745  1.3271 -0.9565
  133SAPE   C2914351   6.041   2.203   9.767 -0.8945  0.2307  0.2898
  133SAPE   H9R14352   5.975   2.244   9.689  0.2976  3.3468  0.8101
  133SAPE  C21014353   6.182   2.166   9.723 -0.2546 -0.4073 -0.3826
  133SAPE  H10R14354   6.185   2.056   9.738 -1.8828 -0.2438  1.5895
  133SAPE  H10S14355   6.253   2.216   9.792  2.1406 -1.3908 -1.9696
  133SAPE  C21114356   6.240   2.205   9.593 -0.2895  0.1219 -0.4656
  133SAPE  H11R14357   6.330   2.268   9.586 -0.6860  1.4713  3.8005
  133SAPE  C21214358   6.195   2.173   9.473 -0.3091  0.1773  0.7657
  133SAPE  H12R14359   6.241   2.219   9.384 -0.7888  4.3878  2.4614
  133SAPE  C21314360   6.073   2.086   9.432 -0.4124  0.1953 -0.1877
  133SAPE  H13R14361   6.044   2.030   9.523  0.6105 -2.9739 -1.6557
  133SAPE  H13S14362   6.106   1.998   9.374  1.7554  0.1767  0.9605
  133SAPE  C21414363   5.951   2.151   9.364  0.2876  0.4265  0.0991
  133SAPE  H14R14364   5.902   2.227   9.426 -2.3784 -1.4569  0.5026
  133SAPE  C21514365   5.902   2.125   9.237 -0.0147 -0.2692 -1.1529
  133SAPE  H15R14366   5.817   2.178   9.193  0.2445  0.0471 -1.2764
  133SAPE  C21614367   5.971   2.016   9.155  0.4138 -0.1164  0.4510
  133SAPE  H16R14368   6.081   2.024   9.169  0.7751 -0.0510 -1.9623
  133SAPE  H16S14369   5.950   2.040   9.048  0.1944  2.3556  0.9933
  133SAPE  C21714370   5.918   1.874   9.185 -0.1571 -0.5181  0.2262
  133SAPE  H17R14371   5.940   1.859   9.292 -1.0357  0.8562  0.6248
  133SAPE  H17S14372   5.976   1.796   9.131 -1.4905 -2.4111  1.4006
  133SAPE  C21814373   5.770   1.859   9.175 -0.8347  0.3760  0.7955
  133SAPE  H18R14374   5.732   1.904   9.081  0.0897 -0.2805  0.0876
  133SAPE  H18S14375   5.715   1.905   9.260 -2.9072 -0.9862  0.2656
  133SAPE  C21914376   5.742   1.705   9.152 -0.7531 -0.0214 -0.5168
  133SAPE  H19R14377   5.817   1.650   9.090  0.1481  0.1310  0.4129
  133SAPE  H19S14378   5.646   1.699   9.096  0.0995 -0.6254 -1.9641
  133SAPE  C22014379   5.731   1.621   9.276 -0.0178  0.2966 -0.1535
  133SAPE  H20R14380   5.828   1.617   9.330  1.0579 -3.6793 -1.9920
  133SAPE  H20S14381   5.698   1.521   9.242  1.1979  0.3270 -1.5325
  133SAPE  H20T14382   5.657   1.668   9.344  0.6054  0.2963  0.5448
  133SAPE   C3314383   6.375   1.849  10.405  0.1647 -0.0031 -0.0665
  133SAPE   H3X14384   6.453   1.846  10.485  2.5922  2.4969 -2.1284
  133SAPE   H3Y14385   6.348   1.956  10.402  1.6065  0.4010  0.4649
  133SAPE   C3414386   6.455   1.814  10.281  0.1574  0.4669 -0.0521
  133SAPE   H4X14387   6.494   1.712  10.303  0.8173  0.5773 -0.6892
  133SAPE   H4Y14388   6.542   1.882  10.272  2.0613 -1.8170  0.3096
  133SAPE   C3514389   6.370   1.816  10.153 -0.0804 -0.1529 -0.4655
  133SAPE   H5X14390   6.298   1.901  10.157 -2.4995 -2.0501 -0.9018
  133SAPE   H5Y14391   6.312   1.722  10.143 -0.7666  0.0571  1.1581
  133SAPE   C3614392   6.459   1.840  10.031  0.3081 -0.4479  0.3305
  133SAPE   H6X14393   6.552   1.781  10.034  0.7055  0.0840 -0.8613
  133SAPE   H6Y14394   6.486   1.947  10.023  2.0074 -1.0032 -2.3334
  133SAPE   C3714395   6.392   1.795   9.903  0.1800 -0.4465  0.0329
  133SAPE   H7X14396   6.313   1.870   9.883 -0.0716 -0.2797  1.5762
  133SAPE   H7Y14397   6.338   1.700   9.927 -1.1636 -0.1614 -1.6840
  133SAPE   C3814398   6.478   1.775   9.777 -0.1147 -0.0963  0.2798
  133SAPE   H8X14399   6.410   1.752   9.691 -0.5035 -1.0712  0.8336
  133SAPE   H8Y14400   6.541   1.684   9.787 -0.6726 -0.3157  2.1138
  133SAPE   C3914401   6.558   1.891   9.735 -0.5241  0.2474  0.7044
  133SAPE   H9X14402   6.644   1.912   9.801 -2.2058 -0.7869  3.3751
  133SAPE   H9Y14403   6.501   1.987   9.743 -0.6771  0.2792 -0.5384
  133SAPE  C31014404   6.592   1.882   9.582 -0.2584  0.1987  0.2588
  133SAPE  H10X14405   6.638   1.783   9.559  1.4444  1.0755 -0.2875
  133SAPE  H10Y14406   6.671   1.959   9.573 -1.5553  1.5317 -0.1037
  133SAPE  C31114407   6.473   1.916   9.497 -0.3675 -0.2804  0.4313
  133SAPE  H11X14408   6.424   2.006   9.538 -0.3626  0.4246 -1.0318
  133SAPE  H11Y14409   6.400   1.832   9.506 -0.5458  0.0187  2.0779
  133SAPE  C31214410   6.522   1.935   9.357 -0.3145  0.0302  0.6559
  133SAPE  H12X14411   6.576   1.839   9.343  0.8390  0.6909  0.4154
  133SAPE  H12Y14412   6.587   2.024   9.340  0.7586 -0.9791 -0.7756
  133SAPE  C31314413   6.409   1.920   9.247 -0.2316  0.1275  0.0890
  133SAPE  H13X14414   6.327   1.992   9.266 -1.0583 -0.9845  0.8876
  133SAPE  H13Y14415   6.362   1.822   9.272 -1.4162  0.2016 -1.6971
  133SAPE  C31414416   6.462   1.912   9.102  0.1198  0.2100  0.5114
  133SAPE  H14X14417   6.537   1.831   9.092  1.3670  1.4192 -0.2540
  133SAPE  H14Y14418   6.512   2.010   9.088  0.4228  0.0101  0.1927
  133SAPE  C31514419   6.362   1.881   8.987 -0.1394 -0.1549  0.0116
  133SAPE  H15X14420   6.283   1.955   9.014  1.0989  1.6714 -1.1676
  133SAPE  H15Y14421   6.323   1.776   8.992  0.3987 -0.3423  0.3546
  133SAPE  C31614422   6.405   1.931   8.848 -0.5773  0.2735 -0.4005
  133SAPE  H16X14423   6.492   1.877   8.804 -0.3542 -0.9530  1.4076
  133SAPE  H16Y14424   6.445   2.034   8.863 -0.1085  0.0136  0.1797
  133SAPE  C31714425   6.284   1.948   8.755  0.2702  0.1036 -0.1633
  133SAPE  H17X14426   6.207   2.015   8.800  1.4386  0.8110  0.8409
  133SAPE  H17Y14427   6.216   1.861   8.742 -3.1183  2.5431 -0.2876
  133SAPE  C31814428   6.336   1.994   8.620 -0.1879  0.7672  0.9768
  133SAPE  H18X14429   6.365   2.101   8.624 -1.5599  1.2523 -0.7194
  133SAPE  H18Y14430   6.264   1.977   8.537  0.4708 -1.3575  0.7624
  133SAPE  H18Z14431   6.425   1.933   8.591 -2.1508 -1.6576 -0.3994
  134SAPE     N14432   1.573   2.366  10.482 -0.3456  0.1287 -0.4493
  134SAPE   HN114433   1.631   2.280  10.492  1.0489  0.9741 -1.0528
  134SAPE   HN214434   1.538   2.369  10.385 -2.1119  2.0772  0.1622
  134SAPE   HN314435   1.641   2.444  10.484  0.8884 -0.9062  1.9540
  134SAPE   C1214436   1.462   2.373  10.582 -0.3536  0.6978  0.4107
  134SAPE  H12A14437   1.398   2.284  10.563 -1.1698  1.2037  0.7652
  134SAPE  H12B14438   1.398   2.461  10.560  1.2953  1.0232 -4.2263
  134SAPE   C1114439   1.526   2.376  10.722 -0.1839  0.3561  0.7609
  134SAPE  H11A14440   1.545   2.269  10.745  1.9458  0.5699  0.2518
  134SAPE  H11B14441   1.442   2.406  10.787 -1.0182  0.0434 -0.1495
  134SAPE     P14442   1.754   2.428  10.822  0.2354  0.0292 -0.2517
  134SAPE   O1314443   1.718   2.422  10.965  0.1944  0.0147  0.5511
  134SAPE   O1414444   1.804   2.301  10.762 -0.1479 -0.2485  0.2384
  134SAPE   O1214445   1.629   2.468  10.738 -0.1027 -0.2376 -0.2501
  134SAPE   O1114446   1.865   2.532  10.789 -0.1557 -0.3492 -0.3718
  134SAPE    C114447   1.857   2.673  10.778  0.2161 -0.8428 -0.0150
  134SAPE    HA14448   1.774   2.714  10.840  2.2441 -0.4792  2.6694
  134SAPE    HB14449   1.948   2.725  10.816  0.1923  0.9435 -2.2805
  134SAPE    C214450   1.820   2.727  10.637  0.3151  0.4232  0.4608
  134SAPE    HS14451   1.717   2.695  10.610  0.1197  2.4080 -1.4260
  134SAPE   O2114452   1.915   2.678  10.541 -0.1159  0.2452 -0.7550
  134SAPE   C2114453   1.868   2.593  10.450 -0.2394 -0.3275  0.1646
  134SAPE   O2214454   1.754   2.554  10.439  0.0345  0.2022 -0.2390
  134SAPE   C2214455   1.976   2.552  10.348 -0.0697 -0.9123 -0.4583
  134SAPE   H2R14456   2.029   2.649  10.335 -1.5698  0.6224  3.2738
  134SAPE   H2S14457   2.042   2.478  10.398  1.5630  0.7792  0.0184
  134SAPE    C314458   1.824   2.885  10.619  0.0853  0.3376 -1.0612
  134SAPE    HX14459   1.906   2.928  10.680 -1.6072  0.9884  0.8603
  134SAPE    HY14460   1.730   2.922  10.665  0.9492 -0.7876  1.8421
  134SAPE   O3114461   1.819   2.928  10.478 -0.8129 -0.0290 -0.1380
  134SAPE   C3114462   1.937   2.949  10.430 -0.1754  0.9168  0.3149
  134SAPE   O3214463   2.046   2.908  10.471 -0.2870 -0.4700  0.0172
  134SAPE   C3214464   1.926   3.029  10.297 -0.5132 -0.3857 -0.5475
  134SAPE   H2X14465   2.027   3.059  10.262 -0.2374 -1.8559 -1.0485
  134SAPE   H2Y14466   1.873   3.124  10.323 -1.9380 -1.3520  0.2078
  134SAPE   C2314467   1.918   2.503  10.220  0.6966  0.4514  0.3783
  134SAPE   H3R14468   1.837   2.569  10.182  0.8536  0.2969 -0.2334
  134SAPE   H3S14469   1.867   2.405  10.226 -0.1772  0.7053 -1.9559
  134SAPE   C2414470   2.029   2.496  10.106 -0.2425 -0.6876  0.0142
  134SAPE   H4R14471   2.086   2.591  10.110 -1.2142  0.0835 -2.2780
  134SAPE   H4S14472   1.978   2.486  10.007 -0.4580  0.7718 -0.0498
  134SAPE   C2514473   2.119   2.380  10.116  0.6797  0.3652 -0.1061
  134SAPE   H5R14474   2.188   2.378  10.201  0.7111  0.0802 -0.1365
  134SAPE   C2614475   2.123   2.276  10.034  0.0312  0.3345  0.2707
  134SAPE   H6R14476   2.197   2.196  10.053 -2.0909 -1.7561  0.2142
  134SAPE   C2714477   2.038   2.258   9.910  0.2888 -0.2827  0.6968
  134SAPE   H7R14478   1.939   2.295   9.946 -1.4664 -0.3525 -3.4762
  134SAPE   H7S14479   2.027   2.149   9.893 -1.4527 -0.4610  2.5962
  134SAPE   C2814480   2.074   2.346   9.792 -0.8440  0.0579  0.0773
  134SAPE   H8R14481   2.098   2.452   9.810  0.6886  0.2383 -2.4630
  134SAPE   C2914482   2.086   2.306   9.664 -0.4873  0.1930  0.6048
  134SAPE   H9R14483   2.112   2.388   9.595 -0.7443  0.0127  0.2910
  134SAPE  C21014484   2.079   2.167   9.606  0.0303  0.4436 -0.5862
  134SAPE  H10R14485   1.977   2.148   9.567  0.2863 -2.4687 -0.0383
  134SAPE  H10S14486   2.093   2.100   9.693 -1.4868 -1.4836 -1.7301
  134SAPE  C21114487   2.179   2.135   9.500  0.1664  0.6702  0.5014
  134SAPE  H11R14488   2.266   2.081   9.539  1.3197  0.7047 -1.8370
  134SAPE  C21214489   2.158   2.141   9.365 -0.3573  0.0602  0.8779
  134SAPE  H12R14490   2.243   2.104   9.305 -0.9278 -2.5191  1.5189
  134SAPE  C21314491   2.034   2.191   9.286 -0.1112 -0.2560  0.6332
  134SAPE  H13R14492   1.936   2.164   9.331 -0.8515  0.8502 -0.2770
  134SAPE  H13S14493   2.038   2.146   9.185 -2.3143 -0.4801  0.6034
  134SAPE  C21414494   2.012   2.335   9.301  0.2629 -0.0609 -0.2312
  134SAPE  H14R14495   1.973   2.378   9.395  1.1790  1.8235 -0.6679
  134SAPE  C21514496   2.026   2.427   9.196  0.5179  0.8384 -0.6852
  134SAPE  H15R14497   1.993   2.530   9.217  0.8483  1.0767 -1.3258
  134SAPE  C21614498   2.075   2.399   9.059  0.4934  0.3059 -0.0974
  134SAPE  H16R14499   2.142   2.310   9.059 -0.7807 -0.6896  1.1489
  134SAPE  H16S14500   2.125   2.482   9.005 -1.6827  0.5576 -1.8716
  134SAPE  C21714501   1.956   2.373   8.963 -0.1319 -0.2042 -0.2979
  134SAPE  H17R14502   1.898   2.465   8.983  2.0682  1.1165  0.4014
  134SAPE  H17S14503   1.880   2.299   8.995 -0.2338  0.3709  0.8347
  134SAPE  C21814504   1.999   2.355   8.820  0.0674 -0.6086  0.4328
  134SAPE  H18R14505   2.031   2.249   8.807  0.8745 -0.2328 -0.8196
  134SAPE  H18S14506   2.094   2.410   8.810 -0.2227  0.2013  1.8836
  134SAPE  C21914507   1.894   2.396   8.717  0.5953  0.0210  1.0156
  134SAPE  H19R14508   1.791   2.372   8.752 -0.4485  0.7534 -1.3834
  134SAPE  H19S14509   1.906   2.343   8.620 -0.7920 -0.2674  0.9798
  134SAPE  C22014510   1.896   2.556   8.688 -0.2442  0.4306 -0.1569
  134SAPE  H20R14511   1.892   2.617   8.781  1.7798  0.5579 -0.1018
  134SAPE  H20S14512   1.808   2.584   8.627  0.2314 -0.3782 -1.2514
  134SAPE  H20T14513   1.985   2.579   8.626 -0.5648  1.1477 -0.3560
  134SAPE   C3314514   1.853   2.959  10.178  0.0115 -0.3462 -0.8306
  134SAPE   H3X14515   1.807   3.046  10.128 -0.5880 -0.3801 -0.3530
  134SAPE   H3Y14516   1.770   2.890  10.207  1.2860 -1.4933  0.2452
  134SAPE   C3414517   1.958   2.890  10.088  0.5276 -0.0824 -0.6962
  134SAPE   H4X14518   1.987   2.788  10.123 -1.7496  0.3744  3.0407
  134SAPE   H4Y14519   2.032   2.973  10.087 -1.0876  1.5058  1.3876
  134SAPE   C3514520   1.916   2.869   9.935 -0.0448  0.1216  0.6879
  134SAPE   H5X14521   2.000   2.834   9.871 -1.4064  1.2208 -1.8218
  134SAPE   H5Y14522   1.895   2.971   9.896 -0.1121  0.3680  1.3461
  134SAPE   C3614523   1.789   2.773   9.934 -0.6777 -0.2634  0.2444
  134SAPE   H6X14524   1.699   2.836   9.953  0.8910  1.8421  1.0208
  134SAPE   H6Y14525   1.798   2.702  10.019 -1.5757  0.9529  1.4124
  134SAPE   C3714526   1.771   2.709   9.795 -0.4352  0.3583 -0.4738
  134SAPE   H7X14527   1.682   2.643   9.802  0.5896 -1.1353 -1.0263
  134SAPE   H7Y14528   1.850   2.634   9.773 -0.2659  0.2747  0.3882
  134SAPE   C3814529   1.749   2.800   9.680 -0.0321 -0.5160  0.1141
  134SAPE   H8X14530   1.829   2.876   9.666  3.3115 -3.2989  2.4525
  134SAPE   H8Y14531   1.651   2.852   9.673  1.1187  1.8550  0.3170
  134SAPE   C3914532   1.746   2.727   9.548 -0.1374 -0.5615 -1.0482
  134SAPE   H9X14533   1.674   2.646   9.572 -1.0208  0.5718  0.3042
  134SAPE   H9Y14534   1.842   2.677   9.525 -1.3750 -2.3212 -2.6076
  134SAPE  C31014535   1.697   2.816   9.428 -0.6768  0.0633 -0.0538
  134SAPE  H10X14536   1.745   2.916   9.423 -2.4964  0.9123 -2.2600
  134SAPE  H10Y14537   1.589   2.834   9.443 -0.2811  3.7220 -0.6560
  134SAPE  C31114538   1.729   2.754   9.294  0.1281  0.3090 -0.7880
  134SAPE  H11X14539   1.662   2.667   9.277 -0.9747  0.9015  0.3174
  134SAPE  H11Y14540   1.839   2.734   9.291  0.3416  0.8663  1.3629
  134SAPE  C31214541   1.708   2.845   9.169 -0.2491  0.1904 -0.5776
  134SAPE  H12X14542   1.755   2.944   9.189  1.1224 -1.1307  4.1951
  134SAPE  H12Y14543   1.600   2.862   9.152 -0.4054  0.3662  0.4769
  134SAPE  C31314544   1.757   2.782   9.041  0.0206  0.4211  0.0503
  134SAPE  H13X14545   1.707   2.685   9.020  0.1075 -0.1392  2.1247
  134SAPE  H13Y14546   1.867   2.767   9.044  0.5729  3.7249  1.9383
  134SAPE  C31414547   1.733   2.875   8.922 -0.4396 -0.0011 -0.3489
  134SAPE  H14X14548   1.625   2.898   8.937 -0.2600 -0.1105  1.4188
  134SAPE  H14Y14549   1.755   2.820   8.829  1.8431  0.8060 -0.3455
  134SAPE  C31514550   1.827   2.998   8.928  0.3221  0.3981 -0.5354
  134SAPE  H15X14551   1.933   2.965   8.917  0.1103 -0.2073 -0.7781
  134SAPE  H15Y14552   1.824   3.056   9.023  0.6099 -0.0301 -0.2653
  134SAPE  C31614553   1.796   3.111   8.830 -0.0930 -0.5560 -0.2743
  134SAPE  H16X14554   1.693   3.151   8.837  0.7127  1.3822  1.7766
  134SAPE  H16Y14555   1.799   3.061   8.730  0.4841 -0.1532 -0.4642
  134SAPE  C31714556   1.897   3.225   8.826 -0.1535  0.3950 -0.3391
  134SAPE  H17X14557   2.000   3.184   8.828 -0.6202 -0.8199 -0.2931
  134SAPE  H17Y14558   1.874   3.274   8.923 -0.7417 -0.2333 -0.1542
  134SAPE  C31814559   1.890   3.319   8.702  0.2345 -0.3377  0.5281
  134SAPE  H18X14560   1.793   3.373   8.701  0.5877  0.3024 -0.1672
  134SAPE  H18Y14561   1.905   3.264   8.607  3.7461  0.3073  0.5722
  134SAPE  H18Z14562   1.971   3.393   8.719 -2.8486  3.3888  0.2517
  135SAPE     N14563   2.471   1.960  10.552  0.2339 -0.0893 -0.0702
  135SAPE   HN114564   2.418   1.920  10.473 -0.7059 -1.9996  1.4377
  135SAPE   HN214565   2.508   2.053  10.523 -0.4067 -0.2250 -1.3785
  135SAPE   HN314566   2.554   1.901  10.573 -0.2859 -1.8976 -2.6036
  135SAPE   C1214567   2.385   1.960  10.671  0.6514  0.1048  0.2688
  135SAPE  H12A14568   2.439   2.029  10.738  0.6215  0.6588 -0.2721
  135SAPE  H12B14569   2.365   1.855  10.701 -1.2620  0.4579  0.3818
  135SAPE   C1114570   2.249   2.019  10.646 -0.5417  0.1107 -0.3181
  135SAPE  H11A14571   2.247   2.123  10.607 -1.3775  0.0158 -0.5402
  135SAPE  H11B14572   2.199   2.024  10.745  0.9707 -0.1846  0.5030
  135SAPE     P14573   2.020   1.918  10.552 -0.1094 -0.1661  0.3150
  135SAPE   O1314574   1.999   1.776  10.517  0.6897 -0.1396 -0.4486
  135SAPE   O1414575   1.960   1.979  10.671 -0.3455  0.3067  0.2107
  135SAPE   O1214576   2.172   1.942  10.548 -0.4911 -0.4913 -0.4237
  135SAPE   O1114577   1.978   2.012  10.433  0.1664  0.2023  0.5334
  135SAPE    C114578   2.052   2.015  10.306  0.1565  0.4820 -0.0300
  135SAPE    HA14579   2.083   2.116  10.273  1.0876  0.4190  0.6116
  135SAPE    HB14580   2.141   1.948  10.301  0.8565  1.4822 -2.9848
  135SAPE    C214581   1.951   1.973  10.190  0.0041  0.1154  0.5073
  135SAPE    HS14582   1.910   1.871  10.210 -1.7447  0.1436 -2.3903
  135SAPE   O2114583   2.020   1.970  10.064  1.1582  1.0138 -0.1821
  135SAPE   C2114584   2.121   1.893  10.048  0.8081  0.3524 -0.0680
  135SAPE   O2214585   2.158   1.801  10.122 -0.5590  1.1555  0.1891
  135SAPE   C2214586   2.178   1.918   9.909  0.3846 -0.6950  0.1350
  135SAPE   H2R14587   2.088   1.928   9.844 -0.7292  1.0276  1.8250
  135SAPE   H2S14588   2.239   2.011   9.913 -0.5108 -0.1342  1.7774
  135SAPE    C314589   1.833   2.079  10.174 -0.1343  0.5353  0.3632
  135SAPE    HX14590   1.884   2.178  10.179 -0.1996  0.5415  1.1659
  135SAPE    HY14591   1.767   2.064  10.262 -1.4275  0.6258 -0.5793
  135SAPE   O3114592   1.765   2.064  10.050 -0.2685 -0.4055  0.0970
  135SAPE   C3114593   1.631   2.081  10.049  0.0206 -0.0659  0.1673
  135SAPE   O3214594   1.563   2.124  10.136  0.5511 -0.4132  0.1144
  135SAPE   C3214595   1.575   2.031   9.916 -0.6275 -0.2625 -0.5206
  135SAPE   H2X14596   1.479   2.086   9.909 -0.5701 -0.3753 -2.8376
  135SAPE   H2Y14597   1.578   1.920   9.914  1.7720 -0.2400 -0.6376
  135SAPE   C2314598   2.268   1.805   9.853  0.0132 -0.1274 -1.1559
  135SAPE   H3R14599   2.214   1.708   9.865 -0.9698  0.5601  0.3103
  135SAPE   H3S14600   2.366   1.789   9.902 -1.1602  0.2735  1.5466
  135SAPE   C2414601   2.290   1.825   9.707  0.8759  0.8286  0.1528
  135SAPE   H4R14602   2.309   1.934   9.695 -0.5559  1.0581 -0.2425
  135SAPE   H4S14603   2.194   1.807   9.653  1.2301 -2.8551  0.4847
  135SAPE   C2514604   2.397   1.739   9.640  0.0977 -0.3994  0.2979
  135SAPE   H5R14605   2.496   1.739   9.688 -0.6233 -0.8129  1.8327
  135SAPE   C2614606   2.385   1.679   9.522 -0.0099 -0.0098 -0.0954
  135SAPE   H6R14607   2.468   1.619   9.481  0.4398 -0.1023  0.9251
  135SAPE   C2714608   2.261   1.679   9.429  0.4726 -0.4193 -0.1492
  135SAPE   H7R14609   2.167   1.678   9.490  0.5668  0.8079  0.0339
  135SAPE   H7S14610   2.260   1.597   9.354 -2.9727  0.9836 -1.8958
  135SAPE   C2814611   2.252   1.810   9.356 -0.8611 -0.6539  0.1753
  135SAPE   H8R14612   2.263   1.896   9.423  0.7572 -0.6077 -0.1056
  135SAPE   C2914613   2.248   1.824   9.221  0.3066  0.2258 -0.5837
  135SAPE   H9R14614   2.261   1.928   9.186  0.1024 -0.0657 -1.5322
  135SAPE  C21014615   2.252   1.710   9.116 -0.6966 -0.6755  0.1949
  135SAPE  H10R14616   2.223   1.611   9.157  0.1133 -1.6209 -1.4161
  135SAPE  H10S14617   2.358   1.700   9.084 -0.8255 -2.4141  0.1854
  135SAPE  C21114618   2.180   1.764   8.993  0.1080  0.2038  0.5071
  135SAPE  H11R14619   2.128   1.861   8.993 -1.7797 -0.7337 -0.9874
  135SAPE  C21214620   2.177   1.693   8.875 -0.8360 -0.5874 -0.4680
  135SAPE  H12R14621   2.146   1.742   8.781  0.5205  0.2032 -0.5257
  135SAPE  C21314622   2.248   1.556   8.850  0.2227 -0.2532  0.0879
  135SAPE  H13R14623   2.175   1.472   8.842 -2.1142  1.7999 -2.6823
  135SAPE  H13S14624   2.310   1.530   8.938 -0.0562 -1.7020 -0.1146
  135SAPE  C21414625   2.336   1.585   8.724 -0.0404  0.0094  0.0418
  135SAPE  H14R14626   2.396   1.677   8.728 -1.9665  1.3558 -0.7066
  135SAPE  C21514627   2.343   1.515   8.606 -0.0391 -0.4888  0.5610
  135SAPE  H15R14628   2.413   1.547   8.528  2.1601  2.6505  3.5113
  135SAPE  C21614629   2.268   1.400   8.562 -0.1975  0.1647 -0.2209
  135SAPE  H16R14630   2.205   1.418   8.473  0.5474  1.8741 -0.4557
  135SAPE  H16S14631   2.185   1.374   8.631  1.4292 -0.8239  1.4734
  135SAPE  C21714632   2.352   1.274   8.554 -0.1701 -0.4501 -0.7536
  135SAPE  H17R14633   2.281   1.190   8.542 -0.6512  0.0952 -1.9052
  135SAPE  H17S14634   2.405   1.259   8.651 -0.5581  2.2754 -0.0285
  135SAPE  C21814635   2.450   1.269   8.431  0.2085 -0.2252 -0.2973
  135SAPE  H18R14636   2.500   1.369   8.424 -1.1833  0.4927 -0.2861
  135SAPE  H18S14637   2.387   1.257   8.341  1.5045 -1.4081 -1.0851
  135SAPE  C21914638   2.546   1.149   8.444  0.4221 -0.1095  0.4213
  135SAPE  H19R14639   2.485   1.056   8.441 -0.7762  0.6726 -1.3643
  135SAPE  H19S14640   2.593   1.166   8.543  0.2960  0.9244  0.3138
  135SAPE  C22014641   2.643   1.148   8.330  0.3069  0.0945  0.1854
  135SAPE  H20R14642   2.718   1.073   8.364  0.6179  0.7784  1.0376
  135SAPE  H20S14643   2.685   1.250   8.324  0.2201  0.2292  1.4990
  135SAPE  H20T14644   2.596   1.125   8.232  1.1747 -1.9846  0.2145
  135SAPE   C3314645   1.646   2.091   9.783  0.3884 -0.0141 -0.5983
  135SAPE   H3X14646   1.726   2.024   9.744  2.1651  2.5234 -1.5891
  135SAPE   H3Y14647   1.695   2.188   9.806 -1.0764  0.7712 -0.6672
  135SAPE   C3414648   1.547   2.118   9.665 -0.5575 -0.0561  0.2938
  135SAPE   H4X14649   1.454   2.166   9.702  0.5295  2.1173  0.3916
  135SAPE   H4Y14650   1.522   2.027   9.606 -2.3813  0.2464  0.5407
  135SAPE   C3514651   1.614   2.214   9.553 -0.6893 -0.3554  0.2180
  135SAPE   H5X14652   1.708   2.167   9.516 -0.2434  0.4020  0.3656
  135SAPE   H5Y14653   1.653   2.305   9.603 -1.8803  0.6335 -0.6036
  135SAPE   C3614654   1.518   2.259   9.439 -0.4418  0.5129  0.3782
  135SAPE   H6X14655   1.443   2.334   9.473 -1.6909  0.7637 -2.6308
  135SAPE   H6Y14656   1.470   2.172   9.390  2.2558 -2.1613  2.1666
  135SAPE   C3714657   1.605   2.318   9.327 -0.1395  0.3622  0.0197
  135SAPE   H7X14658   1.658   2.225   9.295  0.8800  0.0836  2.3741
  135SAPE   H7Y14659   1.681   2.386   9.370 -1.6060  1.6547  0.6506
  135SAPE   C3814660   1.526   2.356   9.209 -0.4554 -0.5537  0.0632
  135SAPE   H8X14661   1.463   2.445   9.229 -0.0558  0.2760 -2.0783
  135SAPE   H8Y14662   1.463   2.266   9.192 -0.8503  0.1460 -2.6048
  135SAPE   C3914663   1.623   2.386   9.093 -0.2917  0.6359  0.6111
  135SAPE   H9X14664   1.699   2.305   9.095 -0.0435  0.8662  0.5248
  135SAPE   H9Y14665   1.676   2.474   9.136  0.7979  0.3027 -0.0165
  135SAPE  C31014666   1.548   2.424   8.960  0.3915 -0.1766  0.3337
  135SAPE  H10X14667   1.620   2.468   8.889  2.2407 -0.6476  1.8235
  135SAPE  H10Y14668   1.470   2.498   8.991 -1.5930 -1.7743 -0.6107
  135SAPE  C31114669   1.479   2.308   8.884 -0.1144 -0.3298 -0.4198
  135SAPE  H11X14670   1.400   2.262   8.948 -0.2048 -0.5935 -0.7212
  135SAPE  H11Y14671   1.560   2.233   8.868  0.5003  0.0166  0.9064
  135SAPE  C31214672   1.410   2.346   8.752 -1.0311  0.1125 -0.5989
  135SAPE  H12X14673   1.485   2.400   8.691 -0.1563 -0.5731 -0.1606
  135SAPE  H12Y14674   1.321   2.407   8.776 -0.8037 -0.0136  0.6511
  135SAPE  C31314675   1.368   2.221   8.664  0.3259 -0.2877 -0.7138
  135SAPE  H13X14676   1.294   2.246   8.585 -0.8672 -1.5522 -0.0350
  135SAPE  H13Y14677   1.313   2.157   8.736  0.3963  0.6445  0.1848
  135SAPE  C31414678   1.478   2.146   8.584 -0.2825  0.0602  0.5186
  135SAPE  H14X14679   1.558   2.101   8.647  0.2618 -0.2749 -0.3985
  135SAPE  H14Y14680   1.531   2.210   8.511  0.8101 -2.1563 -0.7413
  135SAPE  C31514681   1.415   2.036   8.486 -0.2102 -0.7152 -0.8759
  135SAPE  H15X14682   1.354   2.083   8.405 -1.3981  0.2673  0.5363
  135SAPE  H15Y14683   1.350   1.965   8.542 -0.0547  0.5444  0.9782
  135SAPE  C31614684   1.521   1.951   8.411  0.0030 -0.1812  0.0737
  135SAPE  H16X14685   1.600   1.921   8.483  0.2691 -0.0252 -0.1556
  135SAPE  H16Y14686   1.570   2.027   8.347  0.8126 -0.1514  0.7129
  135SAPE  C31714687   1.455   1.840   8.332  0.1516  0.7099  0.3097
  135SAPE  H17X14688   1.390   1.880   8.251 -0.3715 -0.7696 -0.0376
  135SAPE  H17Y14689   1.396   1.776   8.401  2.0699 -1.0172  0.4475
  135SAPE  C31814690   1.560   1.753   8.273 -0.0829  0.3972 -0.1459
  135SAPE  H18X14691   1.529   1.647   8.259  0.0295  0.0457  1.9451
  135SAPE  H18Y14692   1.642   1.742   8.347  0.9930 -0.3466 -1.4062
  135SAPE  H18Z14693   1.612   1.802   8.188  1.1200  0.4797  0.6075
  136SAPE     N14694   4.340   5.975  11.116  0.3526 -0.1459  0.3425
  136SAPE   HN114695   4.237   5.970  11.123  0.4623 -1.2786  1.6571
  136SAPE   HN214696   4.357   5.923  11.028 -1.4101  1.7693 -1.2022
  136SAPE   HN314697   4.384   5.938  11.203  0.3457 -0.2447  0.3049
  136SAPE   C1214698   4.380   6.123  11.087  0.1145 -0.1669  0.5151
  136SAPE  H12A14699   4.356   6.176  11.182  3.8993  0.2614  1.3841
  136SAPE  H12B14700   4.313   6.162  11.006  2.0027  2.2611 -0.0089
  136SAPE   C1114701   4.531   6.145  11.056  0.5710 -0.8035  0.4959
  136SAPE  H11A14702   4.597   6.169  11.142 -0.5215  0.8758  0.9218
  136SAPE  H11B14703   4.543   6.243  11.005  2.5632 -0.1819  2.0503
  136SAPE     P14704   4.712   6.053  10.886  0.1447  0.5024 -0.0901
  136SAPE   O1314705   4.824   6.005  10.964 -0.2263  0.0407  0.1746
  136SAPE   O1414706   4.700   6.000  10.747 -0.0666 -0.3050 -0.4796
  136SAPE   O1214707   4.577   6.041  10.969 -0.5878  0.1860 -0.5607
  136SAPE   O1114708   4.742   6.215  10.878  0.1928 -0.3277 -0.2257
  136SAPE    C114709   4.676   6.291  10.780  1.3536 -0.4753  0.5453
  136SAPE    HA14710   4.573   6.254  10.758 -1.2715  3.7815  4.1607
  136SAPE    HB14711   4.654   6.391  10.823  0.8626 -0.4955  0.3507
  136SAPE    C214712   4.752   6.300  10.650 -0.5357  0.0761 -0.1412
  136SAPE    HS14713   4.792   6.199  10.628 -0.1568  0.3751 -0.8524
  136SAPE   O2114714   4.852   6.406  10.665 -0.1577  0.5851  0.5566
  136SAPE   C2114715   4.969   6.367  10.712  0.2219  0.2449 -0.0809
  136SAPE   O2214716   4.993   6.250  10.748 -0.1320 -0.0894  0.1379
  136SAPE   C2214717   5.063   6.492  10.724 -0.4418 -0.6568 -0.3776
  136SAPE   H2R14718   5.019   6.569  10.791 -1.3329 -0.9513 -0.6217
  136SAPE   H2S14719   5.149   6.443  10.775 -1.1984 -0.5518  1.0270
  136SAPE    C314720   4.660   6.338  10.536 -0.9553  0.0856  0.1897
  136SAPE    HX14721   4.601   6.421  10.581 -1.1489  0.4261 -0.6877
  136SAPE    HY14722   4.586   6.260  10.510  0.3671 -0.8272 -0.9937
  136SAPE   O3114723   4.735   6.363  10.410  0.4633  0.1298 -0.1413
  136SAPE   C3114724   4.733   6.492  10.379 -0.1399 -0.6326  0.3145
  136SAPE   O3214725   4.701   6.582  10.459  0.2122 -0.2002  0.2032
  136SAPE   C3214726   4.764   6.516  10.231  0.0575  0.7793 -0.0264
  136SAPE   H2X14727   4.695   6.465  10.160 -1.8980  1.7214  1.0808
  136SAPE   H2Y14728   4.868   6.481  10.221  0.7040  1.8173  2.2331
  136SAPE   C2314729   5.106   6.553  10.587  0.0367  0.2502  0.1237
  136SAPE   H3R14730   5.149   6.654  10.603 -1.2385  1.0661 -1.3475
  136SAPE   H3S14731   5.018   6.567  10.520  1.6121  0.2823 -2.0311
  136SAPE   C2414732   5.204   6.469  10.506 -0.1085  0.2684 -0.1374
  136SAPE   H4R14733   5.138   6.385  10.478  1.3244 -0.6539 -0.8868
  136SAPE   H4S14734   5.289   6.425  10.562  1.1694  1.6346 -0.9179
  136SAPE   C2514735   5.258   6.541  10.384  0.0517  0.3685 -0.1789
  136SAPE   H5R14736   5.325   6.627  10.399 -1.1288  1.0814  1.1466
  136SAPE   C2614737   5.218   6.522  10.256 -0.2576 -0.5280 -0.7199
  136SAPE   H6R14738   5.254   6.584  10.173  0.3155  0.9547  0.5901
  136SAPE   C2714739   5.122   6.422  10.200  0.5311  0.2937 -0.1920
  136SAPE   H7R14740   5.039   6.466  10.140 -0.9818  0.4875  1.9371
  136SAPE   H7S14741   5.063   6.367  10.275  1.4594 -0.1198  0.2486
  136SAPE   C2814742   5.190   6.337  10.103  0.4376  0.3698  0.0845
  136SAPE   H8R14743   5.281   6.380  10.059  0.1763  1.3347  0.4449
  136SAPE   C2914744   5.147   6.213  10.069 -0.4151 -0.0482  0.7498
  136SAPE   H9R14745   5.202   6.157   9.991 -1.1231  0.8174 -0.4111
  136SAPE  C21014746   5.031   6.136  10.123  0.0514 -0.2814 -0.0232
  136SAPE  H10R14747   4.939   6.185  10.086 -0.5907 -1.8461 -0.6033
  136SAPE  H10S14748   5.028   6.150  10.233  0.2852 -1.9488  0.2285
  136SAPE  C21114749   5.029   5.988  10.093 -0.1240 -0.1826 -0.0440
  136SAPE  H11R14750   5.102   5.921  10.139 -0.6192 -0.6866  0.0162
  136SAPE  C21214751   4.932   5.925  10.017 -0.8009 -0.8558 -0.3030
  136SAPE  H12R14752   4.948   5.817  10.003  3.8034 -0.6743  1.6141
  136SAPE  C21314753   4.820   5.982   9.938 -0.0958  0.5215 -0.1713
  136SAPE  H13R14754   4.779   6.071   9.991 -0.2271 -0.1198  0.8221
  136SAPE  H13S14755   4.727   5.922   9.928 -0.0569  0.4222  0.0713
  136SAPE  C21414756   4.877   6.014   9.802  0.4599 -0.4859  0.5399
  136SAPE  H14R14757   4.983   5.989   9.788  0.8040  0.7691  0.8066
  136SAPE  C21514758   4.810   6.068   9.698 -0.0147 -0.5896 -0.1022
  136SAPE  H15R14759   4.859   6.069   9.599  0.0216  2.0657 -0.1157
  136SAPE  C21614760   4.663   6.103   9.700  0.3815 -0.4180  0.4915
  136SAPE  H16R14761   4.608   6.074   9.793  0.8544 -3.2622 -0.0010
  136SAPE  H16S14762   4.608   6.041   9.626 -0.2111  2.0418 -1.2465
  136SAPE  C21714763   4.651   6.251   9.664 -0.5918 -0.4088 -0.1897
  136SAPE  H17R14764   4.742   6.290   9.613 -0.4807  1.4495  1.3178
  136SAPE  H17S14765   4.646   6.304   9.761 -2.3579 -0.7867 -0.0433
  136SAPE  C21814766   4.514   6.282   9.601 -0.0773 -0.3125 -0.1627
  136SAPE  H18R14767   4.430   6.233   9.654 -0.7392 -0.6645 -1.4834
  136SAPE  H18S14768   4.511   6.236   9.500  0.0828  0.5174 -0.5592
  136SAPE  C21914769   4.499   6.437   9.571  0.0320  0.0221 -0.2174
  136SAPE  H19R14770   4.600   6.467   9.536 -0.0882  0.4732 -0.1769
  136SAPE  H19S14771   4.485   6.478   9.673  1.6686  0.1325 -0.0256
  136SAPE  C22014772   4.392   6.470   9.460  1.2088 -0.2479  0.0782
  136SAPE  H20R14773   4.433   6.460   9.357 -2.2659 -0.0781 -1.4744
  136SAPE  H20S14774   4.352   6.572   9.476  0.8802 -0.2662 -0.5758
  136SAPE  H20T14775   4.313   6.393   9.478  1.1352  0.2202  1.9120
  136SAPE   C3314776   4.775   6.675  10.204 -0.4515  0.1290  0.2822
  136SAPE   H3X14777   4.836   6.719  10.285 -0.6221 -0.2009  0.5928
  136SAPE   H3Y14778   4.666   6.698  10.197 -0.6524 -0.9639 -0.4971
  136SAPE   C3414779   4.828   6.715  10.063 -0.3072  0.4110 -1.1872
  136SAPE   H4X14780   4.925   6.662  10.057 -0.8958 -0.8749  0.0768
  136SAPE   H4Y14781   4.830   6.825  10.047  2.3693  0.5849 -0.1631
  136SAPE   C3514782   4.728   6.667   9.949 -0.3561 -0.0979 -0.8658
  136SAPE   H5X14783   4.631   6.705   9.986  1.1879  1.4252  1.9786
  136SAPE   H5Y14784   4.733   6.556   9.950  0.5935 -0.0644 -0.1403
  136SAPE   C3614785   4.750   6.733   9.815 -0.3999  0.0356 -0.6313
  136SAPE   H6X14786   4.752   6.842   9.833 -1.4047 -0.1205  0.5591
  136SAPE   H6Y14787   4.672   6.719   9.737  0.0042 -0.5092 -0.9453
  136SAPE   C3714788   4.889   6.710   9.744 -0.2411 -0.5059 -0.4865
  136SAPE   H7X14789   4.971   6.724   9.818 -1.0960 -1.8666  0.7763
  136SAPE   H7Y14790   4.902   6.796   9.675 -0.8928 -1.0511 -1.2956
  136SAPE   C3814791   4.893   6.573   9.675  0.1637 -0.1181  0.3869
  136SAPE   H8X14792   4.815   6.570   9.596 -2.6453 -1.2834  3.0245
  136SAPE   H8Y14793   4.861   6.501   9.753  0.0951 -0.3457  0.1505
  136SAPE   C3914794   5.039   6.538   9.630  0.1175  0.3931  0.5806
  136SAPE   H9X14795   5.115   6.578   9.701  0.1514  1.0673  0.1679
  136SAPE   H9Y14796   5.057   6.589   9.533 -2.8098  0.6321  0.0758
  136SAPE  C31014797   5.052   6.387   9.619 -0.0900  0.4992  0.0130
  136SAPE  H10X14798   4.974   6.351   9.549 -0.1300  0.1233  0.2437
  136SAPE  H10Y14799   5.021   6.351   9.719 -0.5843  3.5608  1.0647
  136SAPE  C31114800   5.187   6.325   9.572 -0.1383 -0.4870  0.1414
  136SAPE  H11X14801   5.261   6.343   9.653  2.9848 -0.8029 -2.4165
  136SAPE  H11Y14802   5.237   6.376   9.487 -0.0836 -0.5789  0.1171
  136SAPE  C31214803   5.162   6.170   9.548 -0.0124 -0.2610  0.5823
  136SAPE  H12X14804   5.090   6.158   9.465 -2.6331  1.8046  2.3910
  136SAPE  H12Y14805   5.111   6.136   9.641 -1.4332  0.8675  0.2413
  136SAPE  C31314806   5.285   6.078   9.523 -0.9373 -0.2753 -0.7117
  136SAPE  H13X14807   5.244   5.980   9.492 -0.3895 -0.2702 -1.4795
  136SAPE  H13Y14808   5.341   6.074   9.620 -1.5652 -3.7772 -0.3461
  136SAPE  C31414809   5.377   6.131   9.401 -0.0237 -0.0863 -1.2518
  136SAPE  H14X14810   5.448   6.206   9.442 -2.0130  0.3399  1.7122
  136SAPE  H14Y14811   5.305   6.194   9.343  0.4514 -0.1827 -1.9512
  136SAPE  C31514812   5.437   6.028   9.309  0.7261  0.9326 -0.5297
  136SAPE  H15X14813   5.365   5.949   9.276  1.6744  0.3306 -1.2080
  136SAPE  H15Y14814   5.528   5.976   9.346  1.6498  2.6277 -0.3621
  136SAPE  C31614815   5.477   6.083   9.177 -0.9844 -0.0379  0.5665
  136SAPE  H16X14816   5.561   6.154   9.191 -0.3282 -0.8657  0.8761
  136SAPE  H16Y14817   5.394   6.130   9.120 -2.2037 -2.2108  0.4312
  136SAPE  C31714818   5.534   5.971   9.078  0.0334 -0.8453 -0.4605
  136SAPE  H17X14819   5.463   5.887   9.090  0.1898 -0.6977  1.8622
  136SAPE  H17Y14820   5.633   5.940   9.117  0.0620 -1.3291 -0.9173
  136SAPE  C31814821   5.544   6.006   8.927 -0.2162  0.1357 -0.2746
  136SAPE  H18X14822   5.571   5.914   8.870 -0.0965 -0.7052  1.0989
  136SAPE  H18Y14823   5.616   6.086   8.901 -2.0669  1.3940 -1.7921
  136SAPE  H18Z14824   5.444   6.038   8.891 -1.5817 -0.5141  2.6319
  137SAPE     N14825   1.414   4.558  10.892  0.5522 -0.1885 -0.6154
  137SAPE   HN114826   1.324   4.576  10.941  1.4403 -2.2796  1.9777
  137SAPE   HN214827   1.408   4.467  10.844 -0.0700  0.3806 -1.6550
  137SAPE   HN314828   1.484   4.545  10.967 -1.1774  1.8621  1.5308
  137SAPE   C1214829   1.438   4.676  10.807 -0.5274 -0.3441 -0.4188
  137SAPE  H12A14830   1.339   4.696  10.760 -1.0256  0.6576  0.9747
  137SAPE  H12B14831   1.519   4.652  10.736 -2.0785 -1.3084 -1.9205
  137SAPE   C1114832   1.470   4.797  10.903  0.6339  0.8165 -0.0303
  137SAPE  H11A14833   1.377   4.815  10.962  0.4638 -1.2038  0.3897
  137SAPE  H11B14834   1.501   4.884  10.842  1.1642 -1.2768 -2.9378
  137SAPE     P14835   1.717   4.748  10.948  0.2875  0.1517 -0.0578
  137SAPE   O1314836   1.808   4.792  11.056 -0.0019 -0.1390  0.3421
  137SAPE   O1414837   1.736   4.614  10.896 -0.0344 -0.3211 -0.8853
  137SAPE   O1214838   1.576   4.765  10.998  0.9118 -0.4363 -0.3098
  137SAPE   O1114839   1.731   4.864  10.830  0.2201  0.2802  0.1899
  137SAPE    C114840   1.857   4.902  10.786 -0.4514  0.5640 -0.4641
  137SAPE    HA14841   1.873   5.002  10.830 -1.3449  0.8972 -0.8710
  137SAPE    HB14842   1.940   4.835  10.818 -1.4639 -0.3987  0.2320
  137SAPE    C214843   1.872   4.910  10.634  0.6676 -0.0651  0.2100
  137SAPE    HS14844   1.805   4.989  10.594  1.8644  0.8441 -0.0691
  137SAPE   O2114845   1.838   4.785  10.572 -0.1596 -0.2064  0.1149
  137SAPE   C2114846   1.703   4.770  10.557  0.4497 -0.6872  0.1424
  137SAPE   O2214847   1.620   4.854  10.583  0.5483 -0.2142 -1.1238
  137SAPE   C2214848   1.679   4.650  10.466 -0.2237  0.6825  0.5318
  137SAPE   H2R14849   1.645   4.564  10.529  1.7845 -0.2730  0.4113
  137SAPE   H2S14850   1.591   4.681  10.406 -0.4841  1.3637  1.2476
  137SAPE    C314851   2.015   4.957  10.597 -0.4769  0.9321  0.0671
  137SAPE    HX14852   2.070   4.860  10.600 -2.6858 -0.4268 -0.6334
  137SAPE    HY14853   2.046   5.034  10.670  2.6391  1.7516 -1.9037
  137SAPE   O3114854   2.013   5.015  10.461  0.1716 -0.1147 -0.1242
  137SAPE   C3114855   2.137   5.003  10.409  0.6885  0.2303 -0.2771
  137SAPE   O3214856   2.230   4.952  10.466  0.8939 -0.2549 -0.2674
  137SAPE   C3214857   2.145   5.068  10.272 -0.1479 -0.3541  0.1361
  137SAPE   H2X14858   2.206   5.159  10.292 -1.1072  0.1436  0.9182
  137SAPE   H2Y14859   2.045   5.096  10.233 -1.7528 -2.9399  2.0697
  137SAPE   C2314860   1.795   4.602  10.375 -0.2379  0.0016  0.5795
  137SAPE   H3R14861   1.849   4.514  10.417 -0.4305 -0.4517 -0.1039
  137SAPE   H3S14862   1.882   4.671  10.371 -0.2455  0.0010  0.4092
  137SAPE   C2414863   1.752   4.573  10.226  0.2393 -0.3253  0.7187
  137SAPE   H4R14864   1.667   4.502  10.218 -2.0205  2.2350  0.2793
  137SAPE   H4S14865   1.832   4.511  10.180 -0.9499 -0.3828 -1.4065
  137SAPE   C2514866   1.717   4.697  10.138  0.5990  0.0852  0.4240
  137SAPE   H5R14867   1.699   4.791  10.191 -0.4244  0.1152  0.0476
  137SAPE   C2614868   1.721   4.709  10.004  0.5021 -0.5944 -0.5617
  137SAPE   H6R14869   1.698   4.806   9.958  2.6179  0.5080  0.5822
  137SAPE   C2714870   1.751   4.595   9.906  0.7052 -0.6551  0.6736
  137SAPE   H7R14871   1.685   4.588   9.817  1.2825  0.7024  0.1062
  137SAPE   H7S14872   1.728   4.501   9.960 -1.0364 -0.8715 -0.3697
  137SAPE   C2814873   1.903   4.586   9.869  0.4860  0.7107  0.9889
  137SAPE   H8R14874   1.961   4.550   9.955  1.0966  1.8753  1.0833
  137SAPE   C2914875   1.961   4.599   9.746 -0.3051  0.9286  0.5458
  137SAPE   H9R14876   2.069   4.585   9.735 -0.4554  0.9475 -1.4435
  137SAPE  C21014877   1.886   4.625   9.619  1.1512  0.2539  0.5300
  137SAPE  H10R14878   1.818   4.712   9.609 -0.6999 -0.9361  2.1530
  137SAPE  H10S14879   1.818   4.541   9.590 -0.2777  1.7694 -0.7260
  137SAPE  C21114880   1.986   4.645   9.506  0.3049  0.4211  0.2069
  137SAPE  H11R14881   2.094   4.640   9.531  0.4153  0.7178 -0.2091
  137SAPE  C21214882   1.967   4.671   9.372 -0.7052  0.4741 -0.1058
  137SAPE  H12R14883   2.055   4.672   9.307 -1.7105 -3.0383 -1.7711
  137SAPE  C21314884   1.830   4.691   9.308 -0.4776  0.3617  0.2873
  137SAPE  H13R14885   1.779   4.769   9.369  1.5998  2.2198 -0.2287
  137SAPE  H13S14886   1.763   4.604   9.290 -2.1944  1.4880  0.8911
  137SAPE  C21414887   1.843   4.761   9.177  0.7029 -0.3289 -1.0564
  137SAPE  H14R14888   1.853   4.869   9.194 -1.6974 -0.0428 -1.2299
  137SAPE  C21514889   1.847   4.705   9.060 -0.1475 -0.3371 -0.2562
  137SAPE  H15R14890   1.844   4.770   8.972 -1.8300  2.3329  1.6311
  137SAPE  C21614891   1.839   4.560   9.033  0.1808 -0.5423  0.0415
  137SAPE  H16R14892   1.732   4.533   9.018  0.5603 -1.8190 -0.4535
  137SAPE  H16S14893   1.871   4.509   9.126 -1.1302  0.1634  0.9078
  137SAPE  C21714894   1.927   4.497   8.928  0.5271  0.1228 -0.8888
  137SAPE  H17R14895   1.902   4.389   8.925  0.0018  0.0894  1.9391
  137SAPE  H17S14896   2.028   4.500   8.975  0.0816 -3.3850  0.6188
  137SAPE  C21814897   1.946   4.571   8.791  0.3612  0.7723 -0.3278
  137SAPE  H18R14898   1.982   4.675   8.801  0.2588  0.9858 -1.8528
  137SAPE  H18S14899   1.849   4.593   8.740 -0.7000  0.9999  1.7110
  137SAPE  C21914900   2.042   4.508   8.688 -0.4184 -0.0773 -0.0357
  137SAPE  H19R14901   2.136   4.502   8.747 -1.8047 -0.4078  2.2837
  137SAPE  H19S14902   2.058   4.571   8.598 -0.6384  1.6621  1.0853
  137SAPE  C22014903   2.018   4.362   8.660  0.5534 -0.3096  0.0161
  137SAPE  H20R14904   1.938   4.351   8.583  0.0079  2.0043  0.1907
  137SAPE  H20S14905   2.008   4.299   8.751  1.3603  0.4203  0.6305
  137SAPE  H20T14906   2.114   4.333   8.612  1.1023  1.4156  0.0150
  137SAPE   C3314907   2.203   4.966  10.168 -0.4246 -0.0371  0.4357
  137SAPE   H3X14908   2.138   4.877  10.161  0.3283 -0.6838  1.2985
  137SAPE   H3Y14909   2.306   4.939  10.202  1.2717  1.1628 -3.1957
  137SAPE   C3414910   2.224   5.020  10.035  0.2360 -0.4141 -0.7771
  137SAPE   H4X14911   2.287   5.111  10.022  0.0547 -0.0737  0.5775
  137SAPE   H4Y14912   2.125   5.069  10.021 -0.8358 -1.5696  2.1609
  137SAPE   C3514913   2.247   4.916   9.931  0.3886  0.4690  0.6885
  137SAPE   H5X14914   2.155   4.855   9.916 -1.5526  3.3446  0.1327
  137SAPE   H5Y14915   2.336   4.856   9.959 -1.4965 -2.5039  0.7756
  137SAPE   C3614916   2.271   4.991   9.795 -0.2099 -0.4294 -0.2201
  137SAPE   H6X14917   2.373   5.033   9.806 -1.3889  2.6493 -0.1643
  137SAPE   H6Y14918   2.188   5.065   9.784 -1.1339 -1.5007 -0.7319
  137SAPE   C3714919   2.265   4.893   9.671  0.0930  0.1495 -0.2291
  137SAPE   H7X14920   2.177   4.826   9.677 -1.5717  2.2978  0.8820
  137SAPE   H7Y14921   2.354   4.827   9.670  1.2423  1.6558 -1.0723
  137SAPE   C3814922   2.272   4.967   9.534 -0.1578  0.2913 -0.4879
  137SAPE   H8X14923   2.364   5.030   9.537  0.7809 -0.9644 -1.7295
  137SAPE   H8Y14924   2.183   5.033   9.528  0.1434  0.8003  0.3720
  137SAPE   C3914925   2.284   4.871   9.416  0.4231 -1.0017  0.3613
  137SAPE   H9X14926   2.223   4.778   9.423  0.3846 -1.3005 -2.7900
  137SAPE   H9Y14927   2.393   4.850   9.414  0.9662  1.4328  1.3509
  137SAPE  C31014928   2.252   4.942   9.284  0.2165  0.0305  1.1727
  137SAPE  H10X14929   2.290   5.046   9.285  1.3205 -0.3705  1.5868
  137SAPE  H10Y14930   2.142   4.960   9.273  0.3061  0.1616  0.4208
  137SAPE  C31114931   2.292   4.876   9.155 -0.7999 -0.2324  0.1134
  137SAPE  H11X14932   2.271   4.767   9.145 -0.0997 -0.4445  0.8619
  137SAPE  H11Y14933   2.400   4.888   9.131 -0.6314 -0.6371  0.6380
  137SAPE  C31214934   2.218   4.935   9.035 -0.5609 -0.6692  1.4926
  137SAPE  H12X14935   2.255   5.037   9.014  1.6961 -1.0331  3.2459
  137SAPE  H12Y14936   2.110   4.940   9.062 -0.8867  0.3368  0.1260
  137SAPE  C31314937   2.239   4.857   8.909 -1.2197  0.1127  0.0178
  137SAPE  H13X14938   2.199   4.754   8.919 -0.0387 -0.3056  0.5581
  137SAPE  H13Y14939   2.349   4.859   8.900 -1.2642 -1.2269 -1.2406
  137SAPE  C31414940   2.178   4.929   8.787  0.2591  0.2759 -0.8679
  137SAPE  H14X14941   2.068   4.939   8.792  0.1816  0.4424 -2.3889
  137SAPE  H14Y14942   2.202   4.870   8.696  1.7260 -0.0647 -0.2848
  137SAPE  C31514943   2.231   5.073   8.767  0.0161 -0.4636  0.6417
  137SAPE  H15X14944   2.341   5.072   8.781 -0.0121 -0.3533  0.8714
  137SAPE  H15Y14945   2.185   5.147   8.837 -1.6204 -2.7300  2.0794
  137SAPE  C31614946   2.210   5.120   8.623  0.2460 -1.3346 -0.1551
  137SAPE  H16X14947   2.257   5.050   8.551  2.7030  1.1348 -1.1212
  137SAPE  H16Y14948   2.263   5.217   8.617 -0.9415 -0.7516 -2.8340
  137SAPE  C31714949   2.067   5.167   8.578 -0.7012  0.5976 -0.2738
  137SAPE  H17X14950   2.018   5.252   8.629 -0.9827  0.2711  0.0091
  137SAPE  H17Y14951   1.995   5.084   8.599 -1.4982  0.6085 -2.6659
  137SAPE  C31814952   2.059   5.197   8.426  0.1587  0.1821  0.7903
  137SAPE  H18X14953   2.102   5.109   8.373  1.8324  0.8286  1.0244
  137SAPE  H18Y14954   2.117   5.287   8.398 -1.4674  1.0064 -0.0971
  137SAPE  H18Z14955   1.952   5.204   8.398  0.8263  0.1600 -2.0255
  138SAPE     N14956   6.490   4.699  10.722  0.2680 -0.5646  0.2959
  138SAPE   HN114957   6.523   4.723  10.626 -0.1533  0.0094  0.2886
  138SAPE   HN214958   6.548   4.753  10.789  0.0910  0.2147 -0.1654
  138SAPE   HN314959   6.512   4.598  10.730 -0.2829 -0.8929 -1.6911
  138SAPE   C1214960   6.346   4.741  10.753 -0.1825  0.5268  0.3801
  138SAPE  H12A14961   6.325   4.733  10.862 -1.1838 -0.2853  0.1437
  138SAPE  H12B14962   6.286   4.658  10.711 -0.2199  0.0899  1.2607
  138SAPE   C1114963   6.314   4.871  10.683 -0.5168 -0.1520 -1.0283
  138SAPE  H11A14964   6.203   4.866  10.690 -0.3812 -0.8024  1.7971
  138SAPE  H11B14965   6.343   4.871  10.576  1.0464  1.0234 -0.6473
  138SAPE     P14966   6.322   5.131  10.728  0.2152 -0.0779  0.1207
  138SAPE   O1314967   6.190   5.162  10.791 -0.5893 -0.0233  0.0692
  138SAPE   O1414968   6.443   5.206  10.766  0.1317  0.1944 -0.0567
  138SAPE   O1214969   6.361   4.983  10.758  0.2171  0.0571  0.1416
  138SAPE   O1114970   6.307   5.130  10.573 -0.4281 -0.3612  0.2518
  138SAPE    C114971   6.429   5.130  10.496  0.5939  0.3703  0.7993
  138SAPE    HA14972   6.473   5.231  10.486 -2.2644  2.0484  3.5949
  138SAPE    HB14973   6.499   5.056  10.541  2.3388  2.3275  1.4381
  138SAPE    C214974   6.403   5.080  10.349 -0.1459  0.7280 -0.9074
  138SAPE    HS14975   6.350   4.982  10.352  3.0543 -1.1959 -2.1013
  138SAPE   O2114976   6.533   5.063  10.285 -0.3249 -0.6522  0.7334
  138SAPE   C2114977   6.530   4.984  10.182  0.3816 -0.1848  0.2407
  138SAPE   O2214978   6.452   4.893  10.162  0.2311  0.2674  0.1736
  138SAPE   C2214979   6.654   5.009  10.088 -0.1168 -0.3008  0.6622
  138SAPE   H2R14980   6.710   5.101  10.115 -1.7359  2.2350 -3.7191
  138SAPE   H2S14981   6.723   4.926  10.117 -0.1431 -0.4212  0.3817
  138SAPE    C314982   6.326   5.191  10.269 -0.0695  0.3210 -0.9955
  138SAPE    HX14983   6.395   5.276  10.253 -0.1010  0.1703 -1.9976
  138SAPE    HY14984   6.248   5.227  10.340  1.4729 -0.4205  1.1404
  138SAPE   O3114985   6.281   5.140  10.146  0.4546  0.2685  0.0851
  138SAPE   C3114986   6.158   5.086  10.140  0.0178  0.0107  0.3374
  138SAPE   O3214987   6.083   5.067  10.235 -0.3066  0.4920 -0.6493
  138SAPE   C3214988   6.126   5.058   9.997 -0.0990 -0.3297  0.4781
  138SAPE   H2X14989   6.032   5.114   9.980 -0.9621 -1.0120  2.6600
  138SAPE   H2Y14990   6.109   4.949   9.984 -1.2994 -0.2107  0.9337
  138SAPE   C2314991   6.611   5.016   9.938 -0.8190 -0.3055 -0.8331
  138SAPE   H3R14992   6.540   5.099   9.917 -3.1397 -1.5727  1.3502
  138SAPE   H3S14993   6.551   4.925   9.916  0.8986 -2.1000  1.3239
  138SAPE   C2414994   6.745   5.007   9.849  0.1276  0.4000  0.1993
  138SAPE   H4R14995   6.796   4.909   9.862 -0.4509  0.0863  0.1448
  138SAPE   H4S14996   6.814   5.091   9.872  3.0026 -2.0209  0.9808
  138SAPE   C2514997   6.707   5.009   9.706 -0.0799 -0.0830  0.2014
  138SAPE   H5R14998   6.642   4.925   9.678  0.8919 -1.6259  2.2758
  138SAPE   C2614999   6.737   5.110   9.623  0.2796  0.1172  0.3851
  138SAPE   H6R15000   6.690   5.108   9.523 -2.0649  0.5819  1.3954
  138SAPE   C2715001   6.810   5.240   9.646 -0.9860  0.5523 -0.0027
  138SAPE   H7R15002   6.915   5.221   9.615 -0.3123  2.7614  0.7522
  138SAPE   H7S15003   6.819   5.271   9.753  0.1725 -0.3258  0.1702
  138SAPE   C2815004   6.741   5.351   9.563 -0.0038 -0.1791  0.4616
  138SAPE   H8R15005   6.638   5.379   9.588 -0.2682  1.4492 -2.0048
  138SAPE   C2915006   6.803   5.419   9.465 -0.2330  0.2235 -0.2599
  138SAPE   H9R15007   6.738   5.493   9.415 -0.3062  0.7059  0.5461
  138SAPE  C21015008   6.940   5.414   9.412 -0.7021 -0.1793 -0.4623
  138SAPE  H10R15009   7.008   5.411   9.500 -1.2028  0.8444 -0.0345
  138SAPE  H10S15010   6.962   5.513   9.366  0.3138  0.3085  1.0168
  138SAPE  C21115011   6.962   5.298   9.319 -1.0599 -0.0117  0.1678
  138SAPE  H11R15012   6.917   5.205   9.356 -0.5642 -0.2999  0.0556
  138SAPE  C21215013   7.016   5.302   9.197 -0.0282 -0.0190 -0.7950
  138SAPE  H12R15014   7.032   5.206   9.147  1.4287 -0.7250  0.9377
  138SAPE  C21315015   7.071   5.425   9.138  0.0905 -0.5005 -0.2726
  138SAPE  H13R15016   7.119   5.478   9.223 -2.6454  0.9874  0.4562
  138SAPE  H13S15017   6.991   5.492   9.101 -0.2683 -1.7722 -1.9017
  138SAPE  C21415018   7.181   5.413   9.037 -0.1340 -0.5455  0.1158
  138SAPE  H14R15019   7.268   5.361   9.081 -0.9718 -4.3751 -2.2572
  138SAPE  C21515020   7.184   5.459   8.915 -0.1011  0.4118  0.5829
  138SAPE  H15R15021   7.269   5.427   8.853  1.0895  1.5122  1.5969
  138SAPE  C21615022   7.078   5.536   8.836 -0.0247  0.1369 -0.9397
  138SAPE  H16R15023   7.129   5.609   8.770 -0.6054  1.8751  0.4472
  138SAPE  H16S15024   7.010   5.592   8.904  0.5590 -0.1243 -0.1190
  138SAPE  C21715025   6.979   5.448   8.760  0.0728  0.0884 -0.5154
  138SAPE  H17R15026   6.907   5.400   8.831  0.8345  0.2746  0.4036
  138SAPE  H17S15027   7.034   5.372   8.702 -0.3004  1.0338 -2.1735
  138SAPE  C21815028   6.886   5.524   8.653  0.2556 -0.2234  1.0106
  138SAPE  H18R15029   6.960   5.566   8.581  0.3017 -3.0302 -0.7381
  138SAPE  H18S15030   6.852   5.617   8.703  0.4400  0.6425 -0.4075
  138SAPE  C21915031   6.782   5.451   8.579 -0.0075 -0.1057  0.0391
  138SAPE  H19R15032   6.734   5.390   8.658  1.3034 -0.9411  0.2111
  138SAPE  H19S15033   6.834   5.389   8.503 -1.5586  1.5431 -2.5129
  138SAPE  C22015034   6.677   5.536   8.506 -0.1315  0.0459 -0.5514
  138SAPE  H20R15035   6.577   5.490   8.491  0.2588 -0.9341 -0.2054
  138SAPE  H20S15036   6.714   5.576   8.409 -1.3837  1.5083 -0.4785
  138SAPE  H20T15037   6.660   5.620   8.577  1.6923  0.5116 -0.6248
  138SAPE   C3315038   6.239   5.102   9.894  0.3937 -0.4021  0.6143
  138SAPE   H3X15039   6.333   5.051   9.924  1.2494  0.2293 -0.9386
  138SAPE   H3Y15040   6.244   5.212   9.887 -4.8104  0.1431  1.3236
  138SAPE   C3415041   6.203   5.046   9.753  0.1582  0.4731  0.3067
  138SAPE   H4X15042   6.099   5.075   9.728  0.1733 -1.0042 -1.7452
  138SAPE   H4Y15043   6.204   4.935   9.746  0.5226  0.5470 -0.9481
  138SAPE   C3515044   6.294   5.102   9.648  0.9132  0.4791 -0.1715
  138SAPE   H5X15045   6.395   5.105   9.695  1.6545 -4.6237 -0.8445
  138SAPE   H5Y15046   6.260   5.205   9.623 -3.3483 -0.2344  1.7297
  138SAPE   C3615047   6.301   5.011   9.519 -0.5034  0.0767 -0.1024
  138SAPE   H6X15048   6.197   4.977   9.502 -0.7674  0.4792  0.6413
  138SAPE   H6Y15049   6.372   4.936   9.560 -0.2900  1.1937  1.7125
  138SAPE   C3715050   6.355   5.091   9.402 -0.0349  0.4119 -0.0758
  138SAPE   H7X15051   6.458   5.124   9.430 -0.3832  1.8793 -0.4745
  138SAPE   H7Y15052   6.291   5.179   9.381 -0.7142 -0.4716 -1.9352
  138SAPE   C3815053   6.376   5.000   9.282  0.0126 -0.1270 -0.0190
  138SAPE   H8X15054   6.417   4.902   9.314 -1.1626 -1.0815 -1.3163
  138SAPE   H8Y15055   6.446   5.048   9.211 -1.5872  1.9934 -0.2651
  138SAPE   C3915056   6.238   4.970   9.214  0.2208 -0.7591  0.5517
  138SAPE   H9X15057   6.177   5.061   9.196  0.6578 -0.2877  1.4300
  138SAPE   H9Y15058   6.176   4.916   9.289 -0.4237  2.3248  2.3998
  138SAPE  C31015059   6.255   4.906   9.080 -0.2457  0.2435  0.2487
  138SAPE  H10X15060   6.150   4.882   9.052 -0.6576  0.9413  1.1479
  138SAPE  H10Y15061   6.324   4.818   9.088 -0.5415 -0.2364 -1.9436
  138SAPE  C31115062   6.310   5.010   8.983 -0.0796  0.4536 -0.0304
  138SAPE  H11X15063   6.410   5.034   9.026  0.5509  0.7262 -1.5870
  138SAPE  H11Y15064   6.249   5.102   8.970 -0.7244  0.1376  0.6975
  138SAPE  C31215065   6.340   4.954   8.846 -0.2238 -0.3692  0.2457
  138SAPE  H12X15066   6.242   4.919   8.806 -1.7504  2.7220  0.9902
  138SAPE  H12Y15067   6.407   4.866   8.859 -0.1982 -0.7071 -1.8924
  138SAPE  C31315068   6.407   5.062   8.760 -0.1181  0.3524  0.6450
  138SAPE  H13X15069   6.518   5.064   8.762 -0.0619 -0.4993  3.3733
  138SAPE  H13Y15070   6.388   5.167   8.792  2.0945  1.1871 -0.6167
  138SAPE  C31415071   6.362   5.028   8.610 -0.3666 -0.3151 -0.0562
  138SAPE  H14X15072   6.252   5.026   8.594 -0.1479 -3.3947 -1.9090
  138SAPE  H14Y15073   6.397   4.923   8.601  1.4614  0.0876  1.6794
  138SAPE  C31515074   6.423   5.118   8.505  0.3480 -0.1595  0.3920
  138SAPE  H15X15075   6.403   5.225   8.527 -3.4635 -0.8708  1.0850
  138SAPE  H15Y15076   6.382   5.098   8.404 -0.8686 -1.4248  1.1032
  138SAPE  C31615077   6.573   5.086   8.482  0.9245  0.1705 -0.0437
  138SAPE  H16X15078   6.584   4.978   8.459  1.0577  0.0522  0.5523
  138SAPE  H16Y15079   6.623   5.111   8.578 -0.8380  2.5198  0.3360
  138SAPE  C31715080   6.655   5.157   8.376  0.0926 -0.2569  0.0741
  138SAPE  H17X15081   6.656   5.265   8.399 -2.4962 -0.1155 -0.1974
  138SAPE  H17Y15082   6.599   5.138   8.281  0.0135  0.9661 -0.1332
  138SAPE  C31815083   6.801   5.111   8.360  0.9223 -0.4825  0.3995
  138SAPE  H18X15084   6.845   5.108   8.462 -1.8487  0.6734  1.7379
  138SAPE  H18Y15085   6.849   5.183   8.290 -2.2254 -1.0460 -2.6170
  138SAPE  H18Z15086   6.797   5.010   8.314 -0.4358  0.1190 -0.8782
  139SAPE     N15087   4.242   3.108  10.909  0.3454  0.4481  0.0516
  139SAPE   HN115088   4.336   3.152  10.909 -0.2430  1.7658 -1.1057
  139SAPE   HN215089   4.187   3.155  10.983  0.0737  1.2075 -0.6187
  139SAPE   HN315090   4.247   3.007  10.933 -1.8000  0.0669 -0.8500
  139SAPE   C1215091   4.190   3.121  10.776 -0.3932 -0.1395  0.2437
  139SAPE  H12A15092   4.241   3.047  10.712  1.8973  0.4129  1.2940
  139SAPE  H12B15093   4.211   3.224  10.739  0.0086 -0.0976  0.5712
  139SAPE   C1115094   4.039   3.087  10.767  0.5290  0.1216 -0.3419
  139SAPE  H11A15095   4.004   3.102  10.663  0.7559 -1.0229 -0.5914
  139SAPE  H11B15096   3.987   3.166  10.825  0.8727  0.4519 -0.4813
  139SAPE     P15097   3.886   2.880  10.772  0.0488  0.4753 -0.1334
  139SAPE   O1315098   3.887   2.771  10.872  0.3580  0.3908  0.2372
  139SAPE   O1415099   3.773   2.973  10.771 -0.1841 -0.7496 -0.6859
  139SAPE   O1215100   4.015   2.958  10.813  0.2518 -0.1831 -0.6851
  139SAPE   O1115101   3.918   2.820  10.628  0.0240  0.1588  0.2872
  139SAPE    C115102   4.046   2.773  10.598  0.1612  0.4261 -0.7365
  139SAPE    HA15103   4.132   2.824  10.645  1.2750 -0.6104 -1.5765
  139SAPE    HB15104   4.045   2.670  10.639 -0.6640  0.2147 -1.2413
  139SAPE    C215105   4.060   2.752  10.444 -0.8030  0.6014 -0.3814
  139SAPE    HS15106   4.155   2.694  10.441 -0.2298  1.4578  0.7051
  139SAPE   O2115107   4.055   2.875  10.370  0.0795  0.5474  0.7472
  139SAPE   C2115108   4.158   2.955  10.384  0.2825  0.6122 -0.3378
  139SAPE   O2215109   4.261   2.924  10.434  0.0327  0.2256 -0.1686
  139SAPE   C2215110   4.123   3.089  10.329  0.6177  0.7030  0.5338
  139SAPE   H2R15111   4.019   3.122  10.352  0.5069  3.3936 -2.9903
  139SAPE   H2S15112   4.180   3.163  10.389  0.2582  0.5728  1.0493
  139SAPE    C315113   3.948   2.651  10.397  0.3939  0.0196 -0.3597
  139SAPE    HX15114   3.850   2.696  10.423 -0.9791 -2.9449 -0.0388
  139SAPE    HY15115   3.953   2.560  10.460 -0.9352 -0.3775 -0.7919
  139SAPE   O3115116   3.953   2.625  10.254 -0.5923 -0.3529  0.1893
  139SAPE   C3115117   3.985   2.506  10.221  0.1591  0.0956 -0.3510
  139SAPE   O3215118   4.030   2.423  10.299  0.2162 -0.0136  0.3362
  139SAPE   C3215119   3.959   2.492  10.073 -0.2403  0.5500  0.2306
  139SAPE   H2X15120   4.004   2.584  10.029  0.8485 -0.4412 -0.7967
  139SAPE   H2Y15121   3.849   2.503  10.062 -0.3271  0.2906  0.7797
  139SAPE   C2315122   4.155   3.114  10.183  0.4131 -0.2292  0.3803
  139SAPE   H3R15123   4.236   3.048  10.144 -0.9385 -1.8504  0.2410
  139SAPE   H3S15124   4.176   3.223  10.175  0.7458 -0.1507  2.0239
  139SAPE   C2415125   4.032   3.099  10.092  1.1333 -0.5072  0.5200
  139SAPE   H4R15126   4.034   3.167  10.004  0.6357 -1.2992 -0.1193
  139SAPE   H4S15127   3.944   3.135  10.148  1.9547  3.0083 -0.2086
  139SAPE   C2515128   4.010   2.962  10.047 -0.1045 -0.0575  0.7494
  139SAPE   H5R15129   3.970   2.896  10.125  1.4337 -1.1703  0.6547
  139SAPE   C2615130   4.036   2.900   9.931  0.0621 -0.4710  0.0476
  139SAPE   H6R15131   4.016   2.792   9.919 -1.2658 -0.2507  0.1598
  139SAPE   C2715132   4.087   2.969   9.800 -0.1688 -0.5379  0.4269
  139SAPE   H7R15133   4.123   2.896   9.725  0.4932  1.1537 -0.9779
  139SAPE   H7S15134   4.179   3.024   9.828 -0.6748 -0.1284  1.3547
  139SAPE   C2815135   3.993   3.070   9.732  0.3833 -0.0691 -0.5692
  139SAPE   H8R15136   3.983   3.164   9.788 -0.5686 -1.9427  2.6188
  139SAPE   C2915137   3.921   3.060   9.618  0.9638 -0.2194 -0.1447
  139SAPE   H9R15138   3.853   3.138   9.581 -0.8960 -2.2769 -1.3030
  139SAPE  C21015139   3.911   2.935   9.529 -0.3512 -0.2273  0.4261
  139SAPE  H10R15140   3.804   2.917   9.505  0.6004 -1.4643 -3.7700
  139SAPE  H10S15141   3.950   2.838   9.565  0.7594  0.3983  0.9579
  139SAPE  C21115142   3.985   2.970   9.400  0.0286 -0.9068 -0.1791
  139SAPE  H11R15143   4.075   3.028   9.422 -0.4678 -0.4440  0.6784
  139SAPE  C21215144   3.944   2.945   9.272  0.7030  0.3459  0.0938
  139SAPE  H12R15145   4.011   2.974   9.190  1.8140 -0.9836  0.4780
  139SAPE  C21315146   3.818   2.866   9.224 -0.1974 -0.5583  0.3299
  139SAPE  H13R15147   3.734   2.891   9.292 -1.7875  1.1778 -2.1616
  139SAPE  H13S15148   3.837   2.757   9.241 -1.6144 -0.8947 -0.1499
  139SAPE  C21415149   3.789   2.886   9.078  0.2097 -0.8932  0.1289
  139SAPE  H14R15150   3.706   2.954   9.054  1.3682  0.0520 -1.3864
  139SAPE  C21515151   3.867   2.851   8.976  0.1632 -0.5514 -0.2453
  139SAPE  H15R15152   3.841   2.868   8.871 -1.7193 -1.4354  0.0244
  139SAPE  C21615153   3.989   2.762   8.987 -0.2717 -1.1186 -0.4159
  139SAPE  H16R15154   3.989   2.699   9.079 -0.3478 -0.0629  0.3192
  139SAPE  H16S15155   4.072   2.831   9.012 -1.9909  0.0816  2.5667
  139SAPE  C21715156   4.014   2.684   8.867  0.1125 -0.1778  0.3501
  139SAPE  H17R15157   4.123   2.663   8.863  0.2459  0.6683 -1.8237
  139SAPE  H17S15158   4.012   2.746   8.774 -2.8991  0.3060  0.6191
  139SAPE  C21815159   3.930   2.556   8.838  0.2319 -0.9146  0.5505
  139SAPE  H18R15160   3.828   2.597   8.821  1.0317  0.5988 -0.9499
  139SAPE  H18S15161   3.920   2.484   8.921  0.7312 -0.2843  1.1673
  139SAPE  C21915162   3.984   2.478   8.718  0.3163 -0.4248  0.3797
  139SAPE  H19R15163   3.925   2.384   8.718  1.6444 -1.3038 -1.1283
  139SAPE  H19S15164   4.088   2.445   8.737 -0.2167 -0.3716  4.2245
  139SAPE  C22015165   3.971   2.556   8.584 -0.2856 -0.2867  0.5052
  139SAPE  H20R15166   4.025   2.653   8.584 -2.4422  0.9779  1.0465
  139SAPE  H20S15167   3.865   2.575   8.558 -0.4789  1.2219  2.2205
  139SAPE  H20T15168   4.019   2.497   8.503 -1.2679 -0.6260  0.1597
  139SAPE   C3315169   4.002   2.363  10.004 -0.0471  0.4311  0.5752
  139SAPE   H3X15170   3.977   2.278  10.071 -0.4353  2.7517  3.6107
  139SAPE   H3Y15171   4.113   2.373  10.006 -0.1797  2.3700  0.2467
  139SAPE   C3415172   3.963   2.358   9.857  0.8465 -0.0593  0.2247
  139SAPE   H4X15173   3.857   2.390   9.863  0.2357 -2.0639  1.0687
  139SAPE   H4Y15174   3.964   2.264   9.799  1.3952  0.9651 -1.4996
  139SAPE   C3515175   4.049   2.450   9.768  0.0956  0.4991  0.0459
  139SAPE   H5X15176   4.154   2.414   9.773 -0.6391 -1.6388  2.8902
  139SAPE   H5Y15177   4.054   2.553   9.809  0.5620  0.6657 -0.4169
  139SAPE   C3615178   3.988   2.455   9.629  0.8319  0.1433 -0.2939
  139SAPE   H6X15179   4.035   2.531   9.562 -0.9793  0.0622 -1.7171
  139SAPE   H6Y15180   3.879   2.475   9.630  0.7381 -0.0461  2.4730
  139SAPE   C3715181   4.002   2.326   9.551  0.0718 -0.1209  0.5085
  139SAPE   H7X15182   3.932   2.250   9.593  0.8631 -1.9653 -1.3326
  139SAPE   H7Y15183   4.101   2.275   9.555 -0.6590 -1.9391 -2.2271
  139SAPE   C3815184   3.984   2.360   9.406  0.7007 -0.2398  0.0870
  139SAPE   H8X15185   3.988   2.278   9.332  0.1939  0.9002 -1.2512
  139SAPE   H8Y15186   4.057   2.437   9.374  0.9173  0.2217  1.5969
  139SAPE   C3915187   3.836   2.410   9.381 -0.5020 -0.4925 -0.0884
  139SAPE   H9X15188   3.834   2.519   9.405  0.0264  0.0101 -2.1351
  139SAPE   H9Y15189   3.763   2.347   9.436 -1.5506  1.6246  1.0849
  139SAPE  C31015190   3.794   2.392   9.234  0.0780  0.7819  0.0074
  139SAPE  H10X15191   3.769   2.284   9.221  0.3226  1.0901 -4.4247
  139SAPE  H10Y15192   3.882   2.420   9.172 -0.3338 -1.2114 -1.5825
  139SAPE  C31115193   3.680   2.485   9.198  0.2777 -0.5891  0.5865
  139SAPE  H11X15194   3.727   2.565   9.136  3.0301 -2.0767  0.5850
  139SAPE  H11Y15195   3.639   2.530   9.291  0.1236 -1.5642  1.0022
  139SAPE  C31215196   3.574   2.420   9.111 -0.8953  0.3040 -0.0999
  139SAPE  H12X15197   3.489   2.493   9.110 -0.5418  0.7955  1.8299
  139SAPE  H12Y15198   3.547   2.318   9.146  2.2150 -0.0563  1.6354
  139SAPE  C31315199   3.611   2.408   8.956  0.6164  0.1425  0.5232
  139SAPE  H13X15200   3.702   2.345   8.946  0.3389 -0.0591 -0.9536
  139SAPE  H13Y15201   3.639   2.512   8.928 -2.8321  1.7982  2.5480
  139SAPE  C31415202   3.492   2.361   8.871 -0.8137 -0.2857 -0.2221
  139SAPE  H14X15203   3.416   2.441   8.861 -1.2753 -0.9649 -3.0536
  139SAPE  H14Y15204   3.431   2.274   8.902 -0.8297 -0.4088 -0.5963
  139SAPE  C31515205   3.545   2.323   8.724 -0.5777 -0.4206 -0.4388
  139SAPE  H15X15206   3.595   2.224   8.731  0.4977  0.0728 -0.7797
  139SAPE  H15Y15207   3.628   2.394   8.704 -0.0310 -1.1428 -0.7788
  139SAPE  C31615208   3.437   2.329   8.614 -0.7006 -0.6620 -0.6526
  139SAPE  H16X15209   3.460   2.252   8.537 -1.5757 -0.3661 -1.2338
  139SAPE  H16Y15210   3.336   2.300   8.652 -0.1567 -1.0612  0.5543
  139SAPE  C31715211   3.427   2.464   8.539 -0.1592  0.2952 -0.2183
  139SAPE  H17X15212   3.422   2.549   8.610  2.0209  1.2678 -1.1451
  139SAPE  H17Y15213   3.330   2.462   8.484  1.2214 -0.4424 -2.7832
  139SAPE  C31815214   3.533   2.490   8.436  0.5329  0.4218  0.4225
  139SAPE  H18X15215   3.631   2.478   8.486  0.4391  2.6876  1.2926
  139SAPE  H18Y15216   3.540   2.597   8.404  0.2765 -0.0468 -1.2913
  139SAPE  H18Z15217   3.519   2.420   8.351  1.0412 -2.9273  2.9032
  140SAPE     N15218   2.013   0.486  10.927  0.0271  0.1164 -0.4652
  140SAPE   HN115219   2.021   0.547  10.844 -0.8409 -0.9556 -1.3761
  140SAPE   HN215220   1.911   0.468  10.936 -0.1470  1.3630  0.2829
  140SAPE   HN315221   2.025   0.540  11.015 -3.2469  0.3376 -0.0095
  140SAPE   C1215222   2.106   0.364  10.932  0.5331  0.0368 -0.0747
  140SAPE  H12A15223   2.133   0.345  10.826 -0.4929 -2.2734 -0.0025
  140SAPE  H12B15224   2.047   0.279  10.974  1.1750 -0.1241  0.5339
  140SAPE   C1115225   2.229   0.379  11.022 -0.7802 -0.4264  0.2701
  140SAPE  H11A15226   2.288   0.287  11.000 -0.4609  0.1725 -1.5745
  140SAPE  H11B15227   2.199   0.382  11.129 -1.8305  1.8390 -0.0240
  140SAPE     P15228   2.418   0.566  11.075 -0.5005  0.3665  0.2229
  140SAPE   O1315229   2.349   0.671  11.154  0.4373 -0.4234 -0.0202
  140SAPE   O1415230   2.492   0.463  11.147  0.0167 -0.6320 -0.5599
  140SAPE   O1215231   2.319   0.489  10.984 -0.0221 -0.4143 -0.1208
  140SAPE   O1115232   2.518   0.632  10.971  0.7411  0.1255  0.1819
  140SAPE    C115233   2.462   0.711  10.865  0.1879 -0.4780 -0.0974
  140SAPE    HA15234   2.385   0.783  10.900 -0.0974 -0.8875  0.1328
  140SAPE    HB15235   2.549   0.774  10.837 -0.7075  1.1388  0.5971
  140SAPE    C215236   2.414   0.646  10.732 -0.2268  0.0545  1.0202
  140SAPE    HS15237   2.311   0.615  10.757  0.1158  0.0253  2.5083
  140SAPE   O2115238   2.501   0.546  10.672  0.5296 -0.3191  0.2642
  140SAPE   C2115239   2.438   0.474  10.583 -0.2296  0.5414 -0.3739
  140SAPE   O2215240   2.317   0.460  10.589 -0.3322 -0.4008 -0.2144
  140SAPE   C2215241   2.523   0.400  10.489 -0.1920  0.3565  0.3972
  140SAPE   H2R15242   2.545   0.473  10.408  0.5820  1.4045  1.5034
  140SAPE   H2S15243   2.617   0.370  10.541 -0.1423 -0.9589 -0.4107
  140SAPE    C315244   2.401   0.769  10.633 -0.2276  0.4949 -0.0638
  140SAPE    HX15245   2.503   0.813  10.630  0.2864 -0.7112 -1.6861
  140SAPE    HY15246   2.329   0.840  10.679  0.0984  0.2706  0.8137
  140SAPE   O3115247   2.368   0.731  10.496  0.2179  0.5352  0.0845
  140SAPE   C3115248   2.391   0.826  10.407 -0.1272 -0.0660 -0.0621
  140SAPE   O3215249   2.448   0.932  10.426  0.3738  0.2495 -0.0650
  140SAPE   C3215250   2.327   0.782  10.269 -0.6510 -0.4733 -0.5052
  140SAPE   H2X15251   2.232   0.838  10.255 -1.3325 -1.5911 -0.3933
  140SAPE   H2Y15252   2.308   0.673  10.277 -0.1528 -0.5607 -0.4851
  140SAPE   C2315253   2.441   0.289  10.423  0.0851  0.2218 -0.0680
  140SAPE   H3R15254   2.358   0.330  10.361 -0.0225 -0.3468 -0.3123
  140SAPE   H3S15255   2.383   0.217  10.483 -0.1373  0.6997  0.2919
  140SAPE   C2415256   2.541   0.207  10.352  0.1327  0.4064  0.0310
  140SAPE   H4R15257   2.599   0.163  10.436  1.5464 -2.0792 -2.1292
  140SAPE   H4S15258   2.602   0.285  10.301 -0.6029  0.6405 -0.5109
  140SAPE   C2515259   2.503   0.087  10.272 -0.0541  1.2065 -0.6833
  140SAPE   H5R15260   2.494  -0.008  10.327 -0.3761  1.0291 -1.0294
  140SAPE   C2615261   2.491   0.080  10.139  0.6066 -0.5095 -1.0443
  140SAPE   H6R15262   2.452  -0.009  10.088 -3.4821  0.8686 -0.6730
  140SAPE   C2715263   2.513   0.193  10.035  0.5282  0.0278  0.3483
  140SAPE   H7R15264   2.557   0.144   9.945 -1.5327 -1.2719 -0.0170
  140SAPE   H7S15265   2.594   0.263  10.067  0.2752  0.8201 -0.6656
  140SAPE   C2815266   2.384   0.265   9.999 -0.7033  0.5143 -0.5230
  140SAPE   H8R15267   2.326   0.281  10.091 -0.5861 -1.0047 -0.1510
  140SAPE   C2915268   2.321   0.271   9.878  0.1827  0.0231 -0.1279
  140SAPE   H9R15269   2.216   0.305   9.872  0.9499  2.6292 -0.0531
  140SAPE  C21015270   2.370   0.215   9.740 -0.0059  0.0922  0.0164
  140SAPE  H10R15271   2.287   0.155   9.696 -1.4411 -0.0546  2.7050
  140SAPE  H10S15272   2.458   0.149   9.753  0.6194  0.5091 -1.7295
  140SAPE  C21115273   2.416   0.334   9.652 -0.0581  0.5667 -0.0155
  140SAPE  H11R15274   2.444   0.427   9.702 -0.5144 -0.1445  1.6265
  140SAPE  C21215275   2.429   0.332   9.519 -0.5235  0.2921  0.1696
  140SAPE  H12R15276   2.469   0.420   9.467 -0.1437 -0.8746 -1.6077
  140SAPE  C21315277   2.398   0.208   9.440  0.5004  0.4241  0.5307
  140SAPE  H13R15278   2.293   0.183   9.469  0.9144 -0.9280  0.8968
  140SAPE  H13S15279   2.473   0.130   9.464 -1.0478 -1.8027 -1.4183
  140SAPE  C21415280   2.408   0.240   9.295 -0.2233 -0.6349 -0.0556
  140SAPE  H14R15281   2.315   0.274   9.247  1.5661 -0.9015 -4.0926
  140SAPE  C21515282   2.516   0.204   9.217 -0.4917 -0.8592 -0.2156
  140SAPE  H15R15283   2.509   0.239   9.113  0.7720  1.1438  0.3110
  140SAPE  C21615284   2.641   0.132   9.259 -0.5316 -0.0195 -0.2488
  140SAPE  H16R15285   2.656   0.134   9.369  2.9798  0.6171 -0.6354
  140SAPE  H16S15286   2.738   0.169   9.219 -0.5803  0.0919 -0.2628
  140SAPE  C21715287   2.626  -0.018   9.222 -0.1423 -0.1511 -0.0160
  140SAPE  H17R15288   2.537  -0.057   9.276 -0.4573 -0.6769 -0.8926
  140SAPE  H17S15289   2.710  -0.079   9.262 -2.3565 -0.7874  4.2562
  140SAPE  C21815290   2.606  -0.043   9.071 -0.1342 -0.2298  0.1991
  140SAPE  H18R15291   2.704  -0.015   9.026 -0.1662 -0.4422 -0.0020
  140SAPE  H18S15292   2.532   0.025   9.024  2.1896  1.7340 -0.8666
  140SAPE  C21915293   2.570  -0.187   9.043 -0.2942 -0.4122  0.0220
  140SAPE  H19R15294   2.479  -0.223   9.096 -0.1425 -3.3484 -1.4587
  140SAPE  H19S15295   2.652  -0.246   9.091 -1.0336 -1.8716 -0.4450
  140SAPE  C22015296   2.563  -0.203   8.894 -0.1642  0.3685 -0.0409
  140SAPE  H20R15297   2.520  -0.303   8.874 -0.5091  0.5610 -0.2741
  140SAPE  H20S15298   2.669  -0.205   8.859 -0.0313  0.6941  0.3389
  140SAPE  H20T15299   2.511  -0.131   8.827 -0.4375  1.9223  1.7572
  140SAPE   C3315300   2.428   0.807  10.156 -0.8428  0.0176 -0.5854
  140SAPE   H3X15301   2.512   0.737  10.174 -2.5884 -1.6559  1.5320
  140SAPE   H3Y15302   2.471   0.910  10.150  0.3827 -0.4588 -0.2482
  140SAPE   C3415303   2.366   0.767  10.024  0.3536 -0.4393 -0.1934
  140SAPE   H4X15304   2.265   0.813  10.016 -1.0101 -3.1222  0.5130
  140SAPE   H4Y15305   2.349   0.658  10.016  1.4724 -0.7746  1.5589
  140SAPE   C3515306   2.456   0.807   9.901 -0.7917  0.4398  0.2344
  140SAPE   H5X15307   2.538   0.732   9.913 -0.0928  1.1130 -0.2586
  140SAPE   H5Y15308   2.488   0.912   9.914 -0.5577  0.4146 -0.1413
  140SAPE   C3615309   2.371   0.799   9.772 -0.1529 -0.4147  0.9414
  140SAPE   H6X15310   2.279   0.859   9.776 -2.6897 -3.6926 -1.8165
  140SAPE   H6Y15311   2.341   0.694   9.749  0.3107  0.0766 -2.4541
  140SAPE   C3715312   2.458   0.862   9.658 -0.2774 -1.0006  0.2876
  140SAPE   H7X15313   2.566   0.835   9.664  0.3638  1.3153  0.1154
  140SAPE   H7Y15314   2.452   0.972   9.671 -1.3702 -1.0839  0.5850
  140SAPE   C3815315   2.401   0.825   9.517 -0.5879 -0.4623  0.3361
  140SAPE   H8X15316   2.301   0.872   9.512 -0.7589 -0.3151  3.4019
  140SAPE   H8Y15317   2.404   0.716   9.496  1.1563 -0.7463  1.7879
  140SAPE   C3915318   2.490   0.902   9.409 -0.3035 -0.1649  0.7367
  140SAPE   H9X15319   2.596   0.869   9.414 -0.2766 -0.6189 -1.7702
  140SAPE   H9Y15320   2.490   1.009   9.440  0.5198 -0.3196  1.3156
  140SAPE  C31015321   2.443   0.871   9.263  0.9098 -0.3568  0.9264
  140SAPE  H10X15322   2.501   0.936   9.195  0.5105 -3.0635 -2.2095
  140SAPE  H10Y15323   2.336   0.896   9.248  1.4489 -0.1620 -4.7826
  140SAPE  C31115324   2.473   0.727   9.215  0.0309 -0.0069 -0.2150
  140SAPE  H11X15325   2.399   0.653   9.252  1.2928 -1.8357 -1.1857
  140SAPE  H11Y15326   2.572   0.706   9.260  1.3090  0.8204 -2.4868
  140SAPE  C31215327   2.467   0.720   9.067 -0.3354  0.4256 -0.5565
  140SAPE  H12X15328   2.550   0.786   9.032  0.1229  2.0515  3.1476
  140SAPE  H12Y15329   2.374   0.767   9.028 -0.6917 -1.1068 -1.6580
  140SAPE  C31315330   2.480   0.576   9.017  0.1212 -0.0731  0.1597
  140SAPE  H13X15331   2.395   0.513   9.050 -0.6393  0.4078 -0.8344
  140SAPE  H13Y15332   2.579   0.534   9.046  1.1705  2.6015  0.7927
  140SAPE  C31415333   2.484   0.567   8.861  0.3343 -0.0707 -0.2377
  140SAPE  H14X15334   2.568   0.627   8.820 -0.1661 -0.7958 -2.4387
  140SAPE  H14Y15335   2.388   0.609   8.824 -0.3765  0.8249  2.4265
  140SAPE  C31515336   2.474   0.429   8.795  0.1699 -1.1589 -0.6100
  140SAPE  H15X15337   2.564   0.371   8.824  0.9963  0.5654  0.4541
  140SAPE  H15Y15338   2.480   0.446   8.686 -0.0229 -2.2204 -0.7942
  140SAPE  C31615339   2.332   0.360   8.826  0.4470 -0.1250 -1.1493
  140SAPE  H16X15340   2.249   0.425   8.790  0.8040  1.7704  1.2104
  140SAPE  H16Y15341   2.311   0.355   8.935  0.9201 -1.3478 -1.1020
  140SAPE  C31715342   2.330   0.216   8.765 -0.4912 -0.5174  0.1910
  140SAPE  H17X15343   2.257   0.151   8.818  0.0078  0.4305  2.1493
  140SAPE  H17Y15344   2.429   0.167   8.778 -0.8391 -0.8444  1.8678
  140SAPE  C31815345   2.300   0.225   8.620 -0.4355  0.3367 -0.5859
  140SAPE  H18X15346   2.197   0.263   8.609 -0.0397  1.7471  0.3549
  140SAPE  H18Y15347   2.307   0.134   8.556 -1.6545  0.2699 -0.6376
  140SAPE  H18Z15348   2.370   0.297   8.572  0.7183  1.2115  2.2110
  141SAPE     N15349   1.688   5.338  10.958  0.0764 -0.2676  0.4422
  141SAPE   HN115350   1.635   5.357  10.871  0.1340  0.6728  0.6060
  141SAPE   HN215351   1.785   5.374  10.950 -0.1490  0.0496 -1.2762
  141SAPE   HN315352   1.679   5.237  10.983 -1.5752 -0.9382 -2.4496
  141SAPE   C1215353   1.611   5.426  11.055 -1.1002  0.1409  0.2904
  141SAPE  H12A15354   1.615   5.525  11.005 -0.5672 -0.3234 -0.5955
  141SAPE  H12B15355   1.680   5.435  11.141  2.6588  2.7427 -2.6850
  141SAPE   C1115356   1.466   5.379  11.071  0.5355 -0.0898 -0.9512
  141SAPE  H11A15357   1.422   5.445  11.148 -0.9740  0.0051 -1.8396
  141SAPE  H11B15358   1.465   5.281  11.122 -0.2966 -0.1154 -0.9992
  141SAPE     P15359   1.261   5.430  10.917 -0.2635  0.0348 -0.0604
  141SAPE   O1315360   1.142   5.344  10.910  0.0155 -0.3880  0.6415
  141SAPE   O1415361   1.254   5.545  11.010  0.0369  0.1093  0.0700
  141SAPE   O1215362   1.396   5.361  10.938  0.2070  0.5753 -0.0196
  141SAPE   O1115363   1.274   5.492  10.769  0.9310  0.5316  0.6977
  141SAPE    C115364   1.256   5.421  10.651 -0.0533 -0.5533 -0.2351
  141SAPE    HA15365   1.193   5.334  10.678 -0.2370  0.6531  3.8859
  141SAPE    HB15366   1.189   5.484  10.589 -0.0161  0.8285  1.0594
  141SAPE    C215367   1.388   5.371  10.584 -0.4928 -0.5212  0.2319
  141SAPE    HS15368   1.428   5.304  10.663 -0.6961  0.8035  1.4903
  141SAPE   O2115369   1.467   5.486  10.559 -0.0932 -0.3258  0.3894
  141SAPE   C2115370   1.587   5.492  10.612 -0.3756  0.1198 -0.0270
  141SAPE   O2215371   1.637   5.419  10.693 -0.0051 -0.1950 -0.4677
  141SAPE   C2215372   1.664   5.618  10.559 -0.4013  0.5107 -0.4655
  141SAPE   H2R15373   1.598   5.707  10.552 -0.0209  1.0573  1.9445
  141SAPE   H2S15374   1.746   5.636  10.632 -1.4145  1.3488  0.4946
  141SAPE    C315375   1.368   5.293  10.454  0.3082 -0.5447  0.1791
  141SAPE    HX15376   1.296   5.347  10.389  2.2248  1.2623 -0.5710
  141SAPE    HY15377   1.320   5.198  10.483  1.0983 -1.6310 -1.8999
  141SAPE   O3115378   1.491   5.268  10.378  0.6693  0.3333  0.6610
  141SAPE   C3115379   1.574   5.184  10.429 -0.0461 -0.1837 -0.7304
  141SAPE   O3215380   1.561   5.133  10.539 -0.2881  1.3965  0.0566
  141SAPE   C3215381   1.698   5.180  10.334 -1.4685 -0.6056 -0.4725
  141SAPE   H2X15382   1.794   5.174  10.391 -1.5542  3.5314  0.3642
  141SAPE   H2Y15383   1.707   5.285  10.300  2.3170 -0.1957  1.2276
  141SAPE   C2315384   1.719   5.588  10.417  0.4300  0.1013 -0.4172
  141SAPE   H3R15385   1.783   5.497  10.420 -0.1705 -0.3152  0.3247
  141SAPE   H3S15386   1.789   5.669  10.389  0.3556  0.8822  1.5304
  141SAPE   C2415387   1.603   5.588  10.311 -0.6756  0.2358  0.3773
  141SAPE   H4R15388   1.552   5.687  10.311  0.6384  0.9870  2.0244
  141SAPE   H4S15389   1.535   5.508  10.347  0.5492 -1.4551 -0.9161
  141SAPE   C2515390   1.661   5.540  10.171 -0.2930 -0.2919  0.0380
  141SAPE   H5R15391   1.647   5.435  10.142 -0.0338 -0.9503  2.1067
  141SAPE   C2615392   1.715   5.619  10.072 -0.8738 -0.5731 -0.3842
  141SAPE   H6R15393   1.751   5.574   9.978 -1.7982  1.0148 -1.5470
  141SAPE   C2715394   1.720   5.776  10.082 -0.2213  1.1037  0.4219
  141SAPE   H7R15395   1.649   5.811  10.160  0.6572 -0.1660  1.8698
  141SAPE   H7S15396   1.697   5.821   9.983 -0.1169 -1.7523 -0.9733
  141SAPE   C2815397   1.866   5.812  10.112  0.8822 -0.6033 -0.6126
  141SAPE   H8R15398   1.890   5.809  10.219 -0.1592  2.0056 -0.2448
  141SAPE   C2915399   1.950   5.867  10.022  0.8647 -0.3205  0.0935
  141SAPE   H9R15400   2.049   5.895  10.062  0.0008  1.5399  1.0467
  141SAPE  C21015401   1.922   5.886   9.873  0.3055 -0.1316  0.1748
  141SAPE  H10R15402   1.890   5.784   9.841 -0.6337 -0.1434  1.1225
  141SAPE  H10S15403   2.018   5.903   9.819 -0.6982 -0.5259 -1.8296
  141SAPE  C21115404   1.817   5.991   9.831  0.3307  0.1093  0.0853
  141SAPE  H11R15405   1.770   6.054   9.908 -1.0468  0.3209 -0.9094
  141SAPE  C21215406   1.781   6.016   9.704 -0.4642 -0.4171  0.0909
  141SAPE  H12R15407   1.702   6.091   9.692 -0.4332 -0.2819  0.7199
  141SAPE  C21315408   1.823   5.935   9.588  0.6284 -0.5014 -0.7141
  141SAPE  H13R15409   1.830   5.828   9.618 -0.7419 -0.5766 -0.5921
  141SAPE  H13S15410   1.929   5.959   9.564  0.6346  3.7766  2.5151
  141SAPE  C21415411   1.731   5.959   9.464  0.1072 -0.6626 -0.5609
  141SAPE  H14R15412   1.639   6.016   9.479 -0.5737 -0.7442 -3.8527
  141SAPE  C21515413   1.761   5.906   9.347 -0.4871 -0.0124  0.6646
  141SAPE  H15R15414   1.702   5.922   9.255  0.8240  0.9501 -0.0378
  141SAPE  C21615415   1.890   5.828   9.324 -0.1492 -0.3674  0.2269
  141SAPE  H16R15416   1.907   5.753   9.404  0.3372 -1.7007 -1.0816
  141SAPE  H16S15417   1.972   5.903   9.321 -1.2506  0.9657 -4.4814
  141SAPE  C21715418   1.894   5.747   9.196  0.3419 -0.1850  0.5986
  141SAPE  H17R15419   1.811   5.674   9.193  0.8000 -0.7047  0.4545
  141SAPE  H17S15420   1.992   5.694   9.202  0.2890 -0.3189  0.3102
  141SAPE  C21815421   1.884   5.837   9.066 -0.0744  0.1443  0.2561
  141SAPE  H18R15422   1.809   5.918   9.076  1.0275  1.5668 -2.1891
  141SAPE  H18S15423   1.869   5.769   8.980 -0.6310  0.2665  0.2529
  141SAPE  C21915424   2.018   5.906   9.021 -0.0469  0.2760 -0.1914
  141SAPE  H19R15425   2.088   5.826   8.989  0.1048  0.6717 -0.8555
  141SAPE  H19S15426   2.052   5.958   9.113  0.6137 -1.7012  0.7421
  141SAPE  C22015427   1.997   6.000   8.901  0.0562  0.4793 -0.6547
  141SAPE  H20R15428   1.931   5.944   8.831 -2.3117 -0.1321  1.9027
  141SAPE  H20S15429   2.086   6.041   8.849  1.7640  0.6666  2.2416
  141SAPE  H20T15430   1.938   6.087   8.938 -0.3906  0.5130 -1.4094
  141SAPE   C3315431   1.680   5.080  10.219 -0.1584 -0.2364 -0.1708
  141SAPE   H3X15432   1.578   5.094  10.178 -0.8681 -1.3885  1.1205
  141SAPE   H3Y15433   1.677   4.982  10.271  0.7649 -1.3278 -2.1072
  141SAPE   C3415434   1.779   5.084  10.104 -0.3136 -0.2212  0.5068
  141SAPE   H4X15435   1.793   4.984  10.058 -0.8591  0.5942 -1.5207
  141SAPE   H4Y15436   1.882   5.110  10.136 -0.2796  1.2599 -0.7181
  141SAPE   C3515437   1.738   5.160   9.987 -0.5379  0.1544 -0.3592
  141SAPE   H5X15438   1.733   5.268  10.012  1.3183  0.0413  0.6370
  141SAPE   H5Y15439   1.637   5.123   9.957 -1.1531  1.2418  0.3192
  141SAPE   C3615440   1.819   5.129   9.866  0.3674  0.3741  0.2489
  141SAPE   H6X15441   1.833   5.020   9.847 -2.2026  0.3495 -2.2922
  141SAPE   H6Y15442   1.914   5.186   9.866  0.7370 -0.2243  0.7948
  141SAPE   C3715443   1.747   5.171   9.734 -0.4843  0.2424 -0.8244
  141SAPE   H7X15444   1.725   5.280   9.743  1.7067  0.6585  0.0157
  141SAPE   H7Y15445   1.655   5.110   9.727 -1.1198  0.9605  0.7845
  141SAPE   C3815446   1.832   5.157   9.613  0.6903  0.0322  0.5666
  141SAPE   H8X15447   1.883   5.059   9.605 -1.2944 -1.0845  0.8660
  141SAPE   H8Y15448   1.908   5.239   9.617 -1.1391  1.8623 -0.1827
  141SAPE   C3915449   1.753   5.188   9.481 -0.5085  1.0446 -0.1026
  141SAPE   H9X15450   1.695   5.279   9.506 -1.5948 -0.3283  2.9354
  141SAPE   H9Y15451   1.684   5.102   9.462 -0.9973  0.9111  2.0346
  141SAPE  C31015452   1.851   5.188   9.355  0.1281  0.2741 -0.3251
  141SAPE  H10X15453   1.795   5.200   9.260 -1.2646  0.9977  0.5544
  141SAPE  H10Y15454   1.888   5.083   9.358  0.1450  0.3072  1.4989
  141SAPE  C31115455   1.975   5.281   9.359  0.3995  0.4970  0.1640
  141SAPE  H11X15456   2.035   5.241   9.443  1.7842  0.8418 -0.6165
  141SAPE  H11Y15457   1.939   5.383   9.385  0.3407  0.1634  1.4353
  141SAPE  C31215458   2.057   5.279   9.218  0.6858 -0.3535  0.0739
  141SAPE  H12X15459   1.979   5.306   9.144 -0.6176 -0.8488  1.2149
  141SAPE  H12Y15460   2.105   5.182   9.192 -2.1541 -1.9036  0.1205
  141SAPE  C31315461   2.174   5.378   9.221 -0.3299  0.1118  0.3459
  141SAPE  H13X15462   2.239   5.333   9.298  1.8586 -0.1670 -1.5653
  141SAPE  H13Y15463   2.128   5.475   9.250  0.4019  0.4788  0.2964
  141SAPE  C31415464   2.260   5.396   9.092 -0.3514  0.7457  0.4802
  141SAPE  H14X15465   2.288   5.302   9.041 -1.2213  0.9476 -0.4026
  141SAPE  H14Y15466   2.351   5.457   9.112 -0.0711 -0.2541  2.4394
  141SAPE  C31515467   2.176   5.472   8.981  0.0984  0.3436 -0.2865
  141SAPE  H15X15468   2.134   5.563   9.031 -0.4279  0.1137 -0.3072
  141SAPE  H15Y15469   2.096   5.413   8.932 -0.6667  2.4672 -1.7663
  141SAPE  C31615470   2.263   5.521   8.870 -0.5054  0.4579  0.0839
  141SAPE  H16X15471   2.300   5.445   8.799 -0.0367  0.2324  0.5605
  141SAPE  H16Y15472   2.345   5.574   8.922 -0.4396  0.2262  0.2184
  141SAPE  C31715473   2.193   5.616   8.774  0.0327  0.1780  0.6421
  141SAPE  H17X15474   2.183   5.711   8.832  1.9933  0.6215  0.3544
  141SAPE  H17Y15475   2.093   5.582   8.740 -0.7366  1.0361  1.9646
  141SAPE  C31815476   2.268   5.646   8.647  0.8097 -0.3389 -0.4528
  141SAPE  H18X15477   2.369   5.684   8.675  0.1907 -1.8046  4.8468
  141SAPE  H18Y15478   2.202   5.721   8.598 -1.3216 -0.8922  1.4242
  141SAPE  H18Z15479   2.277   5.555   8.583  0.6531 -0.3214 -0.5002
  142SAPE     N15480   2.635   0.255  11.046 -0.4899  0.4946 -0.0199
  142SAPE   HN115481   2.579   0.326  11.099  0.4865  0.5017  1.0329
  142SAPE   HN215482   2.725   0.305  11.032 -1.6188  2.4942 -0.4853
  142SAPE   HN315483   2.588   0.232  10.956 -2.4407 -0.0730  1.0757
  142SAPE   C1215484   2.639   0.118  11.116 -0.8936  0.4137 -0.4409
  142SAPE  H12A15485   2.670   0.043  11.039  1.9237 -1.2733  2.0834
  142SAPE  H12B15486   2.539   0.087  11.153 -0.6822 -1.0164 -0.9906
  142SAPE   C1115487   2.750   0.094  11.220  0.5263  0.1904  0.2097
  142SAPE  H11A15488   2.736  -0.005  11.269 -1.7138  1.0989  1.5542
  142SAPE  H11B15489   2.738   0.168  11.303  0.5142  0.7163 -0.2578
  142SAPE     P15490   2.969   0.017  11.088  0.1544 -0.1188  0.0557
  142SAPE   O1315491   3.104   0.072  11.056 -0.2175 -0.2558  0.3776
  142SAPE   O1415492   2.964  -0.119  11.141 -0.3201  0.3232  0.2614
  142SAPE   O1215493   2.885   0.121  11.176  0.4166  1.1234 -0.1688
  142SAPE   O1115494   2.886   0.006  10.957  0.3069 -0.4893 -0.6033
  142SAPE    C115495   2.914   0.076  10.837 -0.1397 -0.6721 -1.0852
  142SAPE    HA15496   2.831   0.139  10.797  0.0977 -0.3806 -1.1204
  142SAPE    HB15497   3.001   0.144  10.846 -0.7643  0.1990 -1.4230
  142SAPE    C215498   2.954  -0.027  10.724 -0.4787  0.3989  1.0448
  142SAPE    HS15499   2.975   0.034  10.634  1.4912 -0.3161  0.9747
  142SAPE   O2115500   2.851  -0.130  10.700  0.3134  0.1240  0.1452
  142SAPE   C2115501   2.731  -0.090  10.670 -0.0257 -0.0255 -0.8196
  142SAPE   O2215502   2.702   0.026  10.658  0.1011 -0.1596 -0.3867
  142SAPE   C2215503   2.642  -0.216  10.645  0.5497  0.2648 -0.0093
  142SAPE   H2R15504   2.681  -0.263  10.552  1.6699  0.1242  0.5037
  142SAPE   H2S15505   2.640  -0.288  10.729  0.5440 -1.8031 -1.6986
  142SAPE    C315506   3.085  -0.097  10.745 -0.6313  0.3382  0.1539
  142SAPE    HX15507   3.068  -0.188  10.806  0.5282 -2.0397 -2.7844
  142SAPE    HY15508   3.159  -0.039  10.803  0.5023 -1.1795  0.2819
  142SAPE   O3115509   3.150  -0.139  10.624 -0.3807  0.2290  0.4608
  142SAPE   C3115510   3.130  -0.273  10.591  0.3556 -1.0673 -0.6038
  142SAPE   O3215511   3.083  -0.352  10.665 -0.4335  0.0786 -0.2865
  142SAPE   C3215512   3.176  -0.304  10.453  0.4196  0.1165  0.0712
  142SAPE   H2X15513   3.286  -0.321  10.462  0.2428 -0.8607  0.5356
  142SAPE   H2Y15514   3.167  -0.212  10.391 -2.7584 -0.7528 -0.9483
  142SAPE   C2315515   2.493  -0.167  10.632  0.1145  1.0084  0.1610
  142SAPE   H3R15516   2.489  -0.081  10.561 -0.5173  0.5340 -0.3877
  142SAPE   H3S15517   2.460  -0.131  10.731 -0.4265  1.2465 -0.1053
  142SAPE   C2415518   2.407  -0.281  10.574 -0.0074  0.4492 -0.1266
  142SAPE   H4R15519   2.411  -0.355  10.657  3.6582  1.2193  0.5394
  142SAPE   H4S15520   2.463  -0.327  10.490  2.7252  1.3523  1.1018
  142SAPE   C2515521   2.266  -0.234  10.548  0.2727  0.2842  0.4096
  142SAPE   H5R15522   2.232  -0.160  10.622  0.0986  0.1114  0.5049
  142SAPE   C2615523   2.174  -0.274  10.455  0.0351  0.2564  0.5670
  142SAPE   H6R15524   2.082  -0.215  10.451  0.4665  0.8662 -1.9374
  142SAPE   C2715525   2.190  -0.391  10.349 -0.4598 -0.2825 -0.1421
  142SAPE   H7R15526   2.259  -0.472  10.382 -2.1750 -2.4975 -1.7112
  142SAPE   H7S15527   2.247  -0.353  10.261 -2.2117 -0.8229 -1.5764
  142SAPE   C2815528   2.061  -0.458  10.303  0.2893 -0.0297 -0.2596
  142SAPE   H8R15529   1.979  -0.443  10.374  0.4644  1.0387 -0.2591
  142SAPE   C2915530   2.040  -0.517  10.185 -0.2378 -0.0401  0.0438
  142SAPE   H9R15531   1.932  -0.535  10.173 -0.0993  0.4993 -2.4259
  142SAPE  C21015532   2.131  -0.538  10.065  0.0371 -0.4510 -0.1684
  142SAPE  H10R15533   2.180  -0.636  10.081  1.0949  0.0324 -0.4146
  142SAPE  H10S15534   2.211  -0.461  10.065  0.8883 -1.3088 -0.7751
  142SAPE  C21115535   2.053  -0.533   9.936  0.4146 -0.1259 -0.1092
  142SAPE  H11R15536   1.946  -0.511   9.931  0.5277  0.4336 -0.1251
  142SAPE  C21215537   2.109  -0.580   9.825  1.0172  0.0977  0.2295
  142SAPE  H12R15538   2.050  -0.569   9.733 -0.9231 -2.5680  1.0151
  142SAPE  C21315539   2.241  -0.632   9.791 -0.0996 -0.3254 -0.5724
  142SAPE  H13R15540   2.301  -0.666   9.878 -0.7817 -0.6206 -0.2090
  142SAPE  H13S15541   2.287  -0.540   9.749  0.5631  0.1755  1.1543
  142SAPE  C21415542   2.241  -0.737   9.690  0.1956 -0.1877  0.0595
  142SAPE  H14R15543   2.190  -0.827   9.728 -0.4711  0.4491  0.6930
  142SAPE  C21515544   2.293  -0.739   9.561  0.0433  0.0879 -0.2787
  142SAPE  H15R15545   2.291  -0.840   9.515 -1.4357  0.4011 -0.9597
  142SAPE  C21615546   2.351  -0.624   9.485  0.1285  0.4988  0.6848
  142SAPE  H16R15547   2.334  -0.525   9.532  0.1632  1.4227 -1.1504
  142SAPE  H16S15548   2.307  -0.622   9.383 -0.4695 -1.9745  0.8333
  142SAPE  C21715549   2.503  -0.642   9.471 -0.6704  0.2803  0.4072
  142SAPE  H17R15550   2.510  -0.733   9.408 -0.4517  0.2170  0.5207
  142SAPE  H17S15551   2.551  -0.662   9.569 -1.2873 -2.6181  0.1921
  142SAPE  C21815552   2.558  -0.516   9.403 -0.0784 -0.1597  0.3789
  142SAPE  H18R15553   2.526  -0.426   9.460  0.9164  0.8348 -0.5745
  142SAPE  H18S15554   2.509  -0.518   9.303  0.8022 -0.1242 -0.0680
  142SAPE  C21915555   2.711  -0.508   9.390 -0.1723 -0.3457  0.2692
  142SAPE  H19R15556   2.752  -0.539   9.488  1.9229 -0.0930 -0.4864
  142SAPE  H19S15557   2.737  -0.403   9.367 -3.5498  0.4921 -0.3379
  142SAPE  C22015558   2.780  -0.609   9.304 -0.3463  0.2321 -0.2201
  142SAPE  H20R15559   2.789  -0.576   9.198 -0.8607  2.8642  0.4896
  142SAPE  H20S15560   2.713  -0.697   9.295  0.7001 -0.5984 -0.0860
  142SAPE  H20T15561   2.875  -0.644   9.350 -0.7433 -0.1507  0.3160
  142SAPE   C3315562   3.107  -0.438  10.402  0.3147 -0.0913  0.0439
  142SAPE   H3X15563   2.997  -0.425  10.392  0.7037  2.5113 -1.8262
  142SAPE   H3Y15564   3.112  -0.512  10.485 -0.0897 -0.5736 -0.3550
  142SAPE   C3415565   3.176  -0.481  10.277 -0.7678  0.2445  0.4030
  142SAPE   H4X15566   3.285  -0.467  10.290 -0.8518  0.4851  0.8685
  142SAPE   H4Y15567   3.132  -0.420  10.195 -2.5606 -1.9268 -0.3508
  142SAPE   C3515568   3.164  -0.635  10.249 -0.4088  0.3063  0.2193
  142SAPE   H5X15569   3.057  -0.654  10.227  0.3254 -2.7252 -1.1521
  142SAPE   H5Y15570   3.188  -0.689  10.343  2.4152 -2.2520 -1.7722
  142SAPE   C3615571   3.240  -0.685  10.122 -0.5175 -0.3324 -0.6053
  142SAPE   H6X15572   3.217  -0.638  10.024  0.5354  0.4625 -0.4817
  142SAPE   H6Y15573   3.213  -0.793  10.113  0.0607 -0.4316 -1.2469
  142SAPE   C3715574   3.393  -0.692  10.151  0.4287 -0.3013  0.2148
  142SAPE   H7X15575   3.409  -0.730  10.254 -0.2737 -2.4565 -0.4349
  142SAPE   H7Y15576   3.425  -0.587  10.135 -1.1128  0.0803 -0.5167
  142SAPE   C3815577   3.466  -0.784  10.047  0.1024  0.4757 -0.2893
  142SAPE   H8X15578   3.458  -0.745   9.943  0.5918 -1.6713 -1.1772
  142SAPE   H8Y15579   3.422  -0.885  10.059 -0.5276  0.9554  1.8135
  142SAPE   C3915580   3.612  -0.799  10.087  0.4264 -0.2825  0.3019
  142SAPE   H9X15581   3.623  -0.818  10.195  0.1439  1.0783  0.5826
  142SAPE   H9Y15582   3.662  -0.702  10.067 -1.2779  0.5358 -0.1748
  142SAPE  C31015583   3.671  -0.923  10.016 -0.3665 -0.6868  0.5967
  142SAPE  H10X15584   3.635  -1.014  10.068 -0.8859  0.0605  1.5861
  142SAPE  H10Y15585   3.782  -0.922  10.023 -0.4042 -0.0964  1.2042
  142SAPE  C31115586   3.639  -0.927   9.862  0.1737 -0.6710  0.8448
  142SAPE  H11X15587   3.625  -0.832   9.807 -0.6905 -1.3793 -0.2082
  142SAPE  H11Y15588   3.535  -0.966   9.863 -0.7384  1.5977 -0.0589
  142SAPE  C31215589   3.723  -1.030   9.779  0.2077  0.4453  0.3934
  142SAPE  H12X15590   3.685  -1.131   9.804  0.7122  0.0377 -0.4319
  142SAPE  H12Y15591   3.830  -1.019   9.810  1.1363 -3.0246 -1.1723
  142SAPE  C31315592   3.699  -1.009   9.628  0.1556 -0.0125  0.4278
  142SAPE  H13X15593   3.728  -0.902   9.617  1.9384 -0.4037  1.1145
  142SAPE  H13Y15594   3.589  -1.021   9.615  0.1602 -0.2281  0.5750
  142SAPE  C31415595   3.787  -1.086   9.525 -0.2958  1.2914  0.0715
  142SAPE  H14X15596   3.771  -1.196   9.534 -0.7739  1.0429 -2.8556
  142SAPE  H14Y15597   3.892  -1.055   9.544  0.3887  0.7480 -2.5632
  142SAPE  C31515598   3.760  -1.057   9.380  0.1909 -0.4508 -0.0604
  142SAPE  H15X15599   3.657  -1.024   9.357  0.5547 -0.4361 -1.8770
  142SAPE  H15Y15600   3.778  -1.149   9.319 -1.8861 -0.0960 -1.3262
  142SAPE  C31615601   3.835  -0.935   9.311 -0.6470 -0.3029 -0.4779
  142SAPE  H16X15602   3.945  -0.931   9.325 -0.3886 -0.6612 -2.2612
  142SAPE  H16Y15603   3.792  -0.847   9.364  1.3563  1.7890 -2.1297
  142SAPE  C31715604   3.809  -0.922   9.163 -0.0801 -0.5392  0.1064
  142SAPE  H17X15605   3.821  -0.823   9.116  0.0901 -1.2720 -1.4783
  142SAPE  H17Y15606   3.701  -0.935   9.138 -0.4274 -0.5941  1.5354
  142SAPE  C31815607   3.897  -1.014   9.073 -0.3391 -0.0765 -0.1422
  142SAPE  H18X15608   3.886  -1.115   9.119 -0.1778  0.1135  0.3176
  142SAPE  H18Y15609   4.004  -0.991   9.087 -0.1559 -0.2873 -1.1587
  142SAPE  H18Z15610   3.874  -1.002   8.965 -0.9338  2.7415  0.2257
  143SAPE     N15611   3.107   5.576  10.925  0.2724  0.4483  0.0250
  143SAPE   HN115612   3.077   5.482  10.895  1.4121 -0.4652  1.5737
  143SAPE   HN215613   3.205   5.601  10.897 -0.2459  0.4904 -1.8678
  143SAPE   HN315614   3.100   5.569  11.029 -2.8569 -1.4887 -0.1930
  143SAPE   C1215615   3.017   5.680  10.859 -1.0547  0.0288  0.1956
  143SAPE  H12A15616   2.907   5.662  10.869 -0.6295 -2.0368  1.9244
  143SAPE  H12B15617   3.038   5.678  10.749 -0.2384  0.2865  0.3393
  143SAPE   C1115618   3.049   5.815  10.927  0.4751 -0.0048  0.4295
  143SAPE  H11A15619   3.028   5.809  11.036  0.3798 -3.1761  0.3382
  143SAPE  H11B15620   2.995   5.899  10.879  1.3765  0.0090 -0.5851
  143SAPE     P15621   3.282   5.950  10.934 -0.8239 -0.2390 -0.2596
  143SAPE   O1315622   3.242   6.021  11.057  0.8501  0.3152  0.5799
  143SAPE   O1415623   3.419   5.894  10.921  0.3516 -0.2352 -0.5405
  143SAPE   O1215624   3.180   5.830  10.906 -0.3082  0.0009 -0.1451
  143SAPE   O1115625   3.263   6.044  10.811  0.4154 -0.0305  0.3597
  143SAPE    C115626   3.227   6.002  10.683 -0.2192 -0.8585  0.1767
  143SAPE    HA15627   3.165   5.911  10.691  0.2262 -1.0190  2.0958
  143SAPE    HB15628   3.157   6.082  10.650  0.6321  1.0001  2.5957
  143SAPE    C215629   3.350   5.988  10.591 -0.0517  0.3511  0.0012
  143SAPE    HS15630   3.427   5.958  10.666  1.9318  1.4686 -1.4890
  143SAPE   O2115631   3.376   6.117  10.532 -0.9766 -0.2625  0.1342
  143SAPE   C2115632   3.501   6.150  10.533 -0.4935  1.0769 -0.1053
  143SAPE   O2215633   3.593   6.083  10.565 -0.1407  0.6506 -0.4689
  143SAPE   C2215634   3.504   6.295  10.473 -0.2446  0.4582  0.4258
  143SAPE   H2R15635   3.487   6.285  10.363  0.3020  2.1681  0.1633
  143SAPE   H2S15636   3.421   6.351  10.520  1.2540  2.3177  0.9619
  143SAPE    C315637   3.334   5.880  10.477 -0.4968  0.3952  0.2753
  143SAPE    HX15638   3.262   5.920  10.402 -1.0641 -0.4680  0.3453
  143SAPE    HY15639   3.283   5.794  10.527 -1.2507  1.0473  0.6578
  143SAPE   O3115640   3.451   5.848  10.407 -0.1386 -0.7156  0.1836
  143SAPE   C3115641   3.534   5.764  10.455  0.1338 -0.5925 -0.7501
  143SAPE   O3215642   3.511   5.690  10.550  0.6612 -0.2424 -0.6646
  143SAPE   C3215643   3.671   5.776  10.384 -0.7922  0.8411  0.4876
  143SAPE   H2X15644   3.730   5.859  10.428  1.1445 -0.0479 -0.2711
  143SAPE   H2Y15645   3.654   5.799  10.277 -2.8610 -0.9604  0.3600
  143SAPE   C2315646   3.647   6.357  10.492 -0.1120 -0.7869 -0.0225
  143SAPE   H3R15647   3.729   6.281  10.491  1.7718  1.1479 -0.4048
  143SAPE   H3S15648   3.645   6.404  10.592  1.8370  2.2221 -1.2608
  143SAPE   C2415649   3.689   6.455  10.377 -0.4133  0.1224  0.1301
  143SAPE   H4R15650   3.732   6.395  10.294  1.8523  1.5710  0.1664
  143SAPE   H4S15651   3.780   6.511  10.410 -1.4195  1.6489  0.3774
  143SAPE   C2515652   3.581   6.545  10.330  0.5812  0.3028 -0.0244
  143SAPE   H5R15653   3.518   6.581  10.413 -1.5870  1.0673 -1.8797
  143SAPE   C2615654   3.554   6.581  10.202  0.2909  0.3101 -0.1800
  143SAPE   H6R15655   3.466   6.644  10.184 -0.5395  0.1038  2.6172
  143SAPE   C2715656   3.624   6.540  10.085 -0.0278 -0.3040  0.1847
  143SAPE   H7R15657   3.721   6.495  10.113 -0.8278 -1.0719  1.8710
  143SAPE   H7S15658   3.636   6.636  10.030  0.5555  0.3246  1.3771
  143SAPE   C2815659   3.542   6.462   9.986 -0.4526 -0.3723 -0.3176
  143SAPE   H8R15660   3.434   6.461  10.006 -0.3968  2.5311  0.6194
  143SAPE   C2915661   3.593   6.397   9.881  0.4522 -0.2005  0.4345
  143SAPE   H9R15662   3.530   6.339   9.812  2.8830 -0.4519 -1.7504
  143SAPE  C21015663   3.734   6.387   9.831  0.3568  0.3769  0.1106
  143SAPE  H10R15664   3.797   6.452   9.897  0.2706  0.4941  0.0772
  143SAPE  H10S15665   3.743   6.446   9.738 -0.2957  0.7972  0.3094
  143SAPE  C21115666   3.782   6.244   9.825 -0.3497 -0.6595 -0.1001
  143SAPE  H11R15667   3.766   6.194   9.921 -1.4766 -2.0378 -0.9642
  143SAPE  C21215668   3.832   6.171   9.719 -0.2591  0.4137  0.4471
  143SAPE  H12R15669   3.877   6.073   9.739  0.4220  0.5261 -0.4960
  143SAPE  C21315670   3.849   6.230   9.581 -0.5039 -0.6009 -0.0812
  143SAPE  H13R15671   3.832   6.340   9.574  4.1089  0.5585  2.6730
  143SAPE  H13S15672   3.780   6.188   9.505 -0.3647  1.3262 -1.3604
  143SAPE  C21415673   3.992   6.196   9.532  0.2694  0.9276  0.1653
  143SAPE  H14R15674   4.039   6.103   9.566  0.0591  0.8938  0.3653
  143SAPE  C21515675   4.071   6.266   9.445 -0.3148 -0.2247 -0.1686
  143SAPE  H15R15676   4.172   6.227   9.425 -1.3129 -2.3300 -1.4531
  143SAPE  C21615677   4.036   6.397   9.373 -0.0819  0.5638  0.5675
  143SAPE  H16R15678   4.079   6.491   9.413 -1.5887  1.4174  0.2720
  143SAPE  H16S15679   3.925   6.408   9.369 -0.1930  0.2797  2.0285
  143SAPE  C21715680   4.083   6.390   9.228 -0.1767  0.3128 -0.3718
  143SAPE  H17R15681   4.019   6.319   9.171 -0.7343 -0.7520  1.4974
  143SAPE  H17S15682   4.188   6.356   9.223 -0.1938  0.2062  0.0086
  143SAPE  C21815683   4.045   6.515   9.144  0.4136  0.0161  0.1983
  143SAPE  H18R15684   4.033   6.586   9.228  3.3824  0.6169  0.2227
  143SAPE  H18S15685   3.946   6.498   9.096  0.5423  3.5274 -1.6017
  143SAPE  C21915686   4.155   6.562   9.049 -0.0419 -0.2636 -0.2911
  143SAPE  H19R15687   4.257   6.557   9.092  0.1365  4.3045  0.2461
  143SAPE  H19S15688   4.129   6.668   9.030  2.8720  0.5460 -0.1175
  143SAPE  C22015689   4.154   6.482   8.926 -0.4285  0.3809 -0.2897
  143SAPE  H20R15690   4.238   6.515   8.862  2.1237 -1.0568  2.0889
  143SAPE  H20S15691   4.052   6.502   8.885 -0.3800  1.0001 -0.1080
  143SAPE  H20T15692   4.154   6.372   8.943  0.0450  0.2158 -1.3340
  143SAPE   C3315693   3.753   5.642  10.384 -0.3606  0.1817  0.1156
  143SAPE   H3X15694   3.692   5.549  10.372 -0.1510 -0.0505  0.7983
  143SAPE   H3Y15695   3.816   5.626  10.474 -2.1271 -0.7519  1.2537
  143SAPE   C3415696   3.847   5.638  10.259  0.2797  0.2902 -0.1231
  143SAPE   H4X15697   3.866   5.746  10.240 -3.5908  1.7191  2.7695
  143SAPE   H4Y15698   3.786   5.614  10.170 -0.6738  1.8216  0.0857
  143SAPE   C3515699   3.967   5.548  10.280 -0.0944  0.2687 -0.4602
  143SAPE   H5X15700   3.943   5.443  10.306  0.5985  0.5796  1.5865
  143SAPE   H5Y15701   4.021   5.581  10.371 -0.2394 -0.4183 -0.1191
  143SAPE   C3615702   4.062   5.556  10.158  0.6488 -0.3261 -0.3402
  143SAPE   H6X15703   4.149   5.488  10.172 -0.7035 -1.8796  0.8876
  143SAPE   H6Y15704   4.094   5.663  10.162 -0.3321 -0.0678  1.5357
  143SAPE   C3715705   4.008   5.511  10.016 -0.0338 -0.0765 -0.6783
  143SAPE   H7X15706   3.910   5.562  10.002 -0.5472 -0.1825  1.8930
  143SAPE   H7Y15707   3.993   5.405  10.044  1.0101  0.4572  2.2725
  143SAPE   C3815708   4.101   5.536   9.897  0.2205  0.4426 -0.3970
  143SAPE   H8X15709   4.203   5.499   9.920 -0.3621 -0.2850  1.2032
  143SAPE   H8Y15710   4.116   5.645   9.881  2.9037  0.1881 -0.1183
  143SAPE   C3915711   4.033   5.478   9.770 -0.2141  0.7598  0.4825
  143SAPE   H9X15712   3.924   5.499   9.769 -0.7359 -1.7139  0.2963
  143SAPE   H9Y15713   4.050   5.369   9.760  1.2546  1.1657 -2.3837
  143SAPE  C31015714   4.098   5.538   9.641  0.1272 -0.6901 -0.4167
  143SAPE  H10X15715   4.204   5.505   9.639 -0.0080 -1.1092 -0.8692
  143SAPE  H10Y15716   4.104   5.649   9.642 -1.4948 -0.5797 -0.7919
  143SAPE  C31115717   4.059   5.472   9.517  0.4815 -0.0191  0.8949
  143SAPE  H11X15718   3.951   5.491   9.497  0.2802 -1.6892  0.2785
  143SAPE  H11Y15719   4.068   5.362   9.520 -1.9178 -0.2819  1.0077
  143SAPE  C31215720   4.131   5.523   9.387 -0.2903  0.0547  0.4806
  143SAPE  H12X15721   4.232   5.478   9.376 -2.0199 -4.0311 -0.5419
  143SAPE  H12Y15722   4.132   5.634   9.390  0.2041  0.1774 -1.8189
  143SAPE  C31315723   4.054   5.486   9.257 -0.1371 -0.1014  0.0916
  143SAPE  H13X15724   3.970   5.558   9.258 -1.3513 -1.4642  0.5190
  143SAPE  H13Y15725   4.024   5.380   9.274  1.7684 -0.7055 -0.0170
  143SAPE  C31415726   4.136   5.510   9.121 -0.4713 -0.3616  0.4488
  143SAPE  H14X15727   4.230   5.452   9.116 -0.2917 -0.0542  0.1876
  143SAPE  H14Y15728   4.173   5.615   9.113  1.5783 -1.1713 -2.2938
  143SAPE  C31515729   4.068   5.463   8.996  0.8456  0.7676 -0.3081
  143SAPE  H15X15730   3.985   5.536   8.984 -2.0805 -2.3854 -0.7226
  143SAPE  H15Y15731   4.027   5.360   8.998  0.1809  1.0184 -0.7895
  143SAPE  C31615732   4.166   5.475   8.872  0.3064  0.3651  0.4790
  143SAPE  H16X15733   4.250   5.405   8.890  1.4289  1.8151  1.0519
  143SAPE  H16Y15734   4.221   5.571   8.873 -2.1399  1.9509 -2.0591
  143SAPE  C31715735   4.100   5.480   8.737  0.1406  0.1144 -0.1205
  143SAPE  H17X15736   4.060   5.381   8.708  0.4897  0.2936 -1.2396
  143SAPE  H17Y15737   4.188   5.495   8.671  0.5801  0.8955  0.6255
  143SAPE  C31815738   3.995   5.590   8.712  0.5056 -0.4173 -0.0801
  143SAPE  H18X15739   3.974   5.595   8.603  2.2606 -1.6917 -0.5236
  143SAPE  H18Y15740   4.040   5.691   8.724 -2.4249  1.2445 -1.9104
  143SAPE  H18Z15741   3.904   5.582   8.775 -0.7911  0.1913 -1.7968
  144SAPE     N15742   0.313   4.816  10.677 -0.1642  0.4065  0.0661
  144SAPE   HN115743   0.370   4.793  10.593  1.6752 -3.3709  2.0691
  144SAPE   HN215744   0.355   4.761  10.755 -0.4050  0.3448  0.1551
  144SAPE   HN315745   0.217   4.776  10.669 -0.6268  1.2735  1.1075
  144SAPE   C1215746   0.297   4.954  10.724 -0.0114 -0.4014  0.8989
  144SAPE  H12A15747   0.237   5.011  10.649  0.5021 -0.4276  0.4617
  144SAPE  H12B15748   0.399   4.998  10.728  0.1018 -0.4980 -0.2918
  144SAPE   C1115749   0.217   4.974  10.856 -0.0110  0.2134  0.7871
  144SAPE  H11A15750   0.207   5.085  10.864 -2.8422  0.0135  1.1694
  144SAPE  H11B15751   0.280   4.925  10.933  0.3016  0.6611  0.8210
  144SAPE     P15752  -0.048   4.954  10.829  0.1350  0.1806 -0.2823
  144SAPE   O1315753  -0.152   4.854  10.851 -0.0078 -0.3637  0.0685
  144SAPE   O1415754  -0.062   5.074  10.908  0.0537 -0.6099  0.2041
  144SAPE   O1215755   0.096   4.901  10.847 -0.1859 -0.1487 -0.0532
  144SAPE   O1115756  -0.037   4.985  10.671 -0.2872  0.2311 -0.5297
  144SAPE    C115757  -0.024   5.123  10.639  0.0780  0.0102  0.2559
  144SAPE    HA15758  -0.112   5.179  10.677 -0.1063  0.3796 -0.6804
  144SAPE    HB15759   0.061   5.169  10.694 -0.9046  0.5880  1.3370
  144SAPE    C215760  -0.015   5.149  10.483  1.1129 -0.4847 -0.2703
  144SAPE    HS15761  -0.106   5.112  10.432  0.1623 -0.5384  1.3780
  144SAPE   O2115762   0.105   5.092  10.428  0.3501  0.1229 -0.5161
  144SAPE   C2115763   0.079   4.983  10.356  0.8439 -0.1952  0.0372
  144SAPE   O2215764  -0.027   4.925  10.346 -0.0447  0.0599  0.1281
  144SAPE   C2215765   0.209   4.935  10.293  0.1870 -0.5958 -0.0137
  144SAPE   H2R15766   0.290   4.940  10.369  1.3248 -3.6462 -0.8751
  144SAPE   H2S15767   0.200   4.835  10.244  0.9744 -0.5323 -0.3000
  144SAPE    C315768  -0.014   5.304  10.457 -0.2717  0.6352  0.2018
  144SAPE    HX15769   0.082   5.343  10.497 -0.1138 -1.3075  1.8683
  144SAPE    HY15770  -0.097   5.353  10.513 -0.6774 -0.6677  0.7764
  144SAPE   O3115771  -0.040   5.333  10.321  0.5141  0.5142  0.2453
  144SAPE   C3115772   0.066   5.363  10.242  0.6887 -0.0039 -0.8414
  144SAPE   O3215773   0.169   5.408  10.291  0.3717  0.0374  0.2793
  144SAPE   C3215774   0.036   5.353  10.098 -0.1310  0.3332  0.5276
  144SAPE   H2X15775  -0.073   5.352  10.076  0.2918  0.9563 -1.9602
  144SAPE   H2Y15776   0.080   5.254  10.073 -1.1521 -0.1705  0.6489
  144SAPE   C2315777   0.251   5.023  10.171  0.1678  0.0686 -0.9011
  144SAPE   H3R15778   0.252   5.126  10.212 -0.8887  0.2397 -1.2881
  144SAPE   H3S15779   0.172   5.032  10.094 -0.4501  3.2752 -0.0320
  144SAPE   C2415780   0.386   4.988  10.107  0.8125 -0.5335 -0.5347
  144SAPE   H4R15781   0.470   5.014  10.175  0.7487 -0.1389 -0.6027
  144SAPE   H4S15782   0.389   5.062  10.025 -0.9726 -0.8856 -0.9567
  144SAPE   C2515783   0.390   4.854  10.039 -0.1992  0.1374  0.3778
  144SAPE   H5R15784   0.439   4.767  10.087 -0.5314 -0.2908 -0.0489
  144SAPE   C2615785   0.357   4.826   9.909  0.4307  0.7079 -0.2107
  144SAPE   H6R15786   0.383   4.728   9.866  0.6010  0.3762  0.6271
  144SAPE   C2715787   0.302   4.927   9.815 -0.4255  0.4952 -0.5108
  144SAPE   H7R15788   0.238   5.001   9.866 -1.2659 -0.7309  0.2601
  144SAPE   H7S15789   0.224   4.876   9.755 -1.0688 -1.2886  1.7216
  144SAPE   C2815790   0.408   5.012   9.737  0.1808  0.2005 -0.0256
  144SAPE   H8R15791   0.490   5.051   9.800  1.1812 -2.1945  0.2383
  144SAPE   C2915792   0.423   5.031   9.605 -0.1891 -0.1043  0.0533
  144SAPE   H9R15793   0.503   5.098   9.569 -1.1460  1.6149  0.9823
  144SAPE  C21015794   0.340   4.977   9.492 -0.3330 -0.7602  0.5270
  144SAPE  H10R15795   0.320   5.055   9.415 -0.2635 -0.8671  0.3995
  144SAPE  H10S15796   0.242   4.939   9.526 -0.4534 -3.2343 -2.1672
  144SAPE  C21115797   0.421   4.867   9.437 -0.5198 -0.1155 -0.0217
  144SAPE  H11R15798   0.469   4.808   9.517 -0.5905  2.7047  2.2588
  144SAPE  C21215799   0.440   4.839   9.306  0.2593 -0.1442  0.4474
  144SAPE  H12R15800   0.501   4.753   9.277  0.1213 -0.1053  0.0331
  144SAPE  C21315801   0.378   4.912   9.195  0.4709 -0.3732 -0.0163
  144SAPE  H13R15802   0.268   4.911   9.210  0.5643  3.1375  2.0581
  144SAPE  H13S15803   0.396   4.843   9.110  0.2974 -0.1628 -0.2253
  144SAPE  C21415804   0.433   5.044   9.162  0.2666  0.1241 -0.3354
  144SAPE  H14R15805   0.468   5.116   9.238  1.4431 -0.6421 -0.1354
  144SAPE  C21515806   0.468   5.086   9.035  0.4486 -0.1012 -0.6265
  144SAPE  H15R15807   0.516   5.185   9.028  0.3075  0.0150 -0.0035
  144SAPE  C21615808   0.442   5.009   8.901 -0.8561  0.1284 -0.3433
  144SAPE  H16R15809   0.352   4.945   8.915 -1.3703  0.6991 -0.9627
  144SAPE  H16S15810   0.530   4.947   8.876 -1.4089 -1.4204  1.3604
  144SAPE  C21715811   0.408   5.102   8.785  0.5625 -0.3192 -0.2527
  144SAPE  H17R15812   0.326   5.172   8.813  0.9061  0.1386 -0.3912
  144SAPE  H17S15813   0.369   5.037   8.703 -1.8192  1.0217 -0.2841
  144SAPE  C21815814   0.533   5.178   8.734 -0.5094 -0.0583  0.9683
  144SAPE  H18R15815   0.620   5.108   8.731  0.3036  0.9363  0.5997
  144SAPE  H18S15816   0.569   5.260   8.801  1.9966 -1.6683  1.7604
  144SAPE  C21915817   0.517   5.241   8.591  0.7524 -0.7291  0.2703
  144SAPE  H19R15818   0.435   5.314   8.606  2.2737  1.4085 -1.2788
  144SAPE  H19S15819   0.474   5.169   8.518 -0.2308 -0.8729  0.9739
  144SAPE  C22015820   0.638   5.317   8.548 -0.3363 -0.1648  0.3467
  144SAPE  H20R15821   0.716   5.241   8.529 -1.0359 -0.6930 -0.4782
  144SAPE  H20S15822   0.681   5.373   8.634 -1.2678 -0.9198  1.3398
  144SAPE  H20T15823   0.627   5.378   8.455  1.5919 -1.7315 -0.9789
  144SAPE   C3315824   0.112   5.458  10.013  0.0778  0.0513  0.0827
  144SAPE   H3X15825   0.095   5.559  10.056 -1.5807 -0.9096  1.8221
  144SAPE   H3Y15826   0.076   5.460   9.908 -1.4784  4.1398  0.4864
  144SAPE   C3415827   0.266   5.428   9.998  0.1169 -0.4370  0.2142
  144SAPE   H4X15828   0.279   5.337   9.935 -2.2303  1.3666 -3.2026
  144SAPE   H4Y15829   0.322   5.404  10.091  3.7308  0.9140 -1.4257
  144SAPE   C3515830   0.344   5.536   9.922 -0.1154  0.2563 -0.5334
  144SAPE   H5X15831   0.447   5.504   9.896 -0.3068 -0.2355 -0.6854
  144SAPE   H5Y15832   0.351   5.628   9.984  0.9127 -0.6323  0.7179
  144SAPE   C3615833   0.294   5.580   9.789  0.6359  0.6017 -0.5887
  144SAPE   H6X15834   0.194   5.628   9.802  0.5331  0.5915 -1.3270
  144SAPE   H6Y15835   0.281   5.495   9.719 -2.6889  1.8561 -1.6792
  144SAPE   C3715836   0.384   5.681   9.727 -0.0228 -0.1819  0.0343
  144SAPE   H7X15837   0.487   5.641   9.720  0.2407  0.4739  0.0541
  144SAPE   H7Y15838   0.384   5.767   9.797 -0.0762 -2.1443  2.5723
  144SAPE   C3815839   0.344   5.715   9.584 -0.4619 -0.6185 -0.2707
  144SAPE   H8X15840   0.235   5.737   9.583 -0.5602 -0.7180  2.3180
  144SAPE   H8Y15841   0.363   5.627   9.518  0.7726 -1.7360  1.4824
  144SAPE   C3915842   0.435   5.830   9.537 -0.3446 -0.5920 -0.0878
  144SAPE   H9X15843   0.541   5.799   9.532 -0.9009 -2.5495 -4.5994
  144SAPE   H9Y15844   0.429   5.920   9.602  1.1396 -1.4103  1.2462
  144SAPE  C31015845   0.404   5.871   9.391  0.3550  0.8866 -0.6165
  144SAPE  H10X15846   0.293   5.883   9.385  0.2449 -0.4795 -3.0933
  144SAPE  H10Y15847   0.426   5.777   9.334 -0.8344 -0.7651  1.4840
  144SAPE  C31115848   0.471   5.989   9.335  0.1953  0.3866  0.3758
  144SAPE  H11X15849   0.573   5.999   9.379 -0.5137  2.6493  1.7060
  144SAPE  H11Y15850   0.419   6.085   9.356  2.2606  1.3805  1.2904
  144SAPE  C31215851   0.479   5.989   9.182 -0.5611 -0.4430  0.3806
  144SAPE  H12X15852   0.521   6.088   9.156  0.2141 -0.2703  2.1325
  144SAPE  H12Y15853   0.376   5.971   9.144 -1.0428  0.8998  0.9968
  144SAPE  C31315854   0.566   5.883   9.129  0.1856  0.4159  0.3166
  144SAPE  H13X15855   0.513   5.785   9.126  2.4107 -0.9639 -4.3520
  144SAPE  H13Y15856   0.661   5.888   9.186 -0.2786 -1.5633  1.3372
  144SAPE  C31415857   0.602   5.899   8.988 -0.3654  0.7994  0.5019
  144SAPE  H14X15858   0.665   5.814   8.955 -1.6467 -0.2660  0.6798
  144SAPE  H14Y15859   0.654   5.995   8.969 -0.6626  0.9090  0.2414
  144SAPE  C31515860   0.479   5.909   8.893  0.6336  0.3353 -0.8633
  144SAPE  H15X15861   0.397   5.977   8.923 -1.7150 -1.6006 -2.5769
  144SAPE  H15Y15862   0.431   5.810   8.902  2.0812 -0.4215 -1.0952
  144SAPE  C31615863   0.509   5.937   8.745 -0.3284  0.1870 -0.5903
  144SAPE  H16X15864   0.415   5.924   8.686 -1.8467  0.8383  1.5681
  144SAPE  H16Y15865   0.576   5.854   8.712 -1.0297 -0.0385 -1.4717
  144SAPE  C31715866   0.573   6.075   8.710  0.1393  0.2699  0.3364
  144SAPE  H17X15867   0.612   6.079   8.606 -0.4190  3.3522  0.1623
  144SAPE  H17Y15868   0.667   6.080   8.770  1.0632  0.1939 -1.0412
  144SAPE  C31815869   0.495   6.200   8.740 -0.6584  0.3230  0.3789
  144SAPE  H18X15870   0.560   6.280   8.699 -1.3618 -1.0095 -3.8108
  144SAPE  H18Y15871   0.493   6.206   8.851 -1.2713 -2.2146  0.5532
  144SAPE  H18Z15872   0.399   6.215   8.687  1.0606  2.7196 -2.3803
  145SAPE     N15873   4.609   4.785  11.386 -0.2677 -0.6148  0.1062
  145SAPE   HN115874   4.631   4.791  11.285  0.2375 -1.7253  0.1332
  145SAPE   HN215875   4.660   4.699  11.413  2.4292  0.5101 -1.0238
  145SAPE   HN315876   4.506   4.770  11.388 -0.3469 -0.4623 -1.6087
  145SAPE   C1215877   4.644   4.917  11.461 -0.3963 -0.2208  0.6732
  145SAPE  H12A15878   4.670   4.887  11.565  1.2272 -0.2629  0.2810
  145SAPE  H12B15879   4.548   4.973  11.448 -0.0618 -0.1498 -2.0505
  145SAPE   C1115880   4.770   4.980  11.397  0.5176  0.0944  0.6197
  145SAPE  H11A15881   4.857   4.925  11.438  0.2483 -0.6593  0.1935
  145SAPE  H11B15882   4.788   5.088  11.417  0.7996  0.4442 -1.3500
  145SAPE     P15883   4.890   4.963  11.175  0.1414 -0.1144 -0.2209
  145SAPE   O1315884   4.961   5.089  11.198 -0.0063 -0.1384 -0.2310
  145SAPE   O1415885   4.969   4.839  11.192  0.1383 -0.3772 -0.1057
  145SAPE   O1215886   4.759   4.962  11.258 -0.4564 -0.6020 -0.3027
  145SAPE   O1115887   4.832   4.965  11.037 -0.0506  0.3765  1.2497
  145SAPE    C115888   4.797   4.845  10.960  0.3401 -0.3936 -0.2399
  145SAPE    HA15889   4.880   4.772  10.959  0.0945 -0.7052  0.7334
  145SAPE    HB15890   4.723   4.792  11.023 -0.4489  1.4553  0.4846
  145SAPE    C215891   4.726   4.872  10.824 -0.5944 -0.5610 -0.9069
  145SAPE    HS15892   4.644   4.801  10.800  0.7147 -1.5942 -2.5021
  145SAPE   O2115893   4.820   4.857  10.719 -0.3837  1.3340  1.2149
  145SAPE   C2115894   4.846   4.729  10.675 -0.3011  0.3261 -0.6855
  145SAPE   O2215895   4.789   4.628  10.725 -0.5944 -0.2096  0.5511
  145SAPE   C2215896   4.959   4.727  10.577  0.0103  0.2282 -0.2996
  145SAPE   H2R15897   4.987   4.833  10.557 -2.1893  1.3959  2.2409
  145SAPE   H2S15898   5.037   4.661  10.619  1.2485  0.1330 -2.5927
  145SAPE    C315899   4.666   5.019  10.821  0.3209  0.2195 -0.7798
  145SAPE    HX15900   4.751   5.086  10.846  1.5602 -1.6239  0.1532
  145SAPE    HY15901   4.590   5.023  10.902 -0.5815  0.7784 -1.6321
  145SAPE   O3115902   4.610   5.058  10.695 -0.5250 -0.0248 -0.1492
  145SAPE   C3115903   4.513   4.985  10.654 -0.4906 -0.7993 -0.3613
  145SAPE   O3215904   4.449   4.903  10.717 -0.4347  0.6073 -0.4799
  145SAPE   C3215905   4.487   5.033  10.505 -0.2756  0.4003 -0.4038
  145SAPE   H2X15906   4.497   5.143  10.515 -0.7372  0.3163  1.4045
  145SAPE   H2Y15907   4.381   5.012  10.480 -0.0743 -0.2976 -0.6719
  145SAPE   C2315908   4.913   4.662  10.440 -0.0405  0.2093  0.8559
  145SAPE   H3R15909   4.832   4.724  10.397  0.0668 -0.8590 -0.9995
  145SAPE   H3S15910   4.869   4.564  10.467  1.0768 -0.1939  1.3002
  145SAPE   C2415911   5.029   4.631  10.344 -0.5495 -0.2620  0.0542
  145SAPE   H4R15912   4.990   4.573  10.258  2.8257 -0.0725 -1.7804
  145SAPE   H4S15913   5.106   4.576  10.402  2.9230  2.6935 -1.3857
  145SAPE   C2515914   5.083   4.765  10.295 -0.8917 -0.1893  0.5735
  145SAPE   H5R15915   5.090   4.839  10.377  2.8444  0.8215 -0.4304
  145SAPE   C2615916   5.122   4.788  10.168  0.2115 -0.9650  0.2056
  145SAPE   H6R15917   5.155   4.889  10.140 -0.4827 -1.1806 -1.5249
  145SAPE   C2715918   5.123   4.697  10.047 -0.4350  0.2462 -0.6709
  145SAPE   H7R15919   5.031   4.636  10.040 -0.9451  1.0137 -0.7200
  145SAPE   H7S15920   5.206   4.623  10.059  0.6181  1.1177 -2.2439
  145SAPE   C2815921   5.132   4.768   9.912  0.4816 -0.8003  0.0353
  145SAPE   H8R15922   5.080   4.865   9.911  4.0033  1.2763  0.9813
  145SAPE   C2915923   5.195   4.724   9.803 -0.0671 -0.2104 -0.0147
  145SAPE   H9R15924   5.198   4.798   9.721  1.9899  0.2281  0.3938
  145SAPE  C21015925   5.267   4.592   9.778  0.0031  0.8005  0.2630
  145SAPE  H10R15926   5.272   4.525   9.867  0.4042 -0.2535 -0.5339
  145SAPE  H10S15927   5.372   4.622   9.755  0.3403 -0.6637 -0.2523
  145SAPE  C21115928   5.219   4.511   9.659 -0.4732 -0.4937  0.3701
  145SAPE  H11R15929   5.144   4.433   9.676 -0.6464 -0.3618  0.2235
  145SAPE  C21215930   5.244   4.531   9.526  0.0459 -0.9749 -0.0399
  145SAPE  H12R15931   5.171   4.481   9.461  1.3480 -2.9153 -0.1039
  145SAPE  C21315932   5.330   4.644   9.470 -0.0459 -0.1138  0.4617
  145SAPE  H13R15933   5.351   4.727   9.541 -0.6782 -0.0468  0.5719
  145SAPE  H13S15934   5.266   4.703   9.402  0.9438  0.5307  0.0693
  145SAPE  C21415935   5.459   4.602   9.401 -0.7823  0.1852  0.5059
  145SAPE  H14R15936   5.554   4.606   9.457 -0.2785  0.2405 -0.3391
  145SAPE  C21515937   5.471   4.570   9.269 -0.5265  0.0057 -0.4104
  145SAPE  H15R15938   5.572   4.552   9.229 -0.8347  0.4041 -1.3893
  145SAPE  C21615939   5.354   4.577   9.174 -0.4239  0.0342 -0.4064
  145SAPE  H16R15940   5.261   4.554   9.230 -0.6871  0.6079 -0.5968
  145SAPE  H16S15941   5.358   4.495   9.099 -0.6342  0.0330 -0.4169
  145SAPE  C21715942   5.334   4.705   9.094  0.5009 -0.1188  0.3292
  145SAPE  H17R15943   5.326   4.793   9.161 -0.3408 -0.2227  0.3849
  145SAPE  H17S15944   5.246   4.699   9.026  0.3828  0.8736  0.3838
  145SAPE  C21815945   5.454   4.725   8.997 -0.0501  0.3300 -0.5867
  145SAPE  H18R15946   5.549   4.729   9.054 -0.6578 -0.9888  0.5881
  145SAPE  H18S15947   5.451   4.822   8.943  0.7508 -0.5255 -2.2021
  145SAPE  C21915948   5.460   4.612   8.893 -0.1247  0.0660  0.0294
  145SAPE  H19R15949   5.483   4.520   8.953 -0.5700 -0.8327 -1.1462
  145SAPE  H19S15950   5.548   4.629   8.829 -0.6093 -1.9068 -1.2420
  145SAPE  C22015951   5.331   4.591   8.810  0.6538  0.1904 -0.0072
  145SAPE  H20R15952   5.248   4.554   8.874 -0.8136  0.6716 -1.5636
  145SAPE  H20S15953   5.355   4.523   8.725 -0.3111  0.2695 -0.3505
  145SAPE  H20T15954   5.296   4.690   8.775  0.3883  0.2806  0.5070
  145SAPE   C3315955   4.586   4.967  10.402  0.3948 -0.3027  0.4153
  145SAPE   H3X15956   4.619   4.866  10.434 -0.1042  0.0990  2.3040
  145SAPE   H3Y15957   4.685   5.018  10.398  0.7118 -0.9093  0.4336
  145SAPE   C3415958   4.525   4.952  10.267  0.7537  0.1487  0.7920
  145SAPE   H4X15959   4.470   5.044  10.238 -0.2352 -0.9067 -0.8314
  145SAPE   H4Y15960   4.451   4.869  10.267  1.4568 -0.5041 -0.0525
  145SAPE   C3515961   4.626   4.928  10.159 -0.5902 -0.5291  0.1094
  145SAPE   H5X15962   4.580   4.878  10.070 -0.7966  0.7521 -0.5381
  145SAPE   H5Y15963   4.712   4.865  10.188  1.1032  1.3844 -0.5457
  145SAPE   C3615964   4.697   5.060  10.116 -0.2421 -0.2412  0.8082
  145SAPE   H6X15965   4.748   5.100  10.206 -2.9664  0.9518  1.9265
  145SAPE   H6Y15966   4.617   5.135  10.099  0.6738  0.4846 -0.3540
  145SAPE   C3715967   4.780   5.045   9.993  0.3761  0.1676 -0.0353
  145SAPE   H7X15968   4.741   4.953   9.944 -1.2527  2.0284 -2.4694
  145SAPE   H7Y15969   4.889   5.024   9.996  0.6652  1.6071  0.4228
  145SAPE   C3815970   4.745   5.151   9.888 -0.2002  0.3230 -0.6038
  145SAPE   H8X15971   4.754   5.258   9.916 -0.6646  0.2869 -0.2985
  145SAPE   H8Y15972   4.636   5.145   9.866 -0.4548  2.4990 -0.2205
  145SAPE   C3915973   4.832   5.155   9.765  0.1220 -0.0480 -0.3198
  145SAPE   H9X15974   4.939   5.161   9.795 -0.4963 -0.4014  2.1689
  145SAPE   H9Y15975   4.808   5.252   9.716 -1.3677 -1.2482 -2.0495
  145SAPE  C31015976   4.814   5.044   9.667  0.1562  0.1517  0.1336
  145SAPE  H10X15977   4.713   5.053   9.620  0.7630  0.0085 -1.2294
  145SAPE  H10Y15978   4.822   4.950   9.726 -1.3171  0.1639  0.4126
  145SAPE  C31115979   4.913   5.057   9.553  0.5541 -0.2104 -0.0690
  145SAPE  H11X15980   5.018   5.072   9.587  0.5447  1.5154 -0.6886
  145SAPE  H11Y15981   4.889   5.147   9.491  1.8717 -0.2118 -0.6123
  145SAPE  C31215982   4.906   4.936   9.468 -0.4308 -0.7017  0.0784
  145SAPE  H12X15983   4.797   4.914   9.465 -0.3171 -1.1988 -0.9422
  145SAPE  H12Y15984   4.960   4.858   9.524 -0.3729  1.4688  3.2835
  145SAPE  C31315985   4.963   4.956   9.332  0.4573  0.5344  0.1592
  145SAPE  H13X15986   5.074   4.956   9.337  0.6276 -1.4134 -1.9839
  145SAPE  H13Y15987   4.949   5.059   9.293  1.5986 -0.1292 -2.1955
  145SAPE  C31415988   4.926   4.853   9.227  0.2660  0.5778 -0.1136
  145SAPE  H14X15989   4.818   4.828   9.237  0.3403 -0.3151 -1.2993
  145SAPE  H14Y15990   4.981   4.762   9.259 -0.1841  0.1268 -0.6098
  145SAPE  C31515991   4.966   4.890   9.082  0.1939 -0.5232 -0.0389
  145SAPE  H15X15992   4.942   4.802   9.019  0.6406 -0.5142 -0.2266
  145SAPE  H15Y15993   5.073   4.917   9.066  0.0041  0.4525  0.2579
  145SAPE  C31615994   4.891   5.008   9.027 -0.0484 -0.1508  0.2284
  145SAPE  H16X15995   4.913   5.105   9.075 -1.3473 -0.1618  0.8895
  145SAPE  H16Y15996   4.783   4.992   9.049 -0.1934 -0.5563 -0.7173
  145SAPE  C31715997   4.912   5.030   8.874 -0.0704 -0.0147 -0.4360
  145SAPE  H17X15998   5.020   5.008   8.857 -0.5096 -1.8414 -1.1427
  145SAPE  H17Y15999   4.892   5.132   8.834  1.1517  0.2615 -0.3925
  145SAPE  C31816000   4.837   4.932   8.779  0.3700 -0.0314 -0.7114
  145SAPE  H18X16001   4.730   4.928   8.812  0.2219  1.2211 -1.0151
  145SAPE  H18Y16002   4.884   4.831   8.786  3.3006  1.0703 -2.6323
  145SAPE  H18Z16003   4.840   4.956   8.670  1.2665  0.8987 -0.4906
  146SAPE     N16004   3.062   6.122  11.220 -0.2367  0.0045  0.1763
  146SAPE   HN116005   3.116   6.166  11.297 -0.6431  0.9361 -0.0557
  146SAPE   HN216006   3.035   6.032  11.267  1.5118 -0.5464  0.1900
  146SAPE   HN316007   3.124   6.090  11.143 -2.4224 -1.7123 -1.0229
  146SAPE   C1216008   2.947   6.198  11.154 -0.5782  0.9240 -0.1684
  146SAPE  H12A16009   2.999   6.281  11.101 -3.2660  2.3131 -0.8217
  146SAPE  H12B16010   2.880   6.236  11.234 -0.8480 -0.3229  0.2109
  146SAPE   C1116011   2.871   6.108  11.058  0.3241 -0.1927  0.4369
  146SAPE  H11A16012   2.925   6.090  10.963  0.5303  0.3098  0.4549
  146SAPE  H11B16013   2.776   6.162  11.035  1.1410  0.7477 -0.8840
  146SAPE     P16014   2.721   5.895  11.064  0.0972 -0.2470  0.2453
  146SAPE   O1316015   2.761   5.750  11.068  0.5764 -0.1118 -0.1398
  146SAPE   O1416016   2.587   5.933  11.118 -0.0248  0.1104  0.0250
  146SAPE   O1216017   2.838   5.980  11.123  0.0040  0.6565  0.3531
  146SAPE   O1116018   2.734   5.939  10.913  0.1163  0.1520 -0.1794
  146SAPE    C116019   2.661   5.862  10.818  0.1874  0.4711  0.4399
  146SAPE    HA16020   2.643   5.754  10.839  1.1096 -0.2259 -1.9841
  146SAPE    HB16021   2.559   5.905  10.811  0.0986  0.2494  0.3214
  146SAPE    C216022   2.724   5.867  10.679 -0.4784  0.1604 -0.1565
  146SAPE    HS16023   2.830   5.836  10.695 -0.7371 -0.9411 -0.4852
  146SAPE   O2116024   2.707   6.003  10.630  0.8107  0.6864  0.0877
  146SAPE   C2116025   2.798   6.069  10.568 -0.0024 -0.3195  0.2348
  146SAPE   O2216026   2.908   6.027  10.540 -0.5914  0.8020  0.0573
  146SAPE   C2216027   2.750   6.208  10.526 -0.3268 -0.3941  0.8317
  146SAPE   H2R16028   2.640   6.212  10.541 -0.3803  0.5401  0.2461
  146SAPE   H2S16029   2.790   6.290  10.589  1.2599  0.1281 -0.7527
  146SAPE    C316030   2.669   5.762  10.579 -0.1074 -0.1206 -0.4453
  146SAPE    HX16031   2.566   5.802  10.567  0.6254  1.3207 -2.5641
  146SAPE    HY16032   2.654   5.665  10.631  1.0837 -1.4303 -2.3958
  146SAPE   O3116033   2.725   5.757  10.445  0.1192  0.1939  0.1108
  146SAPE   C3116034   2.841   5.683  10.443  0.2988  1.0202 -0.5364
  146SAPE   O3216035   2.874   5.607  10.529  0.1520  0.9035 -0.3562
  146SAPE   C3216036   2.900   5.685  10.311  0.0937 -0.5942  0.4594
  146SAPE   H2X16037   2.823   5.680  10.231 -0.9269  3.4611  0.9941
  146SAPE   H2Y16038   2.964   5.594  10.302 -1.5132 -1.7751  0.4949
  146SAPE   C2316039   2.786   6.237  10.373 -0.0424  0.2825  0.2049
  146SAPE   H3R16040   2.892   6.228  10.342 -0.6195 -1.9865 -1.3778
  146SAPE   H3S16041   2.763   6.345  10.362 -1.4650  0.2266  2.1491
  146SAPE   C2416042   2.694   6.160  10.275  0.0368  0.1013 -0.1645
  146SAPE   H4R16043   2.689   6.053  10.304 -1.5770 -0.5078 -2.4755
  146SAPE   H4S16044   2.750   6.161  10.179 -1.9850 -0.0990 -1.3916
  146SAPE   C2516045   2.553   6.206  10.272  0.0230 -0.0088 -0.5254
  146SAPE   H5R16046   2.493   6.162  10.353  1.0911  2.9529  2.0716
  146SAPE   C2616047   2.488   6.272  10.173  0.0068  0.6722 -0.2046
  146SAPE   H6R16048   2.380   6.291  10.178 -0.1143  0.0900 -0.5547
  146SAPE   C2716049   2.539   6.329  10.047 -0.0129  0.7703  0.4283
  146SAPE   H7R16050   2.494   6.275   9.960  1.5796  0.7130 -0.3895
  146SAPE   H7S16051   2.646   6.309  10.027  0.5722  1.1159  2.9054
  146SAPE   C2816052   2.516   6.479  10.037 -0.3562 -0.6091  0.0180
  146SAPE   H8R16053   2.490   6.525  10.134  0.2796 -0.6664  0.2213
  146SAPE   C2916054   2.511   6.551   9.921 -0.1630  0.4158  0.4789
  146SAPE   H9R16055   2.505   6.661   9.928 -2.0844  0.3967 -0.3492
  146SAPE  C21016056   2.542   6.489   9.786  0.0621 -0.0336  0.4039
  146SAPE  H10R16057   2.482   6.398   9.760 -0.9195  0.9478 -0.9010
  146SAPE  H10S16058   2.641   6.441   9.799  1.4808  3.1074  2.2479
  146SAPE  C21116059   2.531   6.595   9.685  0.0954 -0.2916  0.0038
  146SAPE  H11R16060   2.625   6.648   9.667  0.4951  0.1014  2.8466
  146SAPE  C21216061   2.415   6.636   9.619  0.4347  0.2028  0.1742
  146SAPE  H12R16062   2.422   6.717   9.544 -0.2431 -1.4921 -1.7985
  146SAPE  C21316063   2.277   6.578   9.639  0.3015  0.5365 -0.9500
  146SAPE  H13R16064   2.270   6.515   9.730 -0.3250  2.2612  0.2630
  146SAPE  H13S16065   2.278   6.504   9.556  2.7606 -0.5487 -0.0243
  146SAPE  C21416066   2.142   6.635   9.634 -0.4275 -0.5876 -0.1441
  146SAPE  H14R16067   2.089   6.624   9.539 -0.9110  1.1022 -0.0956
  146SAPE  C21516068   2.088   6.700   9.738  0.0255  0.6624  0.2668
  146SAPE  H15R16069   1.987   6.736   9.716 -0.5876 -1.5061 -0.6980
  146SAPE  C21616070   2.165   6.731   9.870  0.4639  0.7561  0.6572
  146SAPE  H16R16071   2.234   6.814   9.845  2.0021 -1.1474 -1.9918
  146SAPE  H16S16072   2.230   6.648   9.906 -0.1745 -0.6493 -1.2602
  146SAPE  C21716073   2.077   6.786   9.986 -0.0599  0.5341  0.3774
  146SAPE  H17R16074   1.980   6.732   9.980  1.0880 -1.6721  0.4124
  146SAPE  H17S16075   2.057   6.893   9.964 -3.0879 -0.1082 -0.4260
  146SAPE  C21816076   2.136   6.766  10.119  0.2671  0.5095  0.0789
  146SAPE  H18R16077   2.233   6.818  10.120  0.1761  0.7081  1.8701
  146SAPE  H18S16078   2.161   6.659  10.139 -1.0415  0.1922  0.1480
  146SAPE  C21916079   2.048   6.824  10.234  0.4801 -0.4315 -0.3710
  146SAPE  H19R16080   2.095   6.799  10.331 -0.4810  0.2298  0.2843
  146SAPE  H19S16081   1.958   6.759  10.239  0.2834 -0.1082  0.4777
  146SAPE  C22016082   2.028   6.975  10.220 -0.0452  0.0737 -0.3528
  146SAPE  H20R16083   2.120   7.021  10.179 -0.7418  2.0930  0.2418
  146SAPE  H20S16084   2.002   7.027  10.315  0.2639 -0.7098  0.1689
  146SAPE  H20T16085   1.945   6.996  10.148  0.0263 -2.0486 -1.1404
  146SAPE   C3316086   2.999   5.802  10.297  1.1068  0.6304 -0.3231
  146SAPE   H3X16087   3.052   5.804  10.394 -0.9174 -2.1859  0.9691
  146SAPE   H3Y16088   2.935   5.891  10.283  0.4212  0.1356 -0.3894
  146SAPE   C3416089   3.103   5.766  10.190  0.8115 -0.5439 -0.5824
  146SAPE   H4X16090   3.152   5.669  10.216  1.3818  0.0457  0.6016
  146SAPE   H4Y16091   3.179   5.846  10.177 -0.4880  0.5464 -1.7806
  146SAPE   C3516092   3.035   5.751  10.054  0.2329  0.5842 -0.3711
  146SAPE   H5X16093   2.953   5.824  10.039 -1.5219 -0.9911  1.0195
  146SAPE   H5Y16094   2.977   5.655  10.057  0.5081  0.4336  1.8936
  146SAPE   C3616095   3.126   5.751   9.932 -0.0134 -0.4888  0.2033
  146SAPE   H6X16096   3.228   5.716   9.961 -0.6370 -1.4371  1.2978
  146SAPE   H6Y16097   3.131   5.855   9.893  0.6975 -0.4999  0.2383
  146SAPE   C3716098   3.089   5.646   9.819  0.0394  0.8986  0.5989
  146SAPE   H7X16099   2.983   5.661   9.790 -0.0329 -1.0006 -0.2524
  146SAPE   H7Y16100   3.107   5.549   9.871  1.2589  0.8959  0.2183
  146SAPE   C3816101   3.181   5.662   9.694  0.1339 -0.9412  0.2567
  146SAPE   H8X16102   3.288   5.650   9.723  0.1541 -2.9221 -0.4715
  146SAPE   H8Y16103   3.164   5.768   9.663 -2.3508 -0.6596  2.2810
  146SAPE   C3916104   3.162   5.568   9.573 -0.4382 -0.0247  0.9833
  146SAPE   H9X16105   3.057   5.576   9.539  1.0964  0.8126 -4.4516
  146SAPE   H9Y16106   3.183   5.463   9.605 -0.9478 -0.6105 -0.5475
  146SAPE  C31016107   3.259   5.607   9.455  0.4109 -0.4114 -0.3715
  146SAPE  H10X16108   3.362   5.623   9.494  0.2135 -0.4378  0.1826
  146SAPE  H10Y16109   3.231   5.705   9.411  0.6401 -0.9215 -1.6807
  146SAPE  C31116110   3.267   5.507   9.343  0.2264  0.4797  0.0103
  146SAPE  H11X16111   3.168   5.474   9.306  0.7804 -2.4716  0.8689
  146SAPE  H11Y16112   3.306   5.413   9.387  1.3357 -0.2043 -2.2646
  146SAPE  C31216113   3.365   5.526   9.227  0.3599  0.0065 -0.4578
  146SAPE  H12X16114   3.359   5.433   9.167  1.0076 -0.3589  0.0354
  146SAPE  H12Y16115   3.470   5.524   9.264  0.0296 -2.0809  0.5495
  146SAPE  C31316116   3.346   5.655   9.147  0.3150  0.2629  0.0894
  146SAPE  H13X16117   3.341   5.731   9.228 -0.6784 -0.0058  0.3005
  146SAPE  H13Y16118   3.248   5.668   9.097  1.6288  3.1776 -2.0124
  146SAPE  C31416119   3.459   5.697   9.060  0.1930 -0.7110  0.6049
  146SAPE  H14X16120   3.489   5.623   8.982  1.2252 -0.1528  0.4627
  146SAPE  H14Y16121   3.550   5.723   9.118 -0.2803  2.5809  0.0337
  146SAPE  C31516122   3.429   5.814   8.967  0.2879  0.2667 -1.0335
  146SAPE  H15X16123   3.516   5.819   8.898  0.1553 -0.7320 -1.2775
  146SAPE  H15Y16124   3.425   5.909   9.026 -1.3085 -0.2744 -0.2108
  146SAPE  C31616125   3.324   5.784   8.864  0.6772 -0.1999 -0.0263
  146SAPE  H16X16126   3.228   5.750   8.910  0.7619 -0.2477  0.1167
  146SAPE  H16Y16127   3.350   5.690   8.810  1.1252 -0.4937  0.6832
  146SAPE  C31716128   3.292   5.900   8.768  0.3590  0.8250  0.0247
  146SAPE  H17X16129   3.218   5.870   8.691  1.1974 -0.2828 -0.3705
  146SAPE  H17Y16130   3.391   5.940   8.737  0.1568  0.6431 -0.8603
  146SAPE  C31816131   3.219   6.016   8.836 -0.6402  0.2321  0.3007
  146SAPE  H18X16132   3.285   6.067   8.910  1.7934 -2.9969  0.6343
  146SAPE  H18Y16133   3.129   5.983   8.892 -1.7359  1.7991 -0.4839
  146SAPE  H18Z16134   3.203   6.088   8.753 -0.9084 -1.3042 -1.0465
  147SAPE     N16135   0.509   4.363   6.238 -0.5767 -0.2174 -0.3490
  147SAPE   HN116136   0.480   4.463   6.238  2.2739  0.6962 -0.8300
  147SAPE   HN216137   0.600   4.364   6.189 -0.5474 -0.8849 -0.3197
  147SAPE   HN316138   0.457   4.300   6.173  1.0023 -1.7715 -0.1655
  147SAPE   C1216139   0.513   4.310   6.379  0.2331 -0.1120  0.4855
  147SAPE  H12A16140   0.408   4.324   6.412 -0.8652  2.3864 -3.3279
  147SAPE  H12B16141   0.581   4.369   6.445 -1.2006 -0.6713  2.5508
  147SAPE   C1116142   0.553   4.155   6.377  0.7156 -0.0478  0.0665
  147SAPE  H11A16143   0.554   4.125   6.484  0.0568 -0.6712 -0.0937
  147SAPE  H11B16144   0.657   4.145   6.341  1.3864  1.0623  1.5756
  147SAPE     P16145   0.400   3.936   6.356  0.2959 -0.3613 -0.2709
  147SAPE   O1316146   0.277   3.888   6.277 -0.7241 -1.0132 -0.6975
  147SAPE   O1416147   0.522   3.848   6.350 -0.1208 -0.1468 -0.1027
  147SAPE   O1216148   0.455   4.080   6.305 -0.4347  0.3670 -0.1125
  147SAPE   O1116149   0.355   3.974   6.510 -0.2061 -0.8331 -0.1222
  147SAPE    C116150   0.244   4.068   6.528 -0.0290 -0.4770 -0.8649
  147SAPE    HA16151   0.276   4.165   6.483 -0.4900  0.8066  1.4256
  147SAPE    HB16152   0.171   4.025   6.457  2.2367 -2.1234 -2.3338
  147SAPE    C216153   0.207   4.066   6.670 -0.6244 -0.3854 -0.6718
  147SAPE    HS16154   0.212   3.968   6.721 -2.9659  0.5940  1.6659
  147SAPE   O2116155   0.087   4.124   6.701 -0.3808 -0.1203 -0.2837
  147SAPE   C2116156  -0.018   4.062   6.654 -0.1016  0.1323  0.3490
  147SAPE   O2216157  -0.020   3.945   6.617  0.2726 -0.2581  0.6030
  147SAPE   C2216158  -0.136   4.158   6.646 -0.8061 -0.7465 -0.7337
  147SAPE   H2R16159  -0.089   4.240   6.587 -0.1155 -0.6083 -0.0089
  147SAPE   H2S16160  -0.222   4.129   6.581  0.3585 -3.6489 -1.1641
  147SAPE    C316161   0.327   4.131   6.749 -0.1450  0.3558  0.4094
  147SAPE    HX16162   0.346   4.235   6.713 -1.6011  0.5449  0.1448
  147SAPE    HY16163   0.420   4.072   6.732 -0.7841 -0.2465 -1.1640
  147SAPE   O3116164   0.293   4.124   6.890  0.0874  0.1267 -0.1791
  147SAPE   C3116165   0.244   4.238   6.929 -0.4492  0.5812 -0.2893
  147SAPE   O3216166   0.250   4.345   6.872 -0.7567 -0.1027  0.3947
  147SAPE   C3216167   0.162   4.214   7.061 -0.2634  0.3289  0.0546
  147SAPE   H2X16168   0.230   4.154   7.126  1.6281  1.9865 -0.2722
  147SAPE   H2Y16169   0.081   4.149   7.024  0.8455 -0.7830 -0.5133
  147SAPE   C2316170  -0.179   4.202   6.783  0.3244 -0.3273 -0.5014
  147SAPE   H3R16171  -0.237   4.297   6.791  0.7958 -0.0397 -0.4558
  147SAPE   H3S16172  -0.095   4.207   6.855  2.6990 -0.1991 -3.1321
  147SAPE   C2416173  -0.275   4.100   6.849 -0.5388  0.3868  0.2305
  147SAPE   H4R16174  -0.363   4.100   6.780  0.4139  0.5595 -1.0317
  147SAPE   H4S16175  -0.309   4.159   6.937 -1.5899 -2.2154  1.6715
  147SAPE   C2516176  -0.225   3.963   6.883  0.0905 -0.6310  0.5686
  147SAPE   H5R16177  -0.193   3.895   6.803  0.9173  0.8496 -0.3969
  147SAPE   C2616178  -0.231   3.913   7.010  0.3156 -0.3211 -0.5953
  147SAPE   H6R16179  -0.205   3.808   7.027  1.9029  0.0531 -0.6091
  147SAPE   C2716180  -0.283   3.981   7.138 -0.0157  0.0387  0.7882
  147SAPE   H7R16181  -0.267   4.090   7.134 -0.0989  0.0171 -0.6674
  147SAPE   H7S16182  -0.223   3.949   7.226  0.1595  2.1344  1.4758
  147SAPE   C2816183  -0.433   3.977   7.153  0.2689 -0.4444 -0.1607
  147SAPE   H8R16184  -0.500   3.987   7.066  0.0753 -0.0443  0.0276
  147SAPE   C2916185  -0.502   3.965   7.267 -0.3437 -0.0571 -0.5051
  147SAPE   H9R16186  -0.611   3.977   7.272 -0.0973  2.0652  1.0383
  147SAPE  C21016187  -0.439   3.956   7.405 -0.0115  0.2567 -0.4127
  147SAPE  H10R16188  -0.334   3.992   7.413  0.2908 -0.7350  0.4291
  147SAPE  H10S16189  -0.442   3.850   7.439  0.0882 -0.1886 -1.7564
  147SAPE  C21116190  -0.516   4.032   7.512 -0.9331 -0.1780 -0.3984
  147SAPE  H11R16191  -0.578   4.110   7.465 -1.3154 -1.3723 -1.9728
  147SAPE  C21216192  -0.525   3.996   7.643 -0.4323 -0.3260  0.2546
  147SAPE  H12R16193  -0.595   4.049   7.708 -0.8872 -3.8869  3.0076
  147SAPE  C21316194  -0.454   3.881   7.710  0.4246 -0.3027  0.6386
  147SAPE  H13R16195  -0.346   3.879   7.684  0.2711 -0.2281 -0.0197
  147SAPE  H13S16196  -0.502   3.789   7.671 -0.1248 -0.0179  0.6340
  147SAPE  C21416197  -0.480   3.870   7.857  0.5176 -0.1973 -0.0968
  147SAPE  H14R16198  -0.498   3.969   7.902  1.5925 -0.2870  0.5893
  147SAPE  C21516199  -0.486   3.765   7.937  0.0853  0.2122  0.1288
  147SAPE  H15R16200  -0.518   3.776   8.042 -2.7505 -1.3445 -0.4587
  147SAPE  C21616201  -0.460   3.629   7.892  0.0458  0.3086 -0.1573
  147SAPE  H16R16202  -0.434   3.621   7.784  1.2350  2.7731 -0.1333
  147SAPE  H16S16203  -0.549   3.563   7.901  0.9057 -0.6831  1.4096
  147SAPE  C21716204  -0.341   3.545   7.947  0.2989  0.0833 -0.0938
  147SAPE  H17R16205  -0.260   3.615   7.975  1.6916 -1.9136  1.1325
  147SAPE  H17S16206  -0.298   3.477   7.870  2.9057  0.1184  1.2352
  147SAPE  C21816207  -0.375   3.483   8.087  0.0414  0.0856  0.1861
  147SAPE  H18R16208  -0.468   3.423   8.078  0.6140 -1.0278  1.5082
  147SAPE  H18S16209  -0.413   3.555   8.162 -0.9182  0.7160 -0.8630
  147SAPE  C21916210  -0.257   3.397   8.150  0.4192 -0.1501  0.1409
  147SAPE  H19R16211  -0.165   3.460   8.149  0.4113 -0.1439 -0.4512
  147SAPE  H19S16212  -0.220   3.317   8.083 -1.7779 -1.1356  0.0398
  147SAPE  C22016213  -0.289   3.350   8.291 -0.1342 -0.0303 -0.7877
  147SAPE  H20R16214  -0.372   3.276   8.287 -0.0005 -0.3233  1.0875
  147SAPE  H20S16215  -0.317   3.436   8.355  0.2143 -0.4546 -0.0588
  147SAPE  H20T16216  -0.206   3.303   8.347  2.6164  2.4032 -2.5574
  147SAPE   C3316217   0.111   4.344   7.134 -0.4705 -0.5613  0.2513
  147SAPE   H3X16218   0.033   4.394   7.072  0.4103 -0.3193 -0.6905
  147SAPE   H3Y16219   0.198   4.409   7.158 -1.4861 -0.0319  2.8355
  147SAPE   C3416220   0.051   4.305   7.268  0.0655 -0.6390  0.3790
  147SAPE   H4X16221  -0.022   4.223   7.254  0.5997 -0.8665 -1.2920
  147SAPE   H4Y16222  -0.008   4.388   7.313 -0.1698  0.2305 -1.4438
  147SAPE   C3516223   0.150   4.256   7.375 -0.7594 -0.4761  0.5869
  147SAPE   H5X16224   0.242   4.317   7.367 -0.6849 -0.6554 -0.0062
  147SAPE   H5Y16225   0.189   4.152   7.361  1.0070  0.3953 -1.6108
  147SAPE   C3616226   0.096   4.274   7.519  0.0255 -0.2291  0.0834
  147SAPE   H6X16227   0.021   4.197   7.544  0.5202 -0.2379  1.6769
  147SAPE   H6Y16228   0.055   4.376   7.536  1.0605  0.0483  1.0742
  147SAPE   C3716229   0.202   4.240   7.621 -0.6076  0.1745 -0.1605
  147SAPE   H7X16230   0.285   4.313   7.610  0.9507 -1.5756 -0.3139
  147SAPE   H7Y16231   0.239   4.137   7.607 -0.2512  0.4839 -1.6566
  147SAPE   C3816232   0.142   4.243   7.763 -0.4176 -0.0459 -0.2970
  147SAPE   H8X16233   0.061   4.167   7.770  0.6018 -1.1769 -0.3786
  147SAPE   H8Y16234   0.119   4.350   7.782  0.7324  0.0369  0.7350
  147SAPE   C3916235   0.252   4.198   7.866 -0.5859 -0.0899 -0.0915
  147SAPE   H9X16236   0.321   4.285   7.867  0.3357 -0.7840 -1.1920
  147SAPE   H9Y16237   0.295   4.103   7.828 -2.2341 -1.1362  0.5360
  147SAPE  C31016238   0.201   4.169   8.004  0.0901  0.6349  0.2542
  147SAPE  H10X16239   0.111   4.106   7.990  1.2090 -0.4841 -3.0345
  147SAPE  H10Y16240   0.167   4.257   8.062  0.3724  0.6498  0.3977
  147SAPE  C31116241   0.299   4.098   8.100 -0.7336  0.0306 -0.5010
  147SAPE  H11X16242   0.401   4.142   8.089 -0.0927 -0.9579  1.0850
  147SAPE  H11Y16243   0.307   3.987   8.088 -0.4111 -0.1582  1.2555
  147SAPE  C31216244   0.246   4.108   8.242 -0.2780  0.2660  0.2907
  147SAPE  H12X16245   0.150   4.053   8.248 -0.6834  0.8297 -0.8282
  147SAPE  H12Y16246   0.225   4.217   8.252  0.5517  0.4448  0.1720
  147SAPE  C31316247   0.349   4.074   8.344 -0.2412 -0.4171 -0.0571
  147SAPE  H13X16248   0.443   4.126   8.315  0.2905 -1.3798 -0.0865
  147SAPE  H13Y16249   0.385   3.970   8.333 -1.1537 -0.8978  1.1823
  147SAPE  C31416250   0.296   4.104   8.488 -0.4929 -1.1193  0.8912
  147SAPE  H14X16251   0.244   4.014   8.526 -1.9283 -1.2334 -1.1873
  147SAPE  H14Y16252   0.221   4.186   8.487 -0.6194 -1.1919  2.4830
  147SAPE  C31516253   0.414   4.135   8.579  0.3411 -0.0070  0.4797
  147SAPE  H15X16254   0.464   4.231   8.555  0.6721 -0.3336 -0.1680
  147SAPE  H15Y16255   0.492   4.056   8.579  1.9508  1.4969 -1.1496
  147SAPE  C31616256   0.350   4.143   8.722  0.4452 -0.2296  0.6656
  147SAPE  H16X16257   0.288   4.051   8.733  2.4476 -1.7001  0.3172
  147SAPE  H16Y16258   0.279   4.228   8.731  0.8080  0.0817  0.6123
  147SAPE  C31716259   0.454   4.138   8.829  0.6128  0.0749 -0.0437
  147SAPE  H17X16260   0.525   4.219   8.801  0.7040 -0.2563 -0.8050
  147SAPE  H17Y16261   0.501   4.039   8.811  0.5785 -0.1969  1.2879
  147SAPE  C31816262   0.406   4.140   8.971  0.2460 -0.1051 -0.8673
  147SAPE  H18X16263   0.360   4.236   9.002  1.1500  0.7765 -2.2032
  147SAPE  H18Y16264   0.495   4.124   9.034 -0.2796  0.6938  0.1074
  147SAPE  H18Z16265   0.330   4.060   8.987  0.3747  0.3558  2.9596
  148SAPE     N16266   4.291   3.541   6.312  0.2848 -0.4562  0.0173
  148SAPE   HN116267   4.353   3.555   6.394  1.4388 -0.7350 -0.7830
  148SAPE   HN216268   4.208   3.481   6.330 -1.2885  0.7138 -2.6386
  148SAPE   HN316269   4.345   3.507   6.230 -0.8597  0.1482 -1.0438
  148SAPE   C1216270   4.228   3.683   6.287  0.4054  0.4818 -0.1616
  148SAPE  H12A16271   4.196   3.676   6.181 -0.7345 -1.3397  0.2511
  148SAPE  H12B16272   4.309   3.755   6.309  3.7695 -2.3418 -2.2023
  148SAPE   C1116273   4.109   3.705   6.383  0.0889 -0.0692 -0.1074
  148SAPE  H11A16274   4.017   3.653   6.348  0.9476 -0.8187 -1.2942
  148SAPE  H11B16275   4.093   3.815   6.391  0.2293 -0.0581  0.0253
  148SAPE     P16276   4.210   3.727   6.630  0.3882 -0.3041 -0.5960
  148SAPE   O1316277   4.233   3.624   6.731  0.3383 -0.1547 -0.1397
  148SAPE   O1416278   4.324   3.801   6.570  0.1665  0.2751 -0.1684
  148SAPE   O1216279   4.140   3.649   6.512 -0.2660  0.1517 -0.3591
  148SAPE   O1116280   4.095   3.832   6.664  0.2431 -0.2047 -0.3390
  148SAPE    C116281   4.132   3.960   6.714  0.4219 -0.7630  0.0254
  148SAPE    HA16282   4.232   3.997   6.682  0.7488 -1.7688 -0.1227
  148SAPE    HB16283   4.053   4.031   6.681  1.0172 -0.2338 -0.2865
  148SAPE    C216284   4.120   3.960   6.866 -0.5301 -0.6349  0.2815
  148SAPE    HS16285   4.129   4.061   6.912  0.8915 -2.3060  4.0130
  148SAPE   O2116286   4.224   3.880   6.932 -0.1518 -0.1428 -0.3386
  148SAPE   C2116287   4.342   3.927   6.937  0.5209 -0.5727  0.4382
  148SAPE   O2216288   4.379   4.035   6.895 -0.1293  0.1987  0.3628
  148SAPE   C2216289   4.440   3.827   6.991  0.2496  0.9419 -0.3845
  148SAPE   H2R16290   4.465   3.743   6.923 -1.0969 -1.4826  1.9379
  148SAPE   H2S16291   4.534   3.884   7.008  0.3106  0.9679 -0.8170
  148SAPE    C316292   3.985   3.901   6.918 -1.0920 -0.8763 -0.2355
  148SAPE    HX16293   3.961   3.801   6.875 -1.7316 -0.3715 -1.0936
  148SAPE    HY16294   3.913   3.976   6.877  2.3892  2.9076 -0.0237
  148SAPE   O3116295   3.982   3.905   7.061  0.9369  0.0983 -0.4212
  148SAPE   C3116296   3.978   3.790   7.125  0.1439 -0.2722 -0.0040
  148SAPE   O3216297   3.968   3.681   7.067  0.7114 -0.1144  0.0053
  148SAPE   C3216298   4.002   3.813   7.275 -0.3031  0.1820  0.2812
  148SAPE   H2X16299   3.949   3.901   7.317 -1.2626  0.8547 -2.1444
  148SAPE   H2Y16300   4.111   3.830   7.293 -0.8335  1.1145  3.1099
  148SAPE   C2316301   4.403   3.770   7.134  0.3055 -0.1418  0.5136
  148SAPE   H3R16302   4.333   3.843   7.180 -1.9985 -1.2520 -1.0430
  148SAPE   H3S16303   4.497   3.760   7.192  1.2782 -0.0414 -0.9907
  148SAPE   C2416304   4.327   3.635   7.133 -0.1354 -0.8963  0.4979
  148SAPE   H4R16305   4.231   3.658   7.080 -0.7651  1.2465  2.3918
  148SAPE   H4S16306   4.293   3.587   7.227 -0.4026 -0.0054  0.8709
  148SAPE   C2516307   4.393   3.532   7.053  1.2759 -0.2853  0.2503
  148SAPE   H5R16308   4.331   3.520   6.963  0.5305 -1.0152  0.8371
  148SAPE   C2616309   4.500   3.457   7.084  0.2090  0.4343  0.2271
  148SAPE   H6R16310   4.528   3.381   7.010 -2.1732  0.4506 -0.7902
  148SAPE   C2716311   4.574   3.460   7.215 -0.5090 -0.2683  0.0345
  148SAPE   H7R16312   4.529   3.545   7.270  0.4532  0.1837  0.1454
  148SAPE   H7S16313   4.681   3.480   7.194 -1.1736  0.2048 -3.5172
  148SAPE   C2816314   4.564   3.336   7.290  0.1806 -0.0603  0.0374
  148SAPE   H8R16315   4.619   3.252   7.246 -3.7161 -1.3172 -3.0008
  148SAPE   C2916316   4.494   3.313   7.404  0.2066  0.0386 -0.9254
  148SAPE   H9R16317   4.481   3.213   7.448  1.1538  0.4469  0.3262
  148SAPE  C21016318   4.417   3.421   7.480 -0.2420 -0.0898 -0.5606
  148SAPE  H10R16319   4.403   3.518   7.428  0.0654 -0.3292 -1.0987
  148SAPE  H10S16320   4.484   3.447   7.565 -0.0993 -1.4997 -0.2168
  148SAPE  C21116321   4.280   3.379   7.520 -0.2006  0.9831 -0.4341
  148SAPE  H11R16322   4.213   3.344   7.440 -0.5145  3.3060 -1.2722
  148SAPE  C21216323   4.230   3.359   7.643  0.3739  0.4261 -0.6908
  148SAPE  H12R16324   4.124   3.340   7.664  1.0154  0.5634  3.6180
  148SAPE  C21316325   4.309   3.389   7.776 -0.0237 -0.1654 -0.2629
  148SAPE  H13R16326   4.233   3.417   7.853 -1.4570  1.5269 -2.1844
  148SAPE  H13S16327   4.375   3.477   7.760 -1.0268  0.6279 -0.1459
  148SAPE  C21416328   4.393   3.271   7.814 -0.2400  0.7227  1.0101
  148SAPE  H14R16329   4.458   3.236   7.732 -1.6909  2.3211 -0.8995
  148SAPE  C21516330   4.381   3.200   7.935 -0.0488 -0.2664  0.1027
  148SAPE  H15R16331   4.455   3.121   7.949  0.5804  0.1199 -0.8942
  148SAPE  C21616332   4.291   3.227   8.061  0.4574 -0.1594  0.2347
  148SAPE  H16R16333   4.194   3.177   8.040 -1.6560  4.1372 -1.4402
  148SAPE  H16S16334   4.274   3.336   8.069  1.5407  0.1099 -0.7947
  148SAPE  C21716335   4.338   3.174   8.200 -0.1610  0.5734 -0.2057
  148SAPE  H17R16336   4.360   3.065   8.197 -0.8917  0.4145 -3.3763
  148SAPE  H17S16337   4.258   3.196   8.273  2.3996 -0.3119  3.0984
  148SAPE  C21816338   4.467   3.247   8.248  0.4579  0.2879  0.4017
  148SAPE  H18R16339   4.445   3.356   8.248  0.9703  0.4053 -0.6872
  148SAPE  H18S16340   4.553   3.237   8.178 -0.1592  1.9403 -0.6603
  148SAPE  C21916341   4.506   3.201   8.387 -0.1184  0.9689 -0.2637
  148SAPE  H19R16342   4.528   3.094   8.369  0.0778  0.4171  2.6824
  148SAPE  H19S16343   4.427   3.214   8.464  1.8166  0.9097  1.8559
  148SAPE  C22016344   4.640   3.258   8.439 -0.1250  0.5778  0.2461
  148SAPE  H20R16345   4.650   3.205   8.536 -0.6544 -0.9529 -0.5089
  148SAPE  H20S16346   4.630   3.368   8.455  0.2117  0.8747 -1.3677
  148SAPE  H20T16347   4.715   3.248   8.357 -0.6787 -1.1566 -0.0919
  148SAPE   C3316348   3.969   3.690   7.361  0.0985 -1.0172 -0.8479
  148SAPE   H3X16349   4.022   3.600   7.322  0.2108 -1.6914  0.7904
  148SAPE   H3Y16350   3.862   3.664   7.369  0.3377 -2.1993 -1.3477
  148SAPE   C3416351   4.038   3.697   7.500 -0.3878 -0.1425 -0.2775
  148SAPE   H4X16352   4.147   3.677   7.489  0.4814  3.8938 -0.7668
  148SAPE   H4Y16353   3.994   3.610   7.553  0.0695 -1.0851 -1.4170
  148SAPE   C3516354   4.004   3.831   7.580  0.6104 -0.1887  0.5068
  148SAPE   H5X16355   4.038   3.923   7.529 -1.0003  0.8296  1.1950
  148SAPE   H5Y16356   4.057   3.815   7.676  0.3934 -1.5551  0.4219
  148SAPE   C3616357   3.857   3.839   7.613 -0.1016 -0.0324  0.0555
  148SAPE   H6X16358   3.829   3.747   7.668 -1.4061  0.6294  0.5355
  148SAPE   H6Y16359   3.795   3.855   7.522  0.2711 -1.2730 -0.4455
  148SAPE   C3716360   3.828   3.950   7.713 -0.2725  0.0306 -0.1173
  148SAPE   H7X16361   3.724   3.991   7.706 -1.1861 -1.5487  2.7958
  148SAPE   H7Y16362   3.907   4.027   7.696  1.2704 -0.7251  3.0202
  148SAPE   C3816363   3.848   3.896   7.857  1.1070  0.0120 -0.4224
  148SAPE   H8X16364   3.954   3.867   7.879  0.7163 -1.1503  0.0176
  148SAPE   H8Y16365   3.783   3.809   7.880 -1.7156  2.3723  1.2699
  148SAPE   C3916366   3.798   4.003   7.953 -0.4318  0.6823  0.7215
  148SAPE   H9X16367   3.690   4.027   7.948 -1.1141 -0.6977  4.6902
  148SAPE   H9Y16368   3.863   4.093   7.940  0.4570  0.2500  1.9256
  148SAPE  C31016369   3.805   3.952   8.098  0.3626 -0.1797  0.5853
  148SAPE  H10X16370   3.900   3.902   8.125 -0.2663 -1.8292 -0.1413
  148SAPE  H10Y16371   3.717   3.884   8.102  0.5812 -0.4998  0.0051
  148SAPE  C31116372   3.764   4.066   8.201 -0.1581 -0.4281  0.1702
  148SAPE  H11X16373   3.699   4.133   8.141  1.6921  0.3262 -1.1309
  148SAPE  H11Y16374   3.854   4.132   8.209 -1.5341  1.4025  1.2007
  148SAPE  C31216375   3.684   4.029   8.323 -0.4277 -0.7013  0.5530
  148SAPE  H12X16376   3.743   3.971   8.397  1.3587  2.1420  1.5372
  148SAPE  H12Y16377   3.599   3.962   8.299  0.2783 -1.7695  0.9578
  148SAPE  C31316378   3.629   4.154   8.398 -0.8939  0.3302  0.2523
  148SAPE  H13X16379   3.532   4.188   8.354 -1.1333  0.4676  0.8813
  148SAPE  H13Y16380   3.695   4.240   8.373  1.0917 -0.8633  1.1944
  148SAPE  C31416381   3.602   4.147   8.548 -0.8738 -0.4633  0.2110
  148SAPE  H14X16382   3.562   4.242   8.587  1.6729  0.0324  1.8049
  148SAPE  H14Y16383   3.690   4.136   8.614 -1.9621 -2.2605  1.4560
  148SAPE  C31516384   3.511   4.030   8.598 -1.0241  0.2255 -0.6261
  148SAPE  H15X16385   3.542   3.929   8.563 -1.1584  0.2105 -0.7015
  148SAPE  H15Y16386   3.413   4.053   8.552 -0.8634  0.2386 -0.9627
  148SAPE  C31616387   3.493   4.031   8.753  0.1331 -0.2267  0.6847
  148SAPE  H16X16388   3.597   4.033   8.792  0.8283 -0.8431 -1.0684
  148SAPE  H16Y16389   3.444   3.933   8.770 -1.6846  0.3080 -1.0316
  148SAPE  C31716390   3.389   4.144   8.798  0.8825 -0.3596  0.3246
  148SAPE  H17X16391   3.300   4.136   8.733  0.2046 -4.4098  1.4857
  148SAPE  H17Y16392   3.441   4.243   8.793 -1.2875  0.7769 -1.1108
  148SAPE  C31816393   3.342   4.116   8.948  0.1788  0.3156 -0.4964
  148SAPE  H18X16394   3.278   4.195   8.993 -0.0197  0.3979 -0.9131
  148SAPE  H18Y16395   3.422   4.107   9.025 -1.2783  2.8626  1.4936
  148SAPE  H18Z16396   3.277   4.026   8.948 -0.9860  1.0961  1.7003
  149SAPE     N16397   3.728   3.519   6.676  0.0523 -0.1255  0.0274
  149SAPE   HN116398   3.634   3.527   6.721 -0.3706  0.1901 -0.8872
  149SAPE   HN216399   3.800   3.552   6.743 -0.7309  0.5570  0.5560
  149SAPE   HN316400   3.721   3.587   6.597 -3.2989 -1.0185 -0.6216
  149SAPE   C1216401   3.757   3.384   6.621 -0.3156 -0.3808  0.8963
  149SAPE  H12A16402   3.677   3.348   6.553  1.4636  0.9555 -2.1322
  149SAPE  H12B16403   3.762   3.315   6.708 -1.8238 -0.8992  0.5985
  149SAPE   C1116404   3.894   3.385   6.547 -0.1637 -0.2894 -1.1702
  149SAPE  H11A16405   3.973   3.437   6.605  1.3704  0.4932 -3.8112
  149SAPE  H11B16406   3.874   3.439   6.452  1.4788 -0.1486 -1.4613
  149SAPE     P16407   4.046   3.203   6.412 -0.0100 -0.1139 -0.1612
  149SAPE   O1316408   3.983   3.159   6.287  1.1285  0.5856 -0.1805
  149SAPE   O1416409   4.138   3.317   6.395  0.4478  0.6611 -0.1675
  149SAPE   O1216410   3.927   3.247   6.518 -0.1369 -0.2597  0.5492
  149SAPE   O1116411   4.117   3.089   6.483  0.2767  0.3483 -0.4769
  149SAPE    C116412   4.071   3.008   6.591  0.4295  0.0247 -0.4672
  149SAPE    HA16413   3.968   3.033   6.622 -0.2328 -1.7172 -1.1367
  149SAPE    HB16414   4.064   2.901   6.562  0.0568  0.2202 -1.1102
  149SAPE    C216415   4.167   3.014   6.712 -0.3215  0.3649  0.4372
  149SAPE    HS16416   4.135   2.923   6.768 -3.3002  1.6889  1.0861
  149SAPE   O2116417   4.151   3.137   6.785 -0.3359  0.7232 -0.2839
  149SAPE   C2116418   4.065   3.129   6.892 -0.5575 -0.0520  0.3356
  149SAPE   O2216419   4.004   3.030   6.921  0.1959 -0.2342 -0.1482
  149SAPE   C2216420   4.039   3.261   6.957  0.2469  0.4708 -0.0921
  149SAPE   H2R16421   4.111   3.337   6.917  1.1710 -1.1496 -1.6790
  149SAPE   H2S16422   3.937   3.292   6.926 -0.6292 -0.5363  1.6956
  149SAPE    C316423   4.319   3.008   6.672  0.3294 -0.0493  0.0043
  149SAPE    HX16424   4.331   3.101   6.612 -2.1385 -0.2189 -0.8871
  149SAPE    HY16425   4.337   2.914   6.614  0.9823 -0.8242  1.4133
  149SAPE   O3116426   4.395   2.993   6.796 -0.0051 -0.3508  0.0835
  149SAPE   C3116427   4.498   3.081   6.785  0.1841  0.5673  0.2926
  149SAPE   O3216428   4.528   3.138   6.689 -0.2583  0.0724  0.0160
  149SAPE   C3216429   4.577   3.089   6.920 -0.0789  0.0392  0.0293
  149SAPE   H2X16430   4.528   3.019   6.991  2.9575  0.4633  2.7526
  149SAPE   H2Y16431   4.571   3.190   6.966 -0.7053 -1.2663  3.0186
  149SAPE   C2316432   4.056   3.255   7.114  0.1665  0.1677 -0.1416
  149SAPE   H3R16433   4.153   3.309   7.122  1.0773 -1.4237  0.1992
  149SAPE   H3S16434   4.082   3.157   7.160 -1.0804  0.3372  0.9835
  149SAPE   C2416435   3.958   3.333   7.194 -0.2472 -0.4811  0.0691
  149SAPE   H4R16436   3.937   3.436   7.158 -0.0334 -1.1019 -1.9673
  149SAPE   H4S16437   4.006   3.334   7.294  0.0492  0.4475 -0.0681
  149SAPE   C2516438   3.832   3.254   7.190 -0.2720  0.0874 -0.6852
  149SAPE   H5R16439   3.796   3.218   7.092 -1.5327 -3.9350  1.0118
  149SAPE   C2616440   3.752   3.233   7.297 -0.3765 -0.1566  0.6951
  149SAPE   H6R16441   3.652   3.192   7.277  0.6192 -2.4086  0.0278
  149SAPE   C2716442   3.770   3.279   7.439  0.8324 -0.9025 -0.6128
  149SAPE   H7R16443   3.671   3.278   7.489  0.6613 -0.7532 -0.9516
  149SAPE   H7S16444   3.792   3.387   7.443 -0.2947 -0.6628 -0.5460
  149SAPE   C2816445   3.869   3.207   7.525  0.0238  0.0727 -0.7643
  149SAPE   H8R16446   3.931   3.139   7.464  1.3039  0.9254 -0.4649
  149SAPE   C2916447   3.899   3.233   7.654  0.0285 -0.5051 -0.4017
  149SAPE   H9R16448   3.968   3.179   7.720 -0.8379  1.1160  1.9852
  149SAPE  C21016449   3.829   3.328   7.745 -0.1256  0.3195  0.2660
  149SAPE  H10R16450   3.737   3.282   7.786 -0.3247  0.0879 -0.4328
  149SAPE  H10S16451   3.792   3.417   7.689 -0.8778 -0.8346 -1.1279
  149SAPE  C21116452   3.909   3.382   7.860 -0.0114 -0.1038  0.0843
  149SAPE  H11R16453   4.017   3.360   7.867 -0.5058 -2.6561  0.7805
  149SAPE  C21216454   3.860   3.459   7.960 -0.2842 -0.1477 -0.2066
  149SAPE  H12R16455   3.923   3.482   8.047  0.1659  1.1900 -0.8696
  149SAPE  C21316456   3.719   3.502   7.969  0.9051 -0.6035  0.4807
  149SAPE  H13R16457   3.666   3.503   7.872 -0.1903  0.8950  1.0721
  149SAPE  H13S16458   3.727   3.608   8.001  1.7950 -0.9536  1.5040
  149SAPE  C21416459   3.631   3.427   8.069 -0.4509  0.7038 -0.4219
  149SAPE  H14R16460   3.588   3.332   8.034 -1.7310 -0.3930  3.5602
  149SAPE  C21516461   3.626   3.436   8.203 -0.2789 -0.0442  0.1223
  149SAPE  H15R16462   3.566   3.361   8.257 -1.0015  0.3711 -0.0964
  149SAPE  C21616463   3.686   3.545   8.292 -0.6284  1.1838  0.0803
  149SAPE  H16R16464   3.754   3.609   8.232  2.7856 -2.0005  0.1654
  149SAPE  H16S16465   3.749   3.498   8.371 -2.4322  3.0255  2.7980
  149SAPE  C21716466   3.579   3.617   8.371  0.3066  0.9100 -0.1359
  149SAPE  H17R16467   3.505   3.659   8.299  0.4197  0.2817 -0.6209
  149SAPE  H17S16468   3.631   3.696   8.429 -1.0473 -0.0147  2.4863
  149SAPE  C21816469   3.494   3.530   8.471 -0.0089 -0.1432 -0.5987
  149SAPE  H18R16470   3.554   3.449   8.517 -0.0594 -0.3974 -0.9781
  149SAPE  H18S16471   3.408   3.480   8.422 -0.6072  0.6958 -0.4298
  149SAPE  C21916472   3.433   3.618   8.578 -0.1953 -0.2980 -0.4292
  149SAPE  H19R16473   3.357   3.686   8.536 -0.2146  0.2265  0.4314
  149SAPE  H19S16474   3.512   3.677   8.630  2.7793 -3.4558 -1.0165
  149SAPE  C22016475   3.364   3.542   8.694  0.1136 -0.2155 -0.7028
  149SAPE  H20R16476   3.425   3.522   8.785 -0.0367 -1.5461 -0.8755
  149SAPE  H20S16477   3.348   3.437   8.662 -1.3582  0.1631 -1.2740
  149SAPE  H20T16478   3.263   3.576   8.723  0.0945 -0.3136 -0.6527
  149SAPE   C3316479   4.722   3.044   6.889 -0.0554  0.1351  0.4163
  149SAPE   H3X16480   4.771   3.110   6.815 -0.2756 -0.8002 -0.5919
  149SAPE   H3Y16481   4.716   2.938   6.856 -1.3761  0.0678  0.8158
  149SAPE   C3416482   4.814   3.050   7.013  0.1514  0.1160  0.0506
  149SAPE   H4X16483   4.806   3.147   7.067  2.1542  1.5773 -2.0556
  149SAPE   H4Y16484   4.917   3.052   6.972  0.2889 -0.1072  0.3812
  149SAPE   C3516485   4.808   2.922   7.108  0.1274 -0.4566 -0.3539
  149SAPE   H5X16486   4.829   2.832   7.045  0.9167  0.6165 -1.6829
  149SAPE   H5Y16487   4.706   2.917   7.152  0.9553 -0.3633  1.6702
  149SAPE   C3616488   4.887   2.921   7.238 -0.2964 -0.6082 -0.8337
  149SAPE   H6X16489   4.994   2.918   7.209  0.1829  1.4453  0.5792
  149SAPE   H6Y16490   4.855   2.827   7.289 -2.7328  0.4145 -0.3590
  149SAPE   C3716491   4.859   3.035   7.336 -0.2192 -0.3307  0.4614
  149SAPE   H7X16492   4.751   3.044   7.359 -0.5010  2.9983 -1.5193
  149SAPE   H7Y16493   4.882   3.126   7.277  1.6593 -1.8072 -1.2257
  149SAPE   C3816494   4.939   3.024   7.461 -0.3562 -0.5830  0.1280
  149SAPE   H8X16495   5.039   2.980   7.438 -1.4296 -3.3948  0.4349
  149SAPE   H8Y16496   4.896   2.935   7.513 -0.4349 -0.1988  0.7322
  149SAPE   C3916497   4.934   3.146   7.546  0.1586  0.4994 -0.1750
  149SAPE   H9X16498   4.832   3.191   7.543 -1.0473 -2.1228 -0.5547
  149SAPE   H9Y16499   5.010   3.215   7.502  3.1875  0.4841  4.3166
  149SAPE  C31016500   4.971   3.103   7.690  0.3216  0.8988  0.3893
  149SAPE  H10X16501   4.989   3.198   7.746  0.8751  0.4943  0.9028
  149SAPE  H10Y16502   5.060   3.039   7.701  0.4457  0.8196 -1.0269
  149SAPE  C31116503   4.852   3.039   7.759 -0.1754  1.0620 -0.6797
  149SAPE  H11X16504   4.848   2.932   7.729  1.9611  0.8739 -0.4277
  149SAPE  H11Y16505   4.766   3.105   7.735 -0.5174  0.7727 -0.2472
  149SAPE  C31216506   4.874   3.038   7.912  1.3224 -0.1296  0.2101
  149SAPE  H12X16507   4.896   3.144   7.936  1.1068 -0.3657  1.5096
  149SAPE  H12Y16508   4.959   2.977   7.948  1.2183  0.1004  0.8532
  149SAPE  C31316509   4.749   2.997   7.985 -0.0239  0.5087  0.7150
  149SAPE  H13X16510   4.734   2.889   7.966 -0.8510  0.4974  1.3436
  149SAPE  H13Y16511   4.657   3.047   7.949  0.5777  2.3898  1.6562
  149SAPE  C31416512   4.749   3.010   8.138 -0.4348  0.1324  0.7010
  149SAPE  H14X16513   4.644   3.000   8.172 -0.2771 -0.9058  0.9146
  149SAPE  H14Y16514   4.793   3.108   8.168 -0.5560  0.9052 -1.4641
  149SAPE  C31516515   4.839   2.911   8.203 -0.6617 -0.0806 -0.1440
  149SAPE  H15X16516   4.943   2.943   8.182 -0.1946  0.0091  2.0713
  149SAPE  H15Y16517   4.819   2.809   8.164 -0.9798 -0.4758  1.0154
  149SAPE  C31616518   4.825   2.911   8.358 -0.2727  0.3001  0.9509
  149SAPE  H16X16519   4.724   2.865   8.356 -0.5004  0.6784 -1.9615
  149SAPE  H16Y16520   4.815   3.019   8.383  0.2216  1.1539 -2.0192
  149SAPE  C31716521   4.945   2.839   8.419 -0.3601 -0.0370 -0.2753
  149SAPE  H17X16522   5.034   2.902   8.396  0.8192 -2.0089 -1.3887
  149SAPE  H17Y16523   4.961   2.735   8.384 -0.3260 -0.7768  1.7806
  149SAPE  C31816524   4.937   2.828   8.578 -0.2330 -0.2329  1.1808
  149SAPE  H18X16525   4.846   2.777   8.614 -0.2242 -0.2949  1.1154
  149SAPE  H18Y16526   4.954   2.926   8.628 -1.9589 -0.3368  2.0125
  149SAPE  H18Z16527   5.024   2.764   8.605  0.2509  0.3453  1.0091
  150SAPE     N16528   4.322   5.458   6.608 -0.5241  0.5145 -0.5571
  150SAPE   HN116529   4.237   5.498   6.653  0.2586 -0.5609  2.0311
  150SAPE   HN216530   4.318   5.355   6.622 -3.2449  0.8287  2.2150
  150SAPE   HN316531   4.403   5.504   6.654 -1.4924  1.0308  0.7009
  150SAPE   C1216532   4.322   5.494   6.460  0.8716  0.3837 -0.5458
  150SAPE  H12A16533   4.314   5.605   6.456 -0.3107  0.2934 -1.0305
  150SAPE  H12B16534   4.234   5.447   6.412  1.4896 -1.7936  0.3349
  150SAPE   C1116535   4.448   5.434   6.395  0.0847  0.6502 -0.0490
  150SAPE  H11A16536   4.543   5.452   6.450  0.9427  0.0500 -1.2994
  150SAPE  H11B16537   4.455   5.501   6.306 -2.2539 -0.0644 -0.8489
  150SAPE     P16538   4.530   5.189   6.353 -0.3132 -0.4260  0.0313
  150SAPE   O1316539   4.467   5.055   6.354 -0.3225 -0.4275 -0.3138
  150SAPE   O1416540   4.631   5.211   6.242  0.3620  0.3266  0.3886
  150SAPE   O1216541   4.419   5.299   6.349  0.1425  0.7617 -0.0663
  150SAPE   O1116542   4.604   5.216   6.488  0.4701  0.2676 -0.6895
  150SAPE    C116543   4.709   5.132   6.534 -1.2536  0.2654 -0.3405
  150SAPE    HA16544   4.675   5.029   6.559 -1.0739  0.2726 -0.0651
  150SAPE    HB16545   4.793   5.128   6.461  0.0816  0.5795  1.1328
  150SAPE    C216546   4.791   5.204   6.651 -0.5972 -0.2126  0.4179
  150SAPE    HS16547   4.846   5.121   6.700 -0.2418 -0.0050  0.3705
  150SAPE   O2116548   4.706   5.279   6.733 -0.8699  0.0595  0.2424
  150SAPE   C2116549   4.616   5.212   6.804  0.0419  0.0338  0.3316
  150SAPE   O2216550   4.607   5.092   6.816 -0.0953 -0.1877 -0.0847
  150SAPE   C2216551   4.536   5.313   6.884 -0.0734  0.2171  0.6575
  150SAPE   H2R16552   4.594   5.368   6.962  1.2025 -0.1461  0.0013
  150SAPE   H2S16553   4.507   5.395   6.815 -0.8157  1.9984  2.9380
  150SAPE    C316554   4.895   5.300   6.599  0.0039 -0.0566 -0.6449
  150SAPE    HX16555   4.844   5.397   6.582 -1.4142 -0.8164 -0.8785
  150SAPE    HY16556   4.938   5.263   6.503  1.8054 -3.0941  1.1588
  150SAPE   O3116557   4.996   5.319   6.702 -0.1660 -0.3798  0.0201
  150SAPE   C3116558   4.990   5.432   6.776 -0.2665 -0.2042  0.4265
  150SAPE   O3216559   4.901   5.518   6.766  0.2545 -0.7270  0.2693
  150SAPE   C3216560   5.110   5.439   6.876 -0.7641  0.9421  0.0612
  150SAPE   H2X16561   5.101   5.540   6.921 -1.1340 -0.1018  2.4580
  150SAPE   H2Y16562   5.208   5.420   6.826 -1.1248  1.4797 -0.8832
  150SAPE   C2316563   4.413   5.247   6.953  0.4082  0.1060  0.4544
  150SAPE   H3R16564   4.450   5.196   7.044  1.1481 -0.1643  0.0140
  150SAPE   H3S16565   4.368   5.164   6.895 -0.5482 -0.1729  1.5594
  150SAPE   C2416566   4.302   5.345   6.990 -0.8952  0.3577  0.3208
  150SAPE   H4R16567   4.228   5.291   7.053  1.3200 -1.7467  1.2668
  150SAPE   H4S16568   4.255   5.383   6.897 -3.0436 -0.5953  0.9362
  150SAPE   C2516569   4.356   5.463   7.070  0.6669  0.3406 -0.2067
  150SAPE   H5R16570   4.398   5.533   6.997  0.7887 -0.7771 -1.2416
  150SAPE   C2616571   4.368   5.483   7.200  0.5707  0.1374 -0.6321
  150SAPE   H6R16572   4.407   5.579   7.236  0.9803 -0.3648  0.3072
  150SAPE   C2716573   4.314   5.394   7.308  0.5282 -0.2185  0.1093
  150SAPE   H7R16574   4.394   5.354   7.374 -0.7038 -3.5463 -0.1844
  150SAPE   H7S16575   4.272   5.298   7.271  1.0858 -0.3560 -0.1829
  150SAPE   C2816576   4.223   5.471   7.392 -0.9631 -0.1515  0.3707
  150SAPE   H8R16577   4.159   5.542   7.337 -0.0018  0.4040 -0.0615
  150SAPE   C2916578   4.213   5.463   7.526 -0.4699  0.7719  0.6785
  150SAPE   H9R16579   4.132   5.526   7.564 -1.3541  0.9083 -1.3138
  150SAPE  C21016580   4.284   5.371   7.619  0.3638  0.1962  0.3672
  150SAPE  H10R16581   4.321   5.274   7.580  0.1857 -0.7968  2.5123
  150SAPE  H10S16582   4.206   5.345   7.695 -0.9006  1.2569 -0.5254
  150SAPE  C21116583   4.400   5.435   7.675 -1.3021  0.2835 -0.5727
  150SAPE  H11R16584   4.479   5.476   7.610  0.5022 -0.5629  0.9849
  150SAPE  C21216585   4.428   5.448   7.809 -0.0365 -0.2592  0.1842
  150SAPE  H12R16586   4.523   5.489   7.847  0.0156 -1.5908  1.5672
  150SAPE  C21316587   4.341   5.389   7.916  0.3409  0.1146  1.0110
  150SAPE  H13R16588   4.233   5.387   7.893  0.4655  0.9620  0.2684
  150SAPE  H13S16589   4.336   5.459   8.002  1.6840  1.5263  0.0120
  150SAPE  C21416590   4.374   5.252   7.962  0.4073 -1.1968 -0.4705
  150SAPE  H14R16591   4.432   5.186   7.895 -0.4585 -2.0546 -0.4003
  150SAPE  C21516592   4.330   5.205   8.082  0.2967  0.0936  0.3074
  150SAPE  H15R16593   4.354   5.101   8.109  0.1924  0.0219  0.1227
  150SAPE  C21616594   4.245   5.280   8.182  0.5664  0.1260 -0.1172
  150SAPE  H16R16595   4.186   5.359   8.131  0.9264  0.3104 -0.2518
  150SAPE  H16S16596   4.311   5.325   8.259 -0.3407  0.2994  0.5719
  150SAPE  C21716597   4.157   5.193   8.274  0.8936 -0.2148  0.5865
  150SAPE  H17R16598   4.094   5.122   8.217 -2.6495  1.8778  1.5950
  150SAPE  H17S16599   4.094   5.262   8.334  1.9597  1.1199  0.2080
  150SAPE  C21816600   4.235   5.104   8.363 -0.1271  0.0024 -0.4944
  150SAPE  H18R16601   4.304   5.155   8.432  0.2667 -1.8201  0.5186
  150SAPE  H18S16602   4.305   5.042   8.302 -1.2268  0.1896 -2.0260
  150SAPE  C21916603   4.139   5.008   8.436 -0.2370  0.1549  0.3362
  150SAPE  H19R16604   4.109   4.922   8.373  4.1150  0.2251 -2.2398
  150SAPE  H19S16605   4.053   5.074   8.461 -0.2099  0.7177 -0.9688
  150SAPE  C22016606   4.203   4.960   8.564 -0.3071  0.9482 -0.9852
  150SAPE  H20R16607   4.129   4.895   8.616  0.7544 -0.5051 -1.2423
  150SAPE  H20S16608   4.245   5.036   8.633 -2.9815  0.3533  1.4758
  150SAPE  H20T16609   4.287   4.894   8.534 -1.0966 -0.4330 -0.2951
  150SAPE   C3316610   5.091   5.348   7.004 -0.1829  0.6523  0.3706
  150SAPE   H3X16611   5.052   5.246   6.981  1.5551  0.6773 -3.4631
  150SAPE   H3Y16612   5.013   5.395   7.068 -0.2955 -0.2062  0.8744
  150SAPE   C3416613   5.214   5.346   7.095  0.0070  0.6773 -0.4662
  150SAPE   H4X16614   5.268   5.440   7.072 -1.5280  1.8632  0.5988
  150SAPE   H4Y16615   5.286   5.270   7.058  0.8181  1.4385 -0.4671
  150SAPE   C3516616   5.181   5.345   7.244 -0.0924  0.6260  0.0943
  150SAPE   H5X16617   5.106   5.422   7.273  2.7786  3.2055  1.2420
  150SAPE   H5Y16618   5.269   5.367   7.308 -0.1746  0.5308  0.2440
  150SAPE   C3616619   5.130   5.203   7.297 -0.3501  0.3085 -0.3196
  150SAPE   H6X16620   5.178   5.118   7.243 -1.6889 -0.1880 -0.7584
  150SAPE   H6Y16621   5.021   5.196   7.278 -0.4560  1.2647 -0.0738
  150SAPE   C3716622   5.159   5.177   7.445  0.2237 -0.7446 -0.9957
  150SAPE   H7X16623   5.125   5.268   7.498  0.9036 -0.0659 -1.6882
  150SAPE   H7Y16624   5.266   5.162   7.472  0.5532  1.3060 -0.9548
  150SAPE   C3816625   5.084   5.062   7.517 -1.4670 -0.4724  0.2478
  150SAPE   H8X16626   5.063   4.987   7.438 -0.8675  0.1205 -0.4984
  150SAPE   H8Y16627   4.988   5.106   7.549 -1.4126  0.6056 -0.9744
  150SAPE   C3916628   5.166   5.000   7.625 -0.7454 -0.8262  0.3029
  150SAPE   H9X16629   5.212   5.085   7.680 -1.9223  1.0657 -1.4692
  150SAPE   H9Y16630   5.243   4.936   7.576 -1.5498 -0.9055 -0.9034
  150SAPE  C31016631   5.085   4.906   7.718  0.5367 -0.4509  0.1127
  150SAPE  H10X16632   5.042   4.833   7.647  1.9628 -1.4557  0.2248
  150SAPE  H10Y16633   5.009   4.978   7.756  0.0506 -0.0494 -1.5454
  150SAPE  C31116634   5.161   4.833   7.832  0.8718 -0.3373 -0.0199
  150SAPE  H11X16635   5.217   4.911   7.888  1.0223 -1.9494  2.2003
  150SAPE  H11Y16636   5.239   4.776   7.779  0.1652 -1.7379  0.4008
  150SAPE  C31216637   5.084   4.739   7.922 -0.1605  0.2921  1.1305
  150SAPE  H12X16638   5.134   4.640   7.909 -0.0485  0.3112  1.4265
  150SAPE  H12Y16639   4.986   4.721   7.873  1.1141 -1.7241 -0.9449
  150SAPE  C31316640   5.088   4.763   8.077 -0.0229  0.7401  0.4976
  150SAPE  H13X16641   5.021   4.694   8.133 -1.3769  1.6115 -0.0114
  150SAPE  H13Y16642   5.047   4.863   8.098 -0.0554  0.6048  1.1005
  150SAPE  C31416643   5.228   4.739   8.141  1.1441 -0.5523  0.2365
  150SAPE  H14X16644   5.289   4.828   8.117 -0.2692  0.3154 -0.2803
  150SAPE  H14Y16645   5.269   4.647   8.094 -1.0377 -1.4785 -0.0075
  150SAPE  C31516646   5.227   4.722   8.296  0.8133  0.8018  0.5415
  150SAPE  H15X16647   5.334   4.697   8.316  0.7618  0.8628  0.8989
  150SAPE  H15Y16648   5.160   4.637   8.321  0.7336  0.8265  0.4148
  150SAPE  C31616649   5.184   4.843   8.377 -0.5361  0.1883 -0.3710
  150SAPE  H16X16650   5.073   4.856   8.377 -0.5472  0.0956 -0.5923
  150SAPE  H16Y16651   5.229   4.937   8.340 -0.5182  0.0229 -0.7712
  150SAPE  C31716652   5.236   4.822   8.517 -0.1138 -0.2505 -0.2917
  150SAPE  H17X16653   5.345   4.840   8.510 -0.1123 -0.9087 -2.7848
  150SAPE  H17Y16654   5.206   4.717   8.536  0.0994 -1.0341 -3.6958
  150SAPE  C31816655   5.182   4.917   8.624  0.0063 -0.5244 -0.1627
  150SAPE  H18X16656   5.071   4.911   8.633 -0.3495  0.3347 -2.9163
  150SAPE  H18Y16657   5.203   5.018   8.583  1.7086 -0.8021 -0.0365
  150SAPE  H18Z16658   5.230   4.915   8.723  1.0925 -1.8034 -0.6855
  151SAPE     N16659   5.289   3.199   6.330  0.0453 -0.2963  0.2294
  151SAPE   HN116660   5.368   3.164   6.389  0.5667  0.4747  0.0011
  151SAPE   HN216661   5.321   3.276   6.268 -0.4321 -1.3324 -1.3589
  151SAPE   HN316662   5.215   3.242   6.389  0.2208  0.3222  0.0025
  151SAPE   C1216663   5.228   3.084   6.260  0.4155  0.5435  0.3320
  151SAPE  H12A16664   5.142   3.114   6.197 -0.4357 -1.8604  0.2552
  151SAPE  H12B16665   5.184   3.018   6.337  0.2409 -1.7687 -1.5955
  151SAPE   C1116666   5.327   3.006   6.176  0.3402  0.8087  0.1748
  151SAPE  H11A16667   5.373   3.066   6.095  0.4869  0.8601  0.2961
  151SAPE  H11B16668   5.256   2.931   6.136 -0.2027  2.1186 -1.4478
  151SAPE     P16669   5.510   2.824   6.228  0.3710  0.4534 -0.0416
  151SAPE   O1316670   5.438   2.699   6.262 -0.1738 -0.0289 -0.1095
  151SAPE   O1416671   5.571   2.830   6.095 -0.2396 -0.1154  0.2669
  151SAPE   O1216672   5.419   2.943   6.257 -0.5113  0.2623  0.1562
  151SAPE   O1116673   5.625   2.827   6.337  0.2392  0.1291 -0.1491
  151SAPE    C116674   5.638   2.932   6.433 -0.3000 -0.1007  0.7596
  151SAPE    HA16675   5.747   2.935   6.455 -0.0125  3.0028 -0.5823
  151SAPE    HB16676   5.627   3.036   6.395  0.3593  0.5255  2.1689
  151SAPE    C216677   5.564   2.897   6.564  0.6181  0.2305  0.2003
  151SAPE    HS16678   5.456   2.889   6.538  0.9149 -1.0137 -0.7460
  151SAPE   O2116679   5.581   2.998   6.659 -0.9039 -0.4207  0.3830
  151SAPE   C2116680   5.513   3.112   6.635  0.4367 -0.3321 -0.1239
  151SAPE   O2216681   5.435   3.134   6.544 -0.2586  0.3293  0.4232
  151SAPE   C2216682   5.545   3.216   6.742 -0.1028 -0.2309  0.4005
  151SAPE   H2R16683   5.576   3.167   6.837 -2.1487  1.4758  2.0415
  151SAPE   H2S16684   5.636   3.264   6.701  0.4046 -1.5044 -0.0296
  151SAPE    C316685   5.601   2.760   6.628  0.0676 -0.7479  0.4687
  151SAPE    HX16686   5.694   2.775   6.687  0.3407 -1.3773  0.2033
  151SAPE    HY16687   5.616   2.692   6.542  0.3853 -0.9506  0.6813
  151SAPE   O3116688   5.496   2.720   6.723 -0.1918  0.1721  0.1616
  151SAPE   C3116689   5.492   2.586   6.753  0.4356  0.1300 -1.2188
  151SAPE   O3216690   5.558   2.504   6.696  0.4704  0.4902 -0.4377
  151SAPE   C3216691   5.388   2.551   6.861  0.3670 -0.4695 -0.1556
  151SAPE   H2X16692   5.309   2.482   6.824 -1.2307 -0.2460  2.5699
  151SAPE   H2Y16693   5.336   2.645   6.889  0.7391 -0.7827  1.7038
  151SAPE   C2316694   5.442   3.327   6.772  0.6348  0.2699 -0.1590
  151SAPE   H3R16695   5.367   3.290   6.844  1.3115  0.3855  0.6238
  151SAPE   H3S16696   5.398   3.349   6.673  1.5596 -0.5726 -0.7825
  151SAPE   C2416697   5.516   3.450   6.833 -0.3628  0.0083  0.3558
  151SAPE   H4R16698   5.591   3.477   6.756 -2.0035 -0.9917 -1.6988
  151SAPE   H4S16699   5.581   3.418   6.918 -2.3558 -3.2199  0.8231
  151SAPE   C2516700   5.425   3.561   6.867 -0.0756 -0.5770 -0.9430
  151SAPE   H5R16701   5.337   3.577   6.803  0.4069 -1.6862 -1.9248
  151SAPE   C2616702   5.437   3.646   6.971  0.4714  0.5306 -0.7368
  151SAPE   H6R16703   5.360   3.724   6.985 -0.4107 -0.6610  1.5978
  151SAPE   C2716704   5.538   3.649   7.086 -0.9331 -0.7215  0.0233
  151SAPE   H7R16705   5.567   3.752   7.116  1.5805 -1.0124 -1.1797
  151SAPE   H7S16706   5.636   3.615   7.047 -1.0643 -0.5325 -0.4866
  151SAPE   C2816707   5.506   3.555   7.210  0.8471  0.5737  0.0585
  151SAPE   H8R16708   5.530   3.448   7.201  0.6489  0.5642 -0.4277
  151SAPE   C2916709   5.470   3.598   7.331 -0.5301  0.2594 -0.5438
  151SAPE   H9R16710   5.451   3.523   7.409  0.6575 -0.0767 -0.5537
  151SAPE  C21016711   5.452   3.742   7.376 -0.1178 -1.1130 -0.2987
  151SAPE  H10R16712   5.422   3.805   7.289  0.2876 -0.9975 -0.3543
  151SAPE  H10S16713   5.551   3.783   7.404 -0.2771  1.1609 -2.7553
  151SAPE  C21116714   5.354   3.757   7.488  0.0268  0.0370  0.3844
  151SAPE  H11R16715   5.286   3.671   7.490  0.9619 -0.7674 -1.1094
  151SAPE  C21216716   5.348   3.841   7.594 -1.0652  0.1368  0.2569
  151SAPE  H12R16717   5.269   3.833   7.671 -0.2433  1.2481  1.2625
  151SAPE  C21316718   5.443   3.954   7.624  0.3196  0.2301  0.1464
  151SAPE  H13R16719   5.410   4.038   7.558  0.0631  0.3810  0.4672
  151SAPE  H13S16720   5.547   3.917   7.611  0.2928  0.3829 -0.5359
  151SAPE  C21416721   5.432   4.017   7.762  0.2653  0.3492  0.4225
  151SAPE  H14R16722   5.398   4.122   7.764  2.5888  1.2520 -1.8279
  151SAPE  C21516723   5.464   3.964   7.880  0.1251  0.2466  0.0155
  151SAPE  H15R16724   5.438   4.022   7.969  0.3571 -0.3434  0.4741
  151SAPE  C21616725   5.529   3.827   7.905 -0.7194  0.2191 -0.2642
  151SAPE  H16R16726   5.611   3.846   7.978  1.7410  0.9437 -3.0289
  151SAPE  H16S16727   5.583   3.784   7.819  0.9122  1.1468  0.2577
  151SAPE  C21716728   5.437   3.716   7.967 -0.0787  0.3213 -0.2120
  151SAPE  H17R16729   5.358   3.777   8.016  0.2688  0.7597 -0.1974
  151SAPE  H17S16730   5.497   3.656   8.038  0.8138  1.3323 -0.0972
  151SAPE  C21816731   5.365   3.615   7.867 -0.0727  0.1006 -0.4929
  151SAPE  H18R16732   5.442   3.562   7.806 -1.9896  0.4733 -3.4374
  151SAPE  H18S16733   5.299   3.669   7.796  0.5797 -0.1638 -1.3258
  151SAPE  C21916734   5.276   3.519   7.940  0.3057  0.1586 -0.0397
  151SAPE  H19R16735   5.233   3.575   8.025  1.3181  2.1217 -0.7654
  151SAPE  H19S16736   5.334   3.432   7.978 -0.7307 -1.6254 -2.2556
  151SAPE  C22016737   5.161   3.452   7.865  0.0138 -0.0129 -0.1696
  151SAPE  H20R16738   5.101   3.535   7.822 -1.0125 -0.9734 -0.6415
  151SAPE  H20S16739   5.195   3.397   7.775  0.5364 -1.5407  0.9218
  151SAPE  H20T16740   5.097   3.387   7.929  0.3047  1.1555  1.3751
  151SAPE   C3316741   5.440   2.501   7.000  0.5267  0.4149 -0.2659
  151SAPE   H3X16742   5.501   2.409   6.993  1.1470  0.5350  2.5725
  151SAPE   H3Y16743   5.345   2.469   7.047  0.4531 -0.3330 -0.9166
  151SAPE   C3416744   5.511   2.602   7.085  0.7877 -0.1607 -0.6348
  151SAPE   H4X16745   5.453   2.694   7.111 -0.8839 -1.0717 -1.0120
  151SAPE   H4Y16746   5.603   2.632   7.030  2.3842 -2.4119  0.6570
  151SAPE   C3516747   5.548   2.556   7.222  0.1019  0.4363 -0.3444
  151SAPE   H5X16748   5.586   2.452   7.214 -2.5258 -0.8168  1.8061
  151SAPE   H5Y16749   5.449   2.534   7.267  0.1427  0.1223 -0.4047
  151SAPE   C3616750   5.623   2.664   7.299  0.2702 -0.0163  0.0706
  151SAPE   H6X16751   5.550   2.748   7.309  0.8493  0.5436 -0.3223
  151SAPE   H6Y16752   5.715   2.689   7.243 -0.7871 -1.2846 -2.3705
  151SAPE   C3716753   5.650   2.636   7.450 -0.6709 -0.1082 -0.0535
  151SAPE   H7X16754   5.727   2.561   7.476 -0.4942 -1.2380 -3.4366
  151SAPE   H7Y16755   5.560   2.594   7.500 -1.2358 -0.6589 -1.4872
  151SAPE   C3816756   5.680   2.768   7.517 -0.2161 -0.6925  0.3675
  151SAPE   H8X16757   5.630   2.859   7.478  1.3884  0.0561 -0.0618
  151SAPE   H8Y16758   5.783   2.799   7.487 -0.9838  2.1001  0.4046
  151SAPE   C3916759   5.681   2.753   7.664  0.2834 -0.1587 -0.5930
  151SAPE   H9X16760   5.581   2.722   7.701  1.4360  0.5412  3.5564
  151SAPE   H9Y16761   5.703   2.845   7.722 -0.6962 -1.3741  1.8455
  151SAPE  C31016762   5.764   2.630   7.720 -0.0245 -0.3553  0.1071
  151SAPE  H10X16763   5.859   2.612   7.665 -1.5713 -1.6870 -2.2984
  151SAPE  H10Y16764   5.710   2.535   7.701 -0.8115  0.2901 -0.9435
  151SAPE  C31116765   5.794   2.631   7.874 -0.6430 -0.0563  0.2344
  151SAPE  H11X16766   5.863   2.718   7.884  0.5398 -0.6244 -2.2754
  151SAPE  H11Y16767   5.844   2.535   7.896  0.2982  0.1348 -0.9492
  151SAPE  C31216768   5.667   2.656   7.961  0.3761  0.3331 -0.0495
  151SAPE  H12X16769   5.591   2.585   7.923 -0.2365  1.0596 -0.2080
  151SAPE  H12Y16770   5.634   2.761   7.942  0.9217  0.6108  0.4941
  151SAPE  C31316771   5.695   2.658   8.110  0.0040  0.6905  0.0726
  151SAPE  H13X16772   5.734   2.565   8.156  1.4876  0.4351 -1.5720
  151SAPE  H13Y16773   5.595   2.682   8.152 -0.2135 -0.7707  0.4143
  151SAPE  C31416774   5.789   2.766   8.159 -0.0560 -0.4100 -0.6862
  151SAPE  H14X16775   5.759   2.872   8.145 -0.2394 -0.1262  1.4869
  151SAPE  H14Y16776   5.888   2.762   8.110  1.4414  0.6919  2.0010
  151SAPE  C31516777   5.817   2.744   8.309 -0.5327  0.7544 -0.4781
  151SAPE  H15X16778   5.844   2.638   8.329 -3.3984 -0.5489 -2.7843
  151SAPE  H15Y16779   5.722   2.766   8.363 -0.0049  0.0378  0.7936
  151SAPE  C31616780   5.928   2.824   8.375  0.0032 -0.2806  0.3692
  151SAPE  H16X16781   5.895   2.924   8.411  1.7573  0.3745  0.2471
  151SAPE  H16Y16782   6.015   2.834   8.307  0.1490  1.3759  0.7444
  151SAPE  C31716783   5.987   2.762   8.501  0.0819 -0.4627 -0.2131
  151SAPE  H17X16784   6.091   2.802   8.504 -0.7207  1.7259 -0.1014
  151SAPE  H17Y16785   5.987   2.651   8.496  0.1770 -0.4837  0.2457
  151SAPE  C31816786   5.906   2.806   8.619  0.1939 -0.7176  0.0617
  151SAPE  H18X16787   5.955   2.795   8.719 -0.6687 -1.2910  0.4388
  151SAPE  H18Y16788   5.811   2.749   8.628 -1.5102  1.6640 -1.7983
  151SAPE  H18Z16789   5.862   2.907   8.617 -2.7042 -1.9024 -1.1290
  152SAPE     N16790   2.928   6.282   6.348  0.0379  0.1712 -0.0273
  152SAPE   HN116791   3.011   6.299   6.407 -0.7974  1.0792  0.9253
  152SAPE   HN216792   2.896   6.380   6.336  1.0373  0.5534  0.3539
  152SAPE   HN316793   2.867   6.233   6.417  0.8331 -2.9947 -1.4070
  152SAPE   C1216794   2.967   6.205   6.223 -0.2511 -0.3598  0.5512
  152SAPE  H12A16795   3.003   6.274   6.144 -0.2539 -0.8741  0.0913
  152SAPE  H12B16796   2.877   6.150   6.187 -1.7278  2.8561 -1.0738
  152SAPE   C1116797   3.084   6.102   6.236  0.2711 -0.8837 -0.7503
  152SAPE  H11A16798   3.162   6.147   6.301 -0.7073  0.4285 -0.4384
  152SAPE  H11B16799   3.120   6.076   6.134 -0.6964 -0.7792 -1.1328
  152SAPE     P16800   3.063   5.840   6.284 -0.6635  0.3849  0.0745
  152SAPE   O1316801   2.963   5.761   6.358 -0.1776 -0.5832  0.3409
  152SAPE   O1416802   3.068   5.809   6.142 -0.8693  0.0279  0.2440
  152SAPE   O1216803   3.033   5.991   6.311  0.3278 -0.1850 -0.2437
  152SAPE   O1116804   3.214   5.809   6.335  0.4245 -0.2185  0.2700
  152SAPE    C116805   3.330   5.891   6.324  0.2184  0.6866 -0.2093
  152SAPE    HA16806   3.415   5.840   6.274 -0.9024 -1.4856 -0.0287
  152SAPE    HB16807   3.316   5.977   6.255 -0.8022  1.9375  1.4859
  152SAPE    C216808   3.378   5.958   6.457 -0.4759  0.2365  0.2384
  152SAPE    HS16809   3.433   5.879   6.512  0.8657 -1.4852 -3.2261
  152SAPE   O2116810   3.278   6.020   6.536 -0.2152 -0.6107  0.0148
  152SAPE   C2116811   3.208   5.942   6.615  0.3536  0.0807 -0.2170
  152SAPE   O2216812   3.226   5.823   6.637  0.2418  0.3313  0.2763
  152SAPE   C2216813   3.101   6.026   6.682  0.1590 -0.4095 -0.0498
  152SAPE   H2R16814   3.122   6.022   6.791  3.1362 -2.3981 -0.5712
  152SAPE   H2S16815   3.116   6.133   6.658 -1.8835  0.1775  1.0429
  152SAPE    C316816   3.488   6.065   6.436 -0.1961 -0.4109  0.1678
  152SAPE    HX16817   3.436   6.149   6.385 -1.8440 -1.1279  0.5817
  152SAPE    HY16818   3.557   6.019   6.362  0.2613 -0.2704  0.5059
  152SAPE   O3116819   3.556   6.090   6.562  0.1635 -0.0384 -0.1627
  152SAPE   C3116820   3.504   6.192   6.633  0.8468  0.1662  0.7452
  152SAPE   O3216821   3.412   6.257   6.589 -0.0967  0.0959  0.3666
  152SAPE   C3216822   3.582   6.223   6.757  0.4819 -0.1766  0.1450
  152SAPE   H2X16823   3.652   6.307   6.736  1.1221 -0.4135  1.3045
  152SAPE   H2Y16824   3.639   6.131   6.780  0.3251 -0.1972  0.4505
  152SAPE   C2316825   2.956   5.976   6.650 -0.5743 -0.3090 -1.1345
  152SAPE   H3R16826   2.955   5.865   6.651 -0.5588 -0.3197  0.2217
  152SAPE   H3S16827   2.935   5.996   6.543 -1.1403 -1.1520 -1.1928
  152SAPE   C2416828   2.839   6.039   6.738 -0.0313  0.2642  0.3573
  152SAPE   H4R16829   2.749   5.981   6.711  0.0377 -0.3140  1.3120
  152SAPE   H4S16830   2.817   6.147   6.725  1.2568  0.2913 -2.0819
  152SAPE   C2516831   2.860   5.996   6.881  0.0206 -0.0161 -0.7084
  152SAPE   H5R16832   2.878   5.891   6.905 -2.2086 -0.5536 -1.1404
  152SAPE   C2616833   2.878   6.084   6.987 -0.5531  0.0678  0.2130
  152SAPE   H6R16834   2.881   6.042   7.088  1.3181 -0.6802 -0.1090
  152SAPE   C2716835   2.875   6.233   6.983 -0.1419  0.7891  0.3417
  152SAPE   H7R16836   2.815   6.277   7.066 -0.4699 -2.4284  1.9574
  152SAPE   H7S16837   2.815   6.267   6.895 -1.8718  0.2757  1.2824
  152SAPE   C2816838   3.000   6.308   6.963 -0.8908  0.1971 -0.1995
  152SAPE   H8R16839   3.004   6.371   6.873 -3.1930  2.7071  1.3191
  152SAPE   C2916840   3.105   6.312   7.051 -0.6017  0.1094 -0.4203
  152SAPE   H9R16841   3.197   6.370   7.038  0.4503 -1.6910 -1.4095
  152SAPE  C21016842   3.118   6.225   7.173  0.0752 -0.1120  0.3524
  152SAPE  H10R16843   3.219   6.179   7.177  0.1461  0.1052  1.3117
  152SAPE  H10S16844   3.047   6.140   7.176  0.6447 -0.5536  1.9274
  152SAPE  C21116845   3.077   6.307   7.300 -0.4340  0.1317 -0.0609
  152SAPE  H11R16846   2.992   6.375   7.286 -0.5031 -0.1599 -1.0913
  152SAPE  C21216847   3.153   6.316   7.413 -1.0216  0.7456 -0.8762
  152SAPE  H12R16848   3.111   6.383   7.490 -0.7462 -0.8808  0.7526
  152SAPE  C21316849   3.278   6.253   7.446 -0.1197  0.1186  0.7567
  152SAPE  H13R16850   3.357   6.322   7.481 -1.1416  0.4758  2.4832
  152SAPE  H13S16851   3.321   6.208   7.354  1.2413  1.5022  0.6856
  152SAPE  C21416852   3.267   6.136   7.543  0.1247 -0.1379 -0.7198
  152SAPE  H14R16853   3.208   6.051   7.506 -1.9368  0.6777  0.5041
  152SAPE  C21516854   3.307   6.146   7.672 -0.0129 -0.3148  0.1764
  152SAPE  H15R16855   3.311   6.060   7.740  0.4871  0.5328  1.2514
  152SAPE  C21616856   3.373   6.257   7.746  1.1402 -0.9622  0.0490
  152SAPE  H16R16857   3.426   6.329   7.680 -0.4314  2.1584  1.9566
  152SAPE  H16S16858   3.445   6.220   7.823 -0.4554 -2.3184  0.9496
  152SAPE  C21716859   3.273   6.340   7.836 -0.9453 -0.0952 -1.2728
  152SAPE  H17R16860   3.200   6.374   7.760 -3.3071  2.0844  1.7047
  152SAPE  H17S16861   3.316   6.435   7.877 -1.9343  1.1725 -3.0529
  152SAPE  C21816862   3.200   6.263   7.949  0.0122 -0.0984 -1.0036
  152SAPE  H18R16863   3.187   6.154   7.936 -0.0576 -0.4532  1.5579
  152SAPE  H18S16864   3.097   6.305   7.955  1.0213  2.3906  0.5536
  152SAPE  C21916865   3.269   6.269   8.085  0.3675 -0.3689 -0.6200
  152SAPE  H19R16866   3.294   6.377   8.096 -2.6067  0.4792 -1.2084
  152SAPE  H19S16867   3.362   6.211   8.070 -0.7697 -1.9955 -1.6774
  152SAPE  C22016868   3.195   6.208   8.202 -0.7868  1.5806 -0.1224
  152SAPE  H20R16869   3.107   6.267   8.233 -1.6955 -0.6420  1.8042
  152SAPE  H20S16870   3.265   6.193   8.287 -1.7825  0.2778  0.5052
  152SAPE  H20T16871   3.158   6.104   8.185 -0.9833  1.2389  2.1779
  152SAPE   C3316872   3.484   6.264   6.876 -0.0227  0.4526 -1.1811
  152SAPE   H3X16873   3.393   6.201   6.882 -0.9006  1.7636  0.1483
  152SAPE   H3Y16874   3.450   6.366   6.849 -1.2698  0.5354  0.4858
  152SAPE   C3416875   3.561   6.258   7.009  0.2336  0.5134  0.0851
  152SAPE   H4X16876   3.577   6.153   7.042  1.0151  0.6542  0.1684
  152SAPE   H4Y16877   3.506   6.303   7.095  2.4010 -0.1415  1.9246
  152SAPE   C3516878   3.703   6.320   7.006  0.2398  0.3160 -0.7950
  152SAPE   H5X16879   3.685   6.427   6.978  1.4573  0.7638  0.0711
  152SAPE   H5Y16880   3.763   6.271   6.927 -1.3138 -1.6189 -0.8438
  152SAPE   C3616881   3.782   6.301   7.138 -0.4313 -0.7452 -0.1415
  152SAPE   H6X16882   3.881   6.351   7.125 -0.0469 -1.5411 -0.3706
  152SAPE   H6Y16883   3.798   6.191   7.147  2.8026 -0.4098 -0.6534
  152SAPE   C3716884   3.712   6.343   7.269 -0.2576  0.2368  0.4126
  152SAPE   H7X16885   3.609   6.300   7.272 -0.8645  1.6743  2.1817
  152SAPE   H7Y16886   3.703   6.453   7.263  0.8034  0.3263  0.3756
  152SAPE   C3816887   3.791   6.307   7.398  0.0034  0.0558 -0.1195
  152SAPE   H8X16888   3.784   6.392   7.469  0.5986 -0.9482  1.1913
  152SAPE   H8Y16889   3.898   6.289   7.374  0.0834 -2.0930  1.5745
  152SAPE   C3916890   3.738   6.174   7.468  0.0530  0.3197  0.6866
  152SAPE   H9X16891   3.806   6.093   7.431 -1.1045 -3.4219  5.6540
  152SAPE   H9Y16892   3.630   6.160   7.447 -0.4392 -1.2383  3.6372
  152SAPE  C31016893   3.767   6.182   7.619  0.0806  0.5634 -0.3961
  152SAPE  H10X16894   3.683   6.243   7.660 -1.6317 -1.8045 -0.1614
  152SAPE  H10Y16895   3.866   6.226   7.642  1.1537 -2.3718  1.0978
  152SAPE  C31116896   3.764   6.043   7.688 -0.5845  0.0334  0.5385
  152SAPE  H11X16897   3.813   5.965   7.626  2.4644  0.7435  1.8648
  152SAPE  H11Y16898   3.658   6.008   7.692 -0.2965 -1.2885 -1.5765
  152SAPE  C31216899   3.825   6.045   7.829 -0.0216 -0.0294 -0.2492
  152SAPE  H12X16900   3.929   6.084   7.827 -0.6771  1.8721  0.3150
  152SAPE  H12Y16901   3.820   5.940   7.866  0.5134 -0.2909 -0.9144
  152SAPE  C31316902   3.742   6.135   7.920  0.1036 -0.4245 -0.0701
  152SAPE  H13X16903   3.635   6.108   7.917  0.4947 -2.3444  1.2477
  152SAPE  H13Y16904   3.753   6.243   7.899 -0.6076 -0.2057  0.6813
  152SAPE  C31416905   3.797   6.112   8.062 -0.7896  0.3114  0.2784
  152SAPE  H14X16906   3.900   6.154   8.070 -0.1679 -1.1712  0.4200
  152SAPE  H14Y16907   3.802   6.005   8.090  0.1534  0.1507 -0.4201
  152SAPE  C31516908   3.701   6.190   8.154  0.8117 -0.1499  0.0060
  152SAPE  H15X16909   3.601   6.143   8.165 -0.8064  2.3997 -2.4450
  152SAPE  H15Y16910   3.684   6.293   8.115  0.1306  0.3387  1.4880
  152SAPE  C31616911   3.754   6.201   8.296  0.5102 -0.0792 -0.5709
  152SAPE  H16X16912   3.791   6.101   8.329  2.0293  0.4670 -0.5206
  152SAPE  H16Y16913   3.668   6.220   8.363  0.3625 -0.1329 -0.7438
  152SAPE  C31716914   3.857   6.302   8.322  0.0274 -0.1444  1.0139
  152SAPE  H17X16915   3.820   6.407   8.312 -0.9751 -0.7245 -3.6989
  152SAPE  H17Y16916   3.939   6.286   8.248 -0.4978  1.2929  0.0774
  152SAPE  C31816917   3.908   6.288   8.466  0.8366  0.2175  0.1573
  152SAPE  H18X16918   3.999   6.351   8.476  0.5436  0.4464  1.8106
  152SAPE  H18Y16919   3.936   6.183   8.487  0.0599  0.1813  1.1525
  152SAPE  H18Z16920   3.829   6.327   8.535 -0.8729 -3.5279  0.5698
  153SAPE     N16921   0.723   5.279   6.219 -0.5235  0.2030 -0.2532
  153SAPE   HN116922   0.750   5.241   6.126 -0.0510  1.9659 -0.8679
  153SAPE   HN216923   0.816   5.281   6.266 -0.6663 -1.3087  0.1365
  153SAPE   HN316924   0.666   5.203   6.262  1.3045 -2.4817 -2.2002
  153SAPE   C1216925   0.679   5.414   6.237 -0.1807  0.4254  0.4510
  153SAPE  H12A16926   0.579   5.425   6.190 -0.0442 -0.0756  0.0322
  153SAPE  H12B16927   0.753   5.483   6.190  0.8094 -1.5794 -1.0677
  153SAPE   C1116928   0.667   5.439   6.388  0.2608 -1.2118 -0.2985
  153SAPE  H11A16929   0.630   5.541   6.411  0.1491 -0.9649 -1.4800
  153SAPE  H11B16930   0.770   5.432   6.431 -0.5553 -0.9827  1.8084
  153SAPE     P16931   0.429   5.363   6.476 -0.1673 -0.1457 -0.3818
  153SAPE   O1316932   0.386   5.477   6.392 -0.6746 -0.1885 -0.1046
  153SAPE   O1416933   0.360   5.237   6.438  0.3043  0.3363 -0.0170
  153SAPE   O1216934   0.582   5.342   6.459 -0.9185  0.3844 -0.4529
  153SAPE   O1116935   0.405   5.388   6.624 -0.1471  0.6417  0.0871
  153SAPE    C116936   0.456   5.296   6.725  0.5212  0.4509  0.1882
  153SAPE    HA16937   0.442   5.193   6.687  0.5372  0.3323  0.4973
  153SAPE    HB16938   0.566   5.312   6.726  0.7318 -0.8243 -0.3087
  153SAPE    C216939   0.378   5.327   6.861 -0.2280  0.5885  0.1166
  153SAPE    HS16940   0.445   5.313   6.948 -2.7391 -0.3674  1.9988
  153SAPE   O2116941   0.272   5.232   6.871 -0.3847  0.1111 -0.1930
  153SAPE   C2116942   0.316   5.105   6.901  0.3298 -0.2802 -0.6556
  153SAPE   O2216943   0.430   5.073   6.916  0.7404 -0.3330 -0.1324
  153SAPE   C2216944   0.196   5.023   6.949  0.4063 -0.6292 -0.3629
  153SAPE   H2R16945   0.105   5.052   6.893 -0.7677  1.5152  2.3637
  153SAPE   H2S16946   0.211   4.915   6.928 -2.4786 -1.8859  2.9057
  153SAPE    C316947   0.322   5.467   6.857  0.2481  0.1388  0.1762
  153SAPE    HX16948   0.244   5.483   6.779  0.2938 -1.7475 -0.2964
  153SAPE    HY16949   0.406   5.534   6.830 -1.1498  1.9865  0.1754
  153SAPE   O3116950   0.267   5.513   6.981 -0.2979  0.4273  0.0767
  153SAPE   C3116951   0.135   5.512   7.001  0.5374  0.0304  0.0514
  153SAPE   O3216952   0.050   5.494   6.917 -0.3017 -0.3766  0.3794
  153SAPE   C3216953   0.117   5.554   7.146 -0.0366 -0.2158 -0.1299
  153SAPE   H2X16954   0.009   5.564   7.173 -0.1848 -1.4607 -0.2067
  153SAPE   H2Y16955   0.158   5.657   7.153  2.2730 -0.8988 -2.3107
  153SAPE   C2316956   0.166   5.050   7.103  0.5704 -0.1505 -0.5543
  153SAPE   H3R16957   0.079   4.992   7.140  2.0890 -0.4771  2.9622
  153SAPE   H3S16958   0.130   5.152   7.126  0.9929 -0.5331  2.1780
  153SAPE   C2416959   0.255   5.026   7.226  0.2342  0.8566  0.8270
  153SAPE   H4R16960   0.307   4.930   7.210 -1.8339  0.1556 -2.5997
  153SAPE   H4S16961   0.201   5.018   7.323  1.1816 -0.2817  1.2813
  153SAPE   C2516962   0.359   5.127   7.235  0.0425 -0.2849 -0.3437
  153SAPE   H5R16963   0.417   5.159   7.147  1.1830  0.8558  0.7668
  153SAPE   C2616964   0.404   5.185   7.352  0.0630 -0.5116  0.9146
  153SAPE   H6R16965   0.491   5.250   7.334 -0.0647 -0.4587  0.4736
  153SAPE   C2716966   0.351   5.151   7.489 -0.3902  0.2123  0.6234
  153SAPE   H7R16967   0.390   5.050   7.513 -0.2179  0.6006  2.0363
  153SAPE   H7S16968   0.240   5.139   7.492 -0.2790 -0.6485  2.4366
  153SAPE   C2816969   0.401   5.253   7.594 -0.1606  0.3863  0.0602
  153SAPE   H8R16970   0.353   5.351   7.582 -0.0836  0.4580  0.3289
  153SAPE   C2916971   0.502   5.235   7.685  1.5017 -0.1068 -0.5790
  153SAPE   H9R16972   0.517   5.308   7.766 -0.2612  1.3088 -1.4381
  153SAPE  C21016973   0.581   5.117   7.726 -0.8168  0.1984  0.3461
  153SAPE  H10R16974   0.669   5.135   7.791 -0.4920 -2.7128  0.8510
  153SAPE  H10S16975   0.626   5.088   7.629 -0.8582  2.9211 -0.5583
  153SAPE  C21116976   0.506   4.997   7.792 -0.2943 -0.5588  0.0010
  153SAPE  H11R16977   0.496   4.905   7.732 -0.1497 -0.9844  0.6184
  153SAPE  C21216978   0.464   4.986   7.915  0.3094  0.6173  0.4369
  153SAPE  H12R16979   0.415   4.892   7.946 -2.5772  1.6055 -0.7507
  153SAPE  C21316980   0.476   5.095   8.019  0.0801  1.0034 -0.0358
  153SAPE  H13R16981   0.535   5.180   7.979  0.5937 -0.1166 -1.7463
  153SAPE  H13S16982   0.536   5.055   8.104  0.4304  0.5119 -0.5091
  153SAPE  C21416983   0.350   5.155   8.067  0.0143 -0.1938 -0.3122
  153SAPE  H14R16984   0.265   5.100   8.024 -0.3727  0.4696 -0.4112
  153SAPE  C21516985   0.325   5.247   8.162 -0.5461  0.0591 -0.2300
  153SAPE  H15R16986   0.220   5.276   8.179 -1.2977 -2.3538 -0.3826
  153SAPE  C21616987   0.428   5.340   8.231 -0.7095  0.3615  0.1909
  153SAPE  H16R16988   0.531   5.305   8.209 -1.0786 -1.2345  0.8810
  153SAPE  H16S16989   0.423   5.341   8.342  0.5674  0.5711  0.2683
  153SAPE  C21716990   0.414   5.489   8.191 -0.3881  0.4279 -0.0299
  153SAPE  H17R16991   0.313   5.526   8.217  0.2704  1.7967  0.6545
  153SAPE  H17S16992   0.427   5.483   8.081  1.7718  1.4609  0.1291
  153SAPE  C21816993   0.521   5.581   8.250  0.2927 -0.1588 -0.4852
  153SAPE  H18R16994   0.533   5.665   8.177  1.1986  0.2849  0.1594
  153SAPE  H18S16995   0.615   5.523   8.241  0.7514  0.5291 -0.1763
  153SAPE  C21916996   0.515   5.646   8.392 -0.4181  0.3756 -0.2481
  153SAPE  H19R16997   0.518   5.559   8.461 -1.6768 -0.3457 -1.0864
  153SAPE  H19S16998   0.419   5.697   8.414  0.3284  1.7795 -0.0673
  153SAPE  C22016999   0.641   5.722   8.419 -0.3208 -0.5237 -0.2211
  153SAPE  H20R17000   0.645   5.823   8.372  0.1825 -0.4069  0.0633
  153SAPE  H20S17001   0.732   5.664   8.393 -0.4860 -1.3763  1.0093
  153SAPE  H20T17002   0.645   5.750   8.526  1.4870 -0.1176 -0.3520
  153SAPE   C3317003   0.173   5.450   7.244  0.2063  0.1755  0.3578
  153SAPE   H3X17004   0.284   5.458   7.241  0.1982  0.5057 -2.5225
  153SAPE   H3Y17005   0.142   5.348   7.213 -0.8405  0.8496 -0.9168
  153SAPE   C3417006   0.135   5.480   7.390  0.3534  0.0433  0.9424
  153SAPE   H4X17007   0.154   5.387   7.446 -0.0369 -1.5430 -1.3980
  153SAPE   H4Y17008   0.028   5.509   7.386  0.1080 -0.9161  0.1892
  153SAPE   C3517009   0.202   5.606   7.448  0.4653  0.5389  0.6407
  153SAPE   H5X17010   0.185   5.691   7.378  3.2082 -0.6809 -1.7068
  153SAPE   H5Y17011   0.312   5.589   7.452  0.2158 -1.3095  0.5105
  153SAPE   C3617012   0.149   5.636   7.590 -0.1659  0.6459  0.8807
  153SAPE   H6X17013   0.116   5.542   7.640 -1.8072  0.5221 -0.3566
  153SAPE   H6Y17014   0.057   5.697   7.580 -0.2194  0.3142 -1.0994
  153SAPE   C3717015   0.247   5.710   7.679  0.1716 -0.8251  0.2871
  153SAPE   H7X17016   0.258   5.813   7.638 -0.9418 -1.4046 -1.5582
  153SAPE   H7Y17017   0.341   5.651   7.687 -0.4312 -1.9862 -0.9169
  153SAPE   C3817018   0.179   5.708   7.818 -1.4786 -0.3049  0.3625
  153SAPE   H8X17019   0.151   5.603   7.838 -2.0734 -0.5113 -1.3780
  153SAPE   H8Y17020   0.083   5.763   7.821 -0.0497  2.3390  2.1993
  153SAPE   C3917021   0.270   5.758   7.927  0.1049  0.9292 -0.0968
  153SAPE   H9X17022   0.373   5.717   7.930  0.5157  1.9796  1.7810
  153SAPE   H9Y17023   0.237   5.717   8.025  0.8408  2.8649  1.0120
  153SAPE  C31017024   0.280   5.907   7.938 -0.1889  0.2282  0.3614
  153SAPE  H10X17025   0.183   5.959   7.952 -0.2564  0.8791 -1.9950
  153SAPE  H10Y17026   0.314   5.948   7.841 -1.2023 -0.6917 -0.4143
  153SAPE  C31117027   0.387   5.953   8.041  0.6268  0.1654 -0.0380
  153SAPE  H11X17028   0.489   5.938   8.000  1.3179  0.1721  1.6381
  153SAPE  H11Y17029   0.381   5.896   8.135  1.0499 -1.2458 -0.8387
  153SAPE  C31217030   0.372   6.107   8.061 -0.7792 -0.4123  0.8290
  153SAPE  H12X17031   0.292   6.123   8.137 -1.7550  1.2151 -0.4595
  153SAPE  H12Y17032   0.340   6.149   7.963  1.6146 -0.0942  0.1263
  153SAPE  C31317033   0.499   6.176   8.114  0.7353 -0.8743  0.4612
  153SAPE  H13X17034   0.469   6.278   8.147  0.6221 -0.3501 -1.2039
  153SAPE  H13Y17035   0.573   6.177   8.032 -0.8943  0.5729 -1.0738
  153SAPE  C31417036   0.574   6.110   8.229 -0.1580 -0.0022  0.1101
  153SAPE  H14X17037   0.597   6.006   8.196 -2.0589  0.3927 -2.8935
  153SAPE  H14Y17038   0.508   6.096   8.317 -1.9621 -1.0582 -1.3410
  153SAPE  C31517039   0.697   6.182   8.267 -0.3842  0.1076 -0.4686
  153SAPE  H15X17040   0.685   6.281   8.317 -0.5083 -0.8806  1.5820
  153SAPE  H15Y17041   0.750   6.202   8.172 -0.3106 -0.9504 -0.6595
  153SAPE  C31617042   0.781   6.089   8.354 -0.2826  0.1117  0.5180
  153SAPE  H16X17043   0.771   5.983   8.323 -0.6028  0.4462 -0.6114
  153SAPE  H16Y17044   0.744   6.095   8.459  1.3655  0.6442  1.0919
  153SAPE  C31717045   0.924   6.131   8.356 -0.5109  0.1684  0.3810
  153SAPE  H17X17046   0.955   6.140   8.250  1.1781 -3.1653  0.4435
  153SAPE  H17Y17047   0.983   6.047   8.398 -1.4599 -0.3105  0.7780
  153SAPE  C31817048   0.947   6.261   8.431 -0.1847  1.4753  0.6363
  153SAPE  H18X17049   0.905   6.263   8.535 -0.0635 -2.2548  0.8715
  153SAPE  H18Y17050   0.892   6.344   8.382  0.4328  1.2597 -0.4382
  153SAPE  H18Z17051   1.056   6.278   8.436 -0.0660  0.4705  2.2086
  154SAPE     N17052   5.329   5.556   5.856  0.4317  0.6337 -0.4118
  154SAPE   HN117053   5.361   5.458   5.864 -0.6686  0.2985  0.1818
  154SAPE   HN217054   5.284   5.566   5.950  3.3163 -1.0087  1.2822
  154SAPE   HN317055   5.265   5.556   5.774  0.1035 -0.3341 -0.1656
  154SAPE   C1217056   5.445   5.653   5.851  0.1839 -0.5445 -0.9673
  154SAPE  H12A17057   5.413   5.753   5.815  0.8562  0.8735  2.0595
  154SAPE  H12B17058   5.525   5.621   5.781 -1.9786 -2.1258 -2.8422
  154SAPE   C1117059   5.497   5.681   5.998 -0.4798 -0.0941 -0.9366
  154SAPE  H11A17060   5.592   5.737   5.989 -0.0455 -0.8862 -1.3182
  154SAPE  H11B17061   5.526   5.589   6.052  1.0457  0.0481 -1.4855
  154SAPE     P17062   5.301   5.707   6.178 -0.6579 -0.0456 -0.2790
  154SAPE   O1317063   5.245   5.826   6.242  0.2397 -0.4276 -0.2506
  154SAPE   O1417064   5.220   5.600   6.112 -0.1074  0.4801  0.3629
  154SAPE   O1217065   5.404   5.762   6.071  0.2841  0.3351 -0.1398
  154SAPE   O1117066   5.401   5.636   6.277 -0.8082 -0.3760 -0.2401
  154SAPE    C117067   5.508   5.688   6.354 -0.1774 -0.9131 -0.5003
  154SAPE    HA17068   5.606   5.642   6.329 -0.7241 -1.5931 -1.4574
  154SAPE    HB17069   5.521   5.799   6.349 -1.8556 -0.6114  0.7892
  154SAPE    C217070   5.473   5.662   6.508  0.3700 -0.2640  0.7129
  154SAPE    HS17071   5.447   5.554   6.516  1.0981 -0.4108  1.1658
  154SAPE   O2117072   5.369   5.750   6.549  0.3476  0.0378 -0.3912
  154SAPE   C2117073   5.299   5.695   6.649  0.0726  0.7379  0.3393
  154SAPE   O2217074   5.293   5.574   6.670 -0.7919 -0.7658 -0.0365
  154SAPE   C2217075   5.236   5.797   6.741  0.4802  0.0532  0.2763
  154SAPE   H2R17076   5.233   5.887   6.677  2.8063 -0.8274 -1.2018
  154SAPE   H2S17077   5.132   5.776   6.774  0.1666  2.0949  0.6987
  154SAPE    C317078   5.608   5.675   6.595 -0.7252 -1.0553  0.2427
  154SAPE    HX17079   5.628   5.783   6.575 -0.4805 -1.1725 -0.1554
  154SAPE    HY17080   5.680   5.612   6.538  0.6037  1.3273 -0.9022
  154SAPE   O3117081   5.605   5.648   6.734  0.1548  0.0395 -0.5586
  154SAPE   C3117082   5.590   5.523   6.775 -0.2912 -0.2102  0.1316
  154SAPE   O3217083   5.572   5.425   6.702  0.1021 -0.5270 -0.1247
  154SAPE   C3217084   5.575   5.523   6.926 -0.0779  0.9808 -0.3363
  154SAPE   H2X17085   5.476   5.569   6.947 -1.0183 -0.6300 -1.0493
  154SAPE   H2Y17086   5.651   5.585   6.978  0.1211  1.4641 -1.1787
  154SAPE   C2317087   5.317   5.836   6.864  0.2220  0.5121  0.0158
  154SAPE   H3R17088   5.409   5.880   6.819 -0.1326  1.9067  0.5963
  154SAPE   H3S17089   5.346   5.754   6.933 -0.4383  0.1337 -0.1514
  154SAPE   C2417090   5.243   5.936   6.946 -0.3031  0.0413  0.3705
  154SAPE   H4R17091   5.198   6.015   6.882 -1.3421 -0.4499  0.4745
  154SAPE   H4S17092   5.315   5.997   7.004 -0.2815  0.1221  0.2599
  154SAPE   C2517093   5.132   5.878   7.029  0.1131 -0.2977  0.4472
  154SAPE   H5R17094   5.032   5.902   6.989  0.1015  0.5205  0.9474
  154SAPE   C2617095   5.144   5.827   7.153 -0.5468  0.1458 -0.0451
  154SAPE   H6R17096   5.057   5.776   7.196 -0.9513 -0.1908 -1.2087
  154SAPE   C2717097   5.274   5.814   7.234 -0.4854  0.1514  0.2426
  154SAPE   H7R17098   5.260   5.884   7.319 -1.2835  1.6038 -1.0157
  154SAPE   H7S17099   5.363   5.859   7.185  0.3655  0.5155  2.0318
  154SAPE   C2817100   5.301   5.672   7.279  0.4111  0.1007  0.1579
  154SAPE   H8R17101   5.370   5.604   7.227  2.6302  3.1037 -1.1078
  154SAPE   C2917102   5.248   5.625   7.396  0.1566  0.3499 -0.1072
  154SAPE   H9R17103   5.293   5.531   7.432  2.9112  1.3102 -0.7803
  154SAPE  C21017104   5.149   5.697   7.495  0.6886 -0.8386  0.4322
  154SAPE  H10R17105   5.082   5.623   7.544 -0.3903 -0.3464 -0.2509
  154SAPE  H10S17106   5.081   5.762   7.436  0.5647 -1.3134  0.0418
  154SAPE  C21117107   5.211   5.778   7.604 -1.3108 -0.2577 -0.2297
  154SAPE  H11R17108   5.224   5.882   7.569  1.5969 -0.0255  1.2692
  154SAPE  C21217109   5.246   5.741   7.731  0.0685 -0.3402  0.5492
  154SAPE  H12R17110   5.295   5.817   7.794 -1.4502  2.6027 -1.5693
  154SAPE  C21317111   5.220   5.605   7.782  0.0595  0.2343  0.6007
  154SAPE  H13R17112   5.209   5.529   7.703 -0.5295  0.8403  0.0912
  154SAPE  H13S17113   5.118   5.597   7.827 -1.4066 -1.9229 -2.7611
  154SAPE  C21417114   5.329   5.570   7.878 -0.3451 -0.1536 -0.3226
  154SAPE  H14R17115   5.405   5.644   7.908 -0.3879 -0.6788  1.2059
  154SAPE  C21517116   5.340   5.445   7.932  0.4458  0.1196 -0.7694
  154SAPE  H15R17117   5.426   5.420   7.996  0.1274 -0.1415 -0.4447
  154SAPE  C21617118   5.263   5.320   7.897  0.3142 -0.3011 -0.3427
  154SAPE  H16R17119   5.212   5.329   7.798 -1.5131 -0.6836  0.5159
  154SAPE  H16S17120   5.177   5.310   7.966  0.3480  1.0574 -0.0637
  154SAPE  C21717121   5.356   5.199   7.901  0.3538 -0.4335 -0.3046
  154SAPE  H17R17122   5.435   5.201   7.822  1.6324  1.8223  0.9470
  154SAPE  H17S17123   5.303   5.107   7.868  0.4544 -0.3329 -0.7639
  154SAPE  C21817124   5.405   5.168   8.043  0.2255  0.3022  0.2798
  154SAPE  H18R17125   5.318   5.186   8.110  0.4205  0.8559  0.3859
  154SAPE  H18S17126   5.477   5.246   8.076  0.1224 -0.5473  2.7495
  154SAPE  C21917127   5.469   5.026   8.050 -0.6473  0.2593  0.1843
  154SAPE  H19R17128   5.565   5.033   7.994  0.5334 -1.4229  1.8978
  154SAPE  H19S17129   5.414   4.947   7.996 -0.0230  0.2219 -0.4106
  154SAPE  C22017130   5.507   4.991   8.196 -0.4714 -0.0823  0.5676
  154SAPE  H20R17131   5.584   5.057   8.240 -0.7975  0.1202  0.8378
  154SAPE  H20S17132   5.547   4.887   8.196 -1.5833 -0.6530 -3.0829
  154SAPE  H20T17133   5.420   5.003   8.265 -2.5063  1.3331 -2.0563
  154SAPE   C3317134   5.584   5.379   6.973 -0.2182 -0.9617  0.4995
  154SAPE   H3X17135   5.683   5.339   6.942  0.2738 -0.2518  1.1255
  154SAPE   H3Y17136   5.493   5.325   6.941 -1.6072 -0.4404  3.2080
  154SAPE   C3417137   5.584   5.386   7.129 -0.3010 -0.5813  0.2979
  154SAPE   H4X17138   5.502   5.441   7.181  0.4470  0.3346  0.5313
  154SAPE   H4Y17139   5.686   5.422   7.156  0.9404 -1.4698 -2.8148
  154SAPE   C3517140   5.582   5.237   7.179 -0.1696 -0.1151 -0.0920
  154SAPE   H5X17141   5.641   5.177   7.106 -0.4327 -0.7656  0.2199
  154SAPE   H5Y17142   5.477   5.200   7.172 -0.6948  0.8769  1.9389
  154SAPE   C3617143   5.645   5.228   7.321  0.3483 -0.4025  0.7772
  154SAPE   H6X17144   5.750   5.264   7.309  0.3492 -0.4787  0.5328
  154SAPE   H6Y17145   5.644   5.118   7.334  1.3744 -0.5064  0.1390
  154SAPE   C3717146   5.565   5.304   7.435  0.0911  0.3019  0.1887
  154SAPE   H7X17147   5.457   5.288   7.415 -0.2100  2.7770 -0.4337
  154SAPE   H7Y17148   5.582   5.411   7.411 -0.7792 -0.0664 -2.4837
  154SAPE   C3817149   5.608   5.268   7.578 -0.4399  0.6437  0.1896
  154SAPE   H8X17150   5.611   5.157   7.585  0.0079  0.6692  0.5111
  154SAPE   H8Y17151   5.527   5.307   7.644  0.1557 -1.0114  1.9761
  154SAPE   C3917152   5.749   5.318   7.619  0.7207  0.2734  0.2166
  154SAPE   H9X17153   5.755   5.426   7.594  0.6273 -0.6388 -4.7006
  154SAPE   H9Y17154   5.825   5.269   7.554 -2.0885 -0.4697 -2.7093
  154SAPE  C31017155   5.779   5.284   7.764  0.4359 -0.6815 -0.1508
  154SAPE  H10X17156   5.775   5.173   7.773  0.6486 -0.6433  0.5275
  154SAPE  H10Y17157   5.695   5.329   7.821  0.0066 -1.3781 -0.2232
  154SAPE  C31117158   5.921   5.345   7.808  0.0078  0.0365  0.3927
  154SAPE  H11X17159   5.900   5.454   7.800 -1.8422 -0.2873  0.5050
  154SAPE  H11Y17160   5.989   5.304   7.730  0.2392  0.1496  0.5339
  154SAPE  C31217161   5.968   5.310   7.949  0.3522  0.2114 -0.3534
  154SAPE  H12X17162   6.069   5.357   7.951 -0.5467  2.3016 -1.3161
  154SAPE  H12Y17163   5.980   5.201   7.967 -0.0168  0.2740  0.2713
  154SAPE  C31317164   5.878   5.371   8.062 -0.5029  0.2246  0.7222
  154SAPE  H13X17165   5.785   5.310   8.063 -1.6555  1.9240  1.6764
  154SAPE  H13Y17166   5.855   5.476   8.035  1.5469  0.7757  1.0107
  154SAPE  C31417167   5.957   5.372   8.201  0.0329 -0.0756  0.5388
  154SAPE  H14X17168   5.883   5.401   8.279  1.4725  1.3951  1.4314
  154SAPE  H14Y17169   6.030   5.456   8.193 -1.1041  0.8144 -1.2926
  154SAPE  C31517170   6.039   5.245   8.231 -0.1493  0.3268  0.3507
  154SAPE  H15X17171   6.116   5.233   8.152 -0.6559  0.9696 -0.2555
  154SAPE  H15Y17172   5.982   5.150   8.225 -0.7898  0.7250 -0.0157
  154SAPE  C31617173   6.117   5.250   8.361 -0.2586 -0.6260  0.0994
  154SAPE  H16X17174   6.166   5.349   8.370  1.3132 -1.3188 -0.5160
  154SAPE  H16Y17175   6.191   5.168   8.364  1.3376  0.6766 -1.4500
  154SAPE  C31717176   6.027   5.232   8.484  0.2486 -0.6719 -0.9959
  154SAPE  H17X17177   6.002   5.125   8.502 -1.7413 -0.1980 -0.8103
  154SAPE  H17Y17178   5.935   5.292   8.472 -0.3509 -1.6349 -1.3030
  154SAPE  C31817179   6.092   5.300   8.611  0.2316  0.7585 -0.1434
  154SAPE  H18X17180   6.189   5.255   8.642 -0.3638  0.2173  1.0055
  154SAPE  H18Y17181   6.024   5.293   8.699  1.8302 -0.8054  1.0424
  154SAPE  H18Z17182   6.120   5.401   8.576  1.3052 -0.1209 -1.9601
  155SAPE     N17183   4.524   6.141   6.253 -0.3233 -0.4241 -0.0310
  155SAPE   HN117184   4.543   6.137   6.151 -0.0869  6.2048 -0.6715
  155SAPE   HN217185   4.423   6.122   6.267 -0.7930  1.8739  0.1804
  155SAPE   HN317186   4.542   6.241   6.277  1.2331 -0.8747  0.7651
  155SAPE   C1217187   4.615   6.053   6.334  0.2637 -0.0326 -0.6673
  155SAPE  H12A17188   4.721   6.076   6.311  0.9416 -2.5701 -0.3903
  155SAPE  H12B17189   4.596   5.945   6.311 -0.1841 -0.2011  0.4252
  155SAPE   C1117190   4.587   6.078   6.479 -0.8124 -0.2759  0.8206
  155SAPE  H11A17191   4.603   6.183   6.513 -1.1055  0.3963 -1.0067
  155SAPE  H11B17192   4.659   6.014   6.533 -0.7604 -0.6159  0.3489
  155SAPE     P17193   4.399   5.916   6.559  0.2247  0.1317  0.0412
  155SAPE   O1317194   4.256   5.909   6.596  0.3177 -0.0151 -0.1395
  155SAPE   O1417195   4.441   5.810   6.464  0.3641 -0.3450 -0.3082
  155SAPE   O1217196   4.448   6.058   6.513  1.0941 -0.2333  0.3077
  155SAPE   O1117197   4.480   5.884   6.688 -0.5994 -0.5134 -0.1003
  155SAPE    C117198   4.442   5.967   6.807  0.3064  0.2980  0.4987
  155SAPE    HA17199   4.409   6.069   6.777 -0.8263  0.6604  2.7771
  155SAPE    HB17200   4.353   5.924   6.857  0.0312  2.7520  2.2967
  155SAPE    C217201   4.551   5.970   6.915  0.0157 -0.8513  0.5093
  155SAPE    HS17202   4.641   6.013   6.867  1.2129 -0.5193  2.9087
  155SAPE   O2117203   4.571   5.839   6.963  0.0413  0.3242  0.1249
  155SAPE   C2117204   4.700   5.810   6.964 -0.8007  0.8181  0.4427
  155SAPE   O2217205   4.796   5.874   6.935 -0.0539 -0.3552  0.1615
  155SAPE   C2217206   4.708   5.668   7.015  0.0456  0.2048  0.3852
  155SAPE   H2R17207   4.608   5.645   7.058 -1.4744  2.5747 -1.6013
  155SAPE   H2S17208   4.737   5.600   6.932  0.2695  0.7471  0.0148
  155SAPE    C317209   4.504   6.048   7.037 -0.0506  0.4356 -0.0437
  155SAPE    HX17210   4.429   5.987   7.091  1.0047 -1.2304 -0.4102
  155SAPE    HY17211   4.453   6.141   7.004 -1.0331  0.8646  2.4683
  155SAPE   O3117212   4.620   6.093   7.115  0.4587 -0.1634 -0.0105
  155SAPE   C3117213   4.642   6.038   7.231 -0.1760  0.4741  0.1313
  155SAPE   O3217214   4.581   5.937   7.278  0.4006 -0.2455  0.0405
  155SAPE   C3217215   4.767   6.101   7.287  0.1659 -0.2236  0.4015
  155SAPE   H2X17216   4.764   6.201   7.336  2.6055 -0.6403  1.5096
  155SAPE   H2Y17217   4.837   6.107   7.201 -0.4446 -0.1153 -0.0954
  155SAPE   C2317218   4.828   5.664   7.111  0.7685 -0.3553  0.6268
  155SAPE   H3R17219   4.849   5.758   7.167  0.3785  0.5174 -0.6459
  155SAPE   H3S17220   4.922   5.634   7.061 -0.1287 -4.1492  0.9341
  155SAPE   C2417221   4.813   5.546   7.211  0.4069 -0.6834  0.9724
  155SAPE   H4R17222   4.916   5.527   7.247  0.8547  1.1888  0.8169
  155SAPE   H4S17223   4.794   5.454   7.152  2.2176 -2.3716  2.8919
  155SAPE   C2517224   4.718   5.570   7.325 -1.2517  0.2151 -0.6584
  155SAPE   H5R17225   4.640   5.642   7.294 -1.9484 -0.6179 -0.8879
  155SAPE   C2617226   4.727   5.514   7.453 -0.1571 -0.4560  0.1929
  155SAPE   H6R17227   4.650   5.549   7.524 -0.2472  1.0390 -0.5901
  155SAPE   C2717228   4.825   5.415   7.507 -0.7238  0.5431  0.5387
  155SAPE   H7R17229   4.899   5.467   7.572  1.1957 -0.9405 -0.3309
  155SAPE   H7S17230   4.892   5.369   7.430 -1.9022  0.0842 -0.2429
  155SAPE   C2817231   4.755   5.307   7.581 -0.0996 -0.0656  0.6405
  155SAPE   H8R17232   4.685   5.255   7.514 -0.7709  1.5355  0.0402
  155SAPE   C2917233   4.770   5.274   7.709  0.3686  0.1581  0.2786
  155SAPE   H9R17234   4.716   5.186   7.749  2.1934 -1.0683  0.1833
  155SAPE  C21017235   4.869   5.335   7.808  0.1258 -0.3081 -0.5302
  155SAPE  H10R17236   4.928   5.420   7.770 -0.2389  0.4875  0.6195
  155SAPE  H10S17237   4.956   5.267   7.819 -0.1035 -0.5677 -0.2751
  155SAPE  C21117238   4.803   5.371   7.939 -0.0920 -0.3441 -0.0829
  155SAPE  H11R17239   4.747   5.466   7.939 -4.0714 -2.4611 -1.9589
  155SAPE  C21217240   4.788   5.302   8.052  0.2749  0.2332 -0.1301
  155SAPE  H12R17241   4.744   5.348   8.142  0.4003 -0.4637  0.2955
  155SAPE  C21317242   4.822   5.162   8.073  0.8273 -0.0380  0.2036
  155SAPE  H13R17243   4.846   5.114   7.976  0.3367  2.8636 -1.4722
  155SAPE  H13S17244   4.726   5.124   8.115  1.2522 -0.1751  1.0745
  155SAPE  C21417245   4.944   5.149   8.166 -0.0904 -0.6466  1.0716
  155SAPE  H14R17246   5.031   5.197   8.118  0.7734 -1.9715  1.2748
  155SAPE  C21517247   4.947   5.094   8.286 -0.3235  0.4320 -0.3981
  155SAPE  H15R17248   5.038   5.089   8.347 -0.6627 -3.2739  0.0277
  155SAPE  C21617249   4.845   5.022   8.371 -0.0490  0.3695 -0.5605
  155SAPE  H16R17250   4.893   4.980   8.462  0.9278  0.3290 -1.0790
  155SAPE  H16S17251   4.795   4.934   8.325 -0.6026  0.2080  0.3354
  155SAPE  C21717252   4.728   5.101   8.424 -0.5608  0.2233 -0.3620
  155SAPE  H17R17253   4.665   5.027   8.478  0.8961 -0.9237 -0.1904
  155SAPE  H17S17254   4.667   5.159   8.350 -0.1313  2.4697  0.9539
  155SAPE  C21817255   4.776   5.214   8.521 -0.1543  0.3682  0.1994
  155SAPE  H18R17256   4.843   5.280   8.462 -0.1782  0.9664  0.8253
  155SAPE  H18S17257   4.838   5.172   8.604 -1.8422 -1.0380  0.8083
  155SAPE  C21917258   4.660   5.301   8.583 -0.2846  0.1026 -0.3087
  155SAPE  H19R17259   4.586   5.319   8.503  0.1015 -0.6359 -0.8437
  155SAPE  H19S17260   4.693   5.403   8.613 -3.2269  1.0258  0.0748
  155SAPE  C22017261   4.584   5.236   8.698  0.0543 -0.5872  0.0748
  155SAPE  H20R17262   4.555   5.131   8.672 -1.3405  0.0174 -0.9401
  155SAPE  H20S17263   4.494   5.296   8.720  0.7263  0.0095  1.2837
  155SAPE  H20T17264   4.642   5.234   8.792  0.1408 -1.0918  0.0145
  155SAPE   C3317265   4.836   6.004   7.377 -0.0009  0.2913 -0.4199
  155SAPE   H3X17266   4.947   6.012   7.377  0.2379 -1.7202 -3.0626
  155SAPE   H3Y17267   4.811   5.904   7.336  2.4807  0.5722 -2.8590
  155SAPE   C3417268   4.790   6.017   7.520  0.5584 -0.5247 -0.4243
  155SAPE   H4X17269   4.681   6.036   7.513  0.7941  0.2887 -3.7973
  155SAPE   H4Y17270   4.837   6.106   7.566  0.3628 -0.9016  0.5268
  155SAPE   C3517271   4.829   5.892   7.604  0.7330 -0.7030  0.0059
  155SAPE   H5X17272   4.940   5.882   7.596  0.5251 -3.3681 -0.3169
  155SAPE   H5Y17273   4.784   5.797   7.567  0.2489  0.5403 -2.9058
  155SAPE   C3617274   4.787   5.913   7.748 -0.2806  0.4012 -0.1787
  155SAPE   H6X17275   4.677   5.909   7.764  0.1760  1.0322  4.5301
  155SAPE   H6Y17276   4.829   6.010   7.783 -2.3131  1.2181  0.1470
  155SAPE   C3717277   4.849   5.810   7.839  0.0864  0.1327  0.6372
  155SAPE   H7X17278   4.957   5.790   7.827  0.1000 -0.4748  1.7138
  155SAPE   H7Y17279   4.790   5.718   7.819 -1.0124  0.8668  0.3623
  155SAPE   C3817280   4.816   5.840   7.983 -0.1492 -0.1936 -0.6789
  155SAPE   H8X17281   4.709   5.830   8.008 -0.5166  0.0019 -2.0788
  155SAPE   H8Y17282   4.851   5.942   8.009 -2.4658  0.7192 -0.9080
  155SAPE   C3917283   4.900   5.741   8.065  0.3374  0.1064  0.0596
  155SAPE   H9X17284   5.000   5.733   8.018 -0.8628 -1.3280 -2.4966
  155SAPE   H9Y17285   4.865   5.636   8.051  0.6030 -0.1157  1.0415
  155SAPE  C31017286   4.897   5.775   8.215 -0.1695  0.2331 -0.3259
  155SAPE  H10X17287   4.792   5.788   8.248  0.3696  0.2142  1.5232
  155SAPE  H10Y17288   4.955   5.867   8.238  0.8614 -1.0460  2.6873
  155SAPE  C31117289   4.953   5.661   8.307 -0.9024  0.0723 -0.5176
  155SAPE  H11X17290   5.064   5.666   8.299 -0.4352  2.4436  3.7875
  155SAPE  H11Y17291   4.915   5.562   8.276  0.9509 -0.9101  0.2033
  155SAPE  C31217292   4.913   5.691   8.448 -0.2278 -0.2580 -0.3834
  155SAPE  H12X17293   4.807   5.716   8.468  0.5151  3.2876 -0.3102
  155SAPE  H12Y17294   4.968   5.781   8.482 -0.9362  0.1926 -0.4040
  155SAPE  C31317295   4.964   5.588   8.543 -0.7840  0.3611  0.1911
  155SAPE  H13X17296   5.061   5.547   8.508 -0.0861 -0.8663  3.2290
  155SAPE  H13Y17297   4.892   5.503   8.545 -3.7941  2.7312 -0.5586
  155SAPE  C31417298   4.995   5.632   8.687 -0.6524 -0.5021  0.8084
  155SAPE  H14X17299   4.899   5.663   8.732 -0.8426 -0.2843  0.2566
  155SAPE  H14Y17300   5.053   5.726   8.681  0.4186 -1.2065 -3.8629
  155SAPE  C31517301   5.062   5.529   8.774 -0.7013  0.5597 -0.1195
  155SAPE  H15X17302   5.164   5.516   8.730 -1.3355  1.5142 -1.9785
  155SAPE  H15Y17303   5.014   5.429   8.763  2.2625 -1.0568  0.4491
  155SAPE  C31617304   5.067   5.563   8.930  0.8430 -0.1774  0.0540
  155SAPE  H16X17305   4.973   5.590   8.983  1.1441 -2.7451  2.0750
  155SAPE  H16Y17306   5.146   5.638   8.952 -0.4857  1.6290 -1.0956
  155SAPE  C31717307   5.102   5.430   9.010 -1.0356  0.0088 -0.2532
  155SAPE  H17X17308   5.208   5.400   8.993 -1.1008 -0.2972 -0.1159
  155SAPE  H17Y17309   5.039   5.347   8.972  0.0279 -0.6652 -0.6109
  155SAPE  C31817310   5.076   5.452   9.155  0.3813 -0.3061 -0.2958
  155SAPE  H18X17311   5.125   5.543   9.195 -0.0369  0.1948 -0.9064
  155SAPE  H18Y17312   5.095   5.358   9.211  0.2494 -0.0277  0.2197
  155SAPE  H18Z17313   4.971   5.487   9.159  0.7171  0.8270 -0.8908
  156SAPE     N17314   3.268   0.050   6.414 -0.8122 -0.4964  0.9204
  156SAPE   HN117315   3.216   0.133   6.380 -0.7390 -0.6975  0.3041
  156SAPE   HN217316   3.359   0.090   6.443 -0.7793 -0.4760  0.7879
  156SAPE   HN317317   3.274  -0.023   6.340 -0.8468 -2.1497  2.4952
  156SAPE   C1217318   3.184  -0.005   6.535 -0.6994 -0.0461  0.2978
  156SAPE  H12A17319   3.116   0.077   6.568 -0.5234 -0.2013  1.0675
  156SAPE  H12B17320   3.252  -0.030   6.619  1.5974 -0.8979 -1.7132
  156SAPE   C1117321   3.093  -0.115   6.493  0.1472 -0.5100 -0.5480
  156SAPE  H11A17322   3.039  -0.141   6.586  2.3427 -0.0932  0.9057
  156SAPE  H11B17323   3.143  -0.210   6.462  0.3683 -1.5512  2.6506
  156SAPE     P17324   2.870  -0.137   6.364  0.2960 -0.2582  0.4533
  156SAPE   O1317325   2.780  -0.057   6.274 -0.0871 -0.3286 -0.5491
  156SAPE   O1417326   2.905  -0.274   6.318 -0.0878 -0.3813  0.2565
  156SAPE   O1217327   3.012  -0.062   6.386 -0.1902  0.2665  0.4129
  156SAPE   O1117328   2.805  -0.149   6.504 -0.3177  0.1504  0.3233
  156SAPE    C117329   2.731  -0.038   6.541 -0.3356  0.6696 -0.3776
  156SAPE    HA17330   2.796   0.049   6.568  2.7964 -0.8663 -2.3873
  156SAPE    HB17331   2.655   0.002   6.471 -1.8257 -0.7729  0.3555
  156SAPE    C217332   2.642  -0.090   6.660  0.2570  0.0790 -0.3675
  156SAPE    HS17333   2.575  -0.009   6.695 -0.4398 -1.2542  1.5720
  156SAPE   O2117334   2.730  -0.130   6.768  0.3819  0.2346  0.3972
  156SAPE   C2117335   2.789  -0.038   6.838  0.4599  1.0799  0.0577
  156SAPE   O2217336   2.764   0.082   6.830  0.3785 -0.2019  0.6189
  156SAPE   C2217337   2.904  -0.100   6.925 -0.0764  0.3543 -0.0118
  156SAPE   H2R17338   2.946  -0.179   6.860 -1.5730 -0.5063  0.0210
  156SAPE   H2S17339   2.978  -0.021   6.951 -0.9552  1.2070 -0.0574
  156SAPE    C317340   2.542  -0.203   6.622  0.5095  0.1737  0.4266
  156SAPE    HX17341   2.595  -0.288   6.573  2.4448  1.5099  0.0545
  156SAPE    HY17342   2.476  -0.173   6.538 -0.6910 -1.5745  0.7042
  156SAPE   O3117343   2.461  -0.245   6.728  0.5851  0.0342 -0.6183
  156SAPE   C3117344   2.482  -0.365   6.786 -0.1090 -0.2098  0.3415
  156SAPE   O3217345   2.562  -0.444   6.735 -0.1056 -0.5703 -0.3897
  156SAPE   C3217346   2.402  -0.388   6.919  0.5445 -0.4021  0.1002
  156SAPE   H2X17347   2.325  -0.467   6.907  0.3156  0.0860 -1.9436
  156SAPE   H2Y17348   2.350  -0.295   6.954 -1.0228 -1.3070  0.2857
  156SAPE   C2317349   2.865  -0.165   7.061  0.7627  0.0783  1.3508
  156SAPE   H3R17350   2.953  -0.224   7.094 -0.6006 -3.7298 -1.0891
  156SAPE   H3S17351   2.780  -0.235   7.044  0.0529  0.7481  2.0358
  156SAPE   C2417352   2.824  -0.061   7.161 -0.3923 -0.3291 -0.1325
  156SAPE   H4R17353   2.720  -0.028   7.137 -1.1745 -1.9814  0.7919
  156SAPE   H4S17354   2.880   0.035   7.167 -1.5077  0.2562  1.6204
  156SAPE   C2517355   2.828  -0.129   7.296 -0.1375 -0.3851 -0.4308
  156SAPE   H5R17356   2.738  -0.183   7.329  0.2045  0.8036  2.8554
  156SAPE   C2617357   2.925  -0.117   7.387 -0.7429  0.2500 -0.3865
  156SAPE   H6R17358   2.911  -0.166   7.484 -0.4506 -0.2083 -0.5743
  156SAPE   C2717359   3.054  -0.033   7.371  0.0925  0.9309  0.5282
  156SAPE   H7R17360   3.042   0.039   7.286  2.8772  0.2624 -0.5359
  156SAPE   H7S17361   3.143  -0.089   7.334 -2.1925 -1.8628 -1.1729
  156SAPE   C2817362   3.095   0.056   7.492 -0.7491 -0.2144  0.5294
  156SAPE   H8R17363   3.082   0.161   7.462 -1.8501 -0.8391 -1.3702
  156SAPE   C2917364   3.131   0.008   7.617  0.4312 -0.2952 -0.0466
  156SAPE   H9R17365   3.169   0.078   7.693  0.7404  1.4187 -1.6997
  156SAPE  C21017366   3.154  -0.129   7.665  0.1139  0.4909 -0.6858
  156SAPE  H10R17367   3.256  -0.134   7.709 -0.6634  3.0481  1.6947
  156SAPE  H10S17368   3.153  -0.191   7.572 -0.6561 -0.0740 -0.3187
  156SAPE  C21117369   3.038  -0.184   7.750  0.4579 -0.1802  0.0348
  156SAPE  H11R17370   2.983  -0.270   7.707 -0.3661  0.1378  0.4390
  156SAPE  C21217371   3.021  -0.156   7.879 -0.2965  0.0192 -0.7196
  156SAPE  H12R17372   2.931  -0.196   7.927  0.6677 -1.4365 -0.0481
  156SAPE  C21317373   3.100  -0.072   7.975 -0.7768 -0.7219  0.9230
  156SAPE  H13R17374   3.161  -0.004   7.911 -1.6156 -0.3971  0.4609
  156SAPE  H13S17375   3.178  -0.126   8.033  0.7325 -0.5807 -0.8950
  156SAPE  C21417376   3.014   0.014   8.067  0.9920  0.0411  0.3592
  156SAPE  H14R17377   2.906   0.017   8.043  0.8094  0.0533  1.1476
  156SAPE  C21517378   3.066   0.062   8.180 -0.5259 -0.5454  0.0477
  156SAPE  H15R17379   3.005   0.133   8.237  0.9635 -0.0026  1.0476
  156SAPE  C21617380   3.214   0.061   8.228  0.2983  0.1079 -0.2669
  156SAPE  H16R17381   3.274   0.127   8.162 -0.7318  0.6092 -0.7144
  156SAPE  H16S17382   3.239  -0.047   8.243  0.8640  0.2353 -0.2573
  156SAPE  C21717383   3.208   0.125   8.373 -0.5798  1.5420  0.3361
  156SAPE  H17R17384   3.309   0.108   8.417  0.3646  0.8756 -1.9601
  156SAPE  H17S17385   3.129   0.075   8.433  0.6933 -2.1870 -0.8200
  156SAPE  C21817386   3.198   0.277   8.375  1.0059  0.3156 -0.4114
  156SAPE  H18R17387   3.104   0.309   8.326  0.1763 -0.4809  0.6286
  156SAPE  H18S17388   3.285   0.325   8.324  1.2326  1.1634  0.7203
  156SAPE  C21917389   3.203   0.332   8.520 -0.2672  0.0403 -0.3328
  156SAPE  H19R17390   3.310   0.328   8.551  0.0385  2.6763 -0.7586
  156SAPE  H19S17391   3.134   0.269   8.580 -0.3975 -0.5802 -1.1281
  156SAPE  C22017392   3.168   0.481   8.547 -0.0921 -0.0008 -0.1209
  156SAPE  H20R17393   3.069   0.489   8.497 -0.3891 -0.4729  0.3828
  156SAPE  H20S17394   3.238   0.549   8.494  0.8903 -1.7224 -1.1181
  156SAPE  H20T17395   3.156   0.509   8.654  1.1261  1.2607 -0.2850
  156SAPE   C3317396   2.500  -0.440   7.029  0.0141  0.3175  1.0688
  156SAPE   H3X17397   2.586  -0.372   7.048  0.3007  0.0175  0.8631
  156SAPE   H3Y17398   2.544  -0.532   6.986 -1.1531 -0.0317  0.5808
  156SAPE   C3417399   2.427  -0.461   7.163  0.3823  0.1050 -0.2445
  156SAPE   H4X17400   2.354  -0.543   7.147  1.9628 -1.4141 -0.0487
  156SAPE   H4Y17401   2.383  -0.363   7.189  1.3408  0.4359  0.1724
  156SAPE   C3517402   2.508  -0.509   7.285 -0.0259  0.3558 -0.2020
  156SAPE   H5X17403   2.582  -0.585   7.253  0.7986  0.8855  0.3821
  156SAPE   H5Y17404   2.436  -0.555   7.356  0.4247  0.2956  0.2246
  156SAPE   C3617405   2.577  -0.394   7.365  0.5565  0.5183  0.2490
  156SAPE   H6X17406   2.498  -0.315   7.367  0.9580  0.9345  0.0402
  156SAPE   H6Y17407   2.672  -0.365   7.314  1.0814  1.5132  1.7360
  156SAPE   C3717408   2.608  -0.448   7.497 -0.8228 -0.5141  0.1255
  156SAPE   H7X17409   2.623  -0.558   7.498 -0.7625 -0.5059  0.1919
  156SAPE   H7Y17410   2.518  -0.433   7.560  0.4430  1.1444  1.6884
  156SAPE   C3817411   2.718  -0.373   7.575  0.2554  0.4332  0.0453
  156SAPE   H8X17412   2.726  -0.269   7.536 -0.2773  0.5045  0.1155
  156SAPE   H8Y17413   2.818  -0.415   7.555  0.7902  0.9939  1.4744
  156SAPE   C3917414   2.701  -0.376   7.721 -0.4302  0.4927  0.2791
  156SAPE   H9X17415   2.608  -0.329   7.760  0.7248  0.7440  2.9479
  156SAPE   H9Y17416   2.791  -0.338   7.773  1.2780 -2.1449 -0.5414
  156SAPE  C31017417   2.701  -0.523   7.771  0.4995  0.6602 -0.6225
  156SAPE  H10X17418   2.788  -0.562   7.713  1.4989  1.5839  0.2170
  156SAPE  H10Y17419   2.607  -0.571   7.736 -0.3333  0.5044  1.6621
  156SAPE  C31117420   2.732  -0.540   7.919 -0.3717  0.4947  0.3763
  156SAPE  H11X17421   2.836  -0.503   7.927  0.1273  0.0288 -2.8805
  156SAPE  H11Y17422   2.748  -0.648   7.941 -0.5509  0.1235 -1.2180
  156SAPE  C31217423   2.649  -0.453   8.020 -0.6011  0.4283 -0.3628
  156SAPE  H12X17424   2.543  -0.488   8.016  0.4990 -3.6109  1.2475
  156SAPE  H12Y17425   2.644  -0.350   7.979 -4.5604  0.1380 -1.0067
  156SAPE  C31317426   2.706  -0.471   8.159  0.0926 -0.1049  0.1721
  156SAPE  H13X17427   2.815  -0.461   8.174 -0.1836  0.6655  1.9380
  156SAPE  H13Y17428   2.694  -0.579   8.184 -1.3580  0.3473  1.6102
  156SAPE  C31417429   2.630  -0.387   8.255 -0.2264  0.1956 -0.4063
  156SAPE  H14X17430   2.526  -0.420   8.275 -0.4782  1.5908  0.6763
  156SAPE  H14Y17431   2.623  -0.281   8.225 -2.1404  0.0212 -0.6664
  156SAPE  C31517432   2.703  -0.381   8.396 -0.1655  0.7112  0.1222
  156SAPE  H15X17433   2.803  -0.337   8.377 -0.5726  1.1669 -1.0351
  156SAPE  H15Y17434   2.722  -0.481   8.442 -1.7746  0.1275 -0.4040
  156SAPE  C31617435   2.636  -0.304   8.509  0.7983 -0.0692 -0.1018
  156SAPE  H16X17436   2.711  -0.289   8.590  0.7700  0.2768 -0.1341
  156SAPE  H16Y17437   2.546  -0.357   8.547  1.1516  0.0028  0.8804
  156SAPE  C31717438   2.591  -0.157   8.460  0.6307  0.1300  0.5009
  156SAPE  H17X17439   2.499  -0.163   8.398  0.7318 -4.0311  0.4689
  156SAPE  H17Y17440   2.665  -0.108   8.393  0.9955 -1.3368 -0.2263
  156SAPE  C31817441   2.569  -0.064   8.580  0.4684 -0.5133  0.2873
  156SAPE  H18X17442   2.653  -0.053   8.653  1.4118  3.5385 -1.1427
  156SAPE  H18Y17443   2.468  -0.079   8.623 -0.7853  1.3666 -1.7809
  156SAPE  H18Z17444   2.561   0.040   8.542 -0.5320 -0.8870 -0.5471
  157SAPE     N17445   1.254   2.173   6.067 -0.4732  0.0031 -0.4617
  157SAPE   HN117446   1.204   2.264   6.063 -0.5670  0.0271  0.8632
  157SAPE   HN217447   1.352   2.195   6.096 -0.3977 -0.3966 -0.4139
  157SAPE   HN317448   1.264   2.126   5.975 -0.3286 -1.6942  0.3838
  157SAPE   C1217449   1.188   2.087   6.172 -0.1482  0.0165  0.3856
  157SAPE  H12A17450   1.256   2.002   6.193 -2.2945 -2.5520 -2.2014
  157SAPE  H12B17451   1.087   2.050   6.141 -1.0654  1.3262  1.6731
  157SAPE   C1117452   1.153   2.161   6.303  0.4329 -0.1434 -0.1067
  157SAPE  H11A17453   1.252   2.194   6.340 -0.2744  0.6030  1.2386
  157SAPE  H11B17454   1.107   2.093   6.378 -0.0184  0.3924  0.1119
  157SAPE     P17455   0.930   2.313   6.249 -0.0373 -0.1190 -0.1533
  157SAPE   O1317456   0.892   2.367   6.115  0.0602 -0.0893  0.7206
  157SAPE   O1417457   0.842   2.203   6.295  0.0554  0.3164  0.1468
  157SAPE   O1217458   1.079   2.273   6.254  0.3621  0.3003 -0.1126
  157SAPE   O1117459   0.920   2.430   6.356  0.3368 -0.1991 -0.0757
  157SAPE    C117460   1.031   2.450   6.447 -0.5022 -0.3087 -0.4489
  157SAPE    HA17461   1.128   2.446   6.393 -1.1182  0.5918 -1.6671
  157SAPE    HB17462   1.023   2.553   6.488 -1.7124 -1.2724  2.0218
  157SAPE    C217463   1.028   2.344   6.561 -0.0660  0.0614 -0.1823
  157SAPE    HS17464   1.041   2.242   6.519  2.0917 -0.2722  1.1327
  157SAPE   O2117465   0.904   2.364   6.637 -0.5324 -0.0590 -0.5038
  157SAPE   C2117466   0.852   2.262   6.683  0.6756  0.8148  0.7122
  157SAPE   O2217467   0.873   2.146   6.640  0.5486 -0.5500 -0.1700
  157SAPE   C2217468   0.752   2.289   6.793 -0.7151  0.1555  0.9062
  157SAPE   H2R17469   0.801   2.352   6.870 -2.5458  2.3397  0.4062
  157SAPE   H2S17470   0.664   2.340   6.748  0.1782  0.5167 -0.4699
  157SAPE    C317471   1.147   2.368   6.665 -0.4230 -0.6920  0.7515
  157SAPE    HX17472   1.115   2.458   6.720 -1.5408 -0.7803  0.2724
  157SAPE    HY17473   1.247   2.385   6.620  0.4533 -0.6465  2.6345
  157SAPE   O3117474   1.150   2.259   6.758 -0.6868  0.1286  0.2027
  157SAPE   C3117475   1.202   2.144   6.701  0.0079 -0.1592 -0.2737
  157SAPE   O3217476   1.282   2.152   6.608  0.8203 -0.1163 -0.8986
  157SAPE   C3217477   1.164   2.020   6.770 -0.0001  1.0405  0.0323
  157SAPE   H2X17478   1.240   1.950   6.730 -2.1682  0.0919 -2.7579
  157SAPE   H2Y17479   1.064   1.987   6.733 -0.9409  0.4055  2.8076
  157SAPE   C2317480   0.690   2.158   6.856 -0.0308  0.7980 -0.0147
  157SAPE   H3R17481   0.656   2.089   6.776 -2.8763 -0.2522  1.9765
  157SAPE   H3S17482   0.595   2.194   6.900  0.3462  2.1059 -0.2118
  157SAPE   C2417483   0.791   2.103   6.959 -0.4191  0.3483  0.8124
  157SAPE   H4R17484   0.849   2.193   6.986  0.1407  0.4838 -0.7543
  157SAPE   H4S17485   0.860   2.033   6.908 -1.3448  1.1621 -1.7112
  157SAPE   C2517486   0.719   2.032   7.074  0.1169 -0.6924  0.1492
  157SAPE   H5R17487   0.735   1.923   7.070  0.6998 -0.5886 -0.5108
  157SAPE   C2617488   0.649   2.094   7.178 -0.0549  0.4033 -0.0158
  157SAPE   H6R17489   0.614   2.028   7.258 -0.8882 -0.3495 -0.9734
  157SAPE   C2717490   0.632   2.244   7.202 -0.3383  0.7017 -0.5180
  157SAPE   H7R17491   0.529   2.255   7.241  0.1109  0.0460  0.8984
  157SAPE   H7S17492   0.637   2.308   7.111 -0.0311  0.6256 -0.5572
  157SAPE   C2817493   0.726   2.301   7.306 -0.7198  0.6210 -0.5912
  157SAPE   H8R17494   0.803   2.367   7.265  0.5149  0.2793  1.0821
  157SAPE   C2917495   0.726   2.271   7.436  0.5390  0.2336  0.2147
  157SAPE   H9R17496   0.801   2.323   7.497  0.8738 -1.1533  1.0324
  157SAPE  C21017497   0.620   2.190   7.513 -0.2770 -0.2018 -0.5497
  157SAPE  H10R17498   0.531   2.170   7.450 -0.5651  0.8349 -0.4917
  157SAPE  H10S17499   0.583   2.266   7.586 -1.5119  0.8098 -2.1735
  157SAPE  C21117500   0.674   2.056   7.563  0.3066 -0.6204  0.3352
  157SAPE  H11R17501   0.660   1.967   7.499 -0.4095  0.1333 -0.5981
  157SAPE  C21217502   0.737   2.043   7.677  0.1341  0.2279  0.2676
  157SAPE  H12R17503   0.755   1.943   7.719  0.0576  0.5883  1.1831
  157SAPE  C21317504   0.774   2.161   7.771  0.1399 -0.5185 -0.3767
  157SAPE  H13R17505   0.695   2.185   7.845  1.8057  0.1449  1.2843
  157SAPE  H13S17506   0.795   2.254   7.712  0.8014  0.2881  1.0779
  157SAPE  C21417507   0.898   2.118   7.842  0.4073  0.2602 -0.1611
  157SAPE  H14R17508   0.985   2.134   7.777 -2.1638  2.3644 -3.4114
  157SAPE  C21517509   0.910   2.059   7.963  0.2125 -0.0520  0.4433
  157SAPE  H15R17510   1.009   2.039   8.006  0.4775  1.6663  0.7138
  157SAPE  C21617511   0.797   2.025   8.058  0.0612  0.6515  0.4400
  157SAPE  H16R17512   0.703   2.042   8.002 -1.1294 -1.9778  1.4703
  157SAPE  H16S17513   0.785   2.094   8.145  1.2862 -1.3249  2.2633
  157SAPE  C21717514   0.817   1.878   8.088  0.4160  0.1328  0.8604
  157SAPE  H17R17515   0.915   1.866   8.140  0.7630 -1.2122 -0.0852
  157SAPE  H17S17516   0.819   1.812   7.999 -1.4654  0.6086  0.4271
  157SAPE  C21817517   0.710   1.819   8.176 -0.0816  0.5055  0.1359
  157SAPE  H18R17518   0.694   1.869   8.274  0.0958 -0.5721  0.7312
  157SAPE  H18S17519   0.754   1.722   8.207  3.4787  1.4610 -1.4169
  157SAPE  C21917520   0.567   1.798   8.105  1.0125 -0.2572  0.0211
  157SAPE  H19R17521   0.582   1.754   8.004 -0.2811 -1.4569  0.3278
  157SAPE  H19S17522   0.529   1.901   8.087  0.6658 -0.4080 -0.1131
  157SAPE  C22017523   0.461   1.709   8.177 -0.8290  0.5830 -0.0123
  157SAPE  H20R17524   0.362   1.714   8.128  0.5353  4.0983 -2.8237
  157SAPE  H20S17525   0.437   1.748   8.278  3.0746  1.4420  0.7734
  157SAPE  H20T17526   0.495   1.604   8.193 -1.6282  0.7504  3.8648
  157SAPE   C3317527   1.155   2.026   6.926  0.5367 -0.2492  0.1750
  157SAPE   H3X17528   1.094   2.107   6.970  0.7201  0.5304 -0.9644
  157SAPE   H3Y17529   1.258   2.041   6.967  0.2436  1.8803  0.2421
  157SAPE   C3417530   1.100   1.893   6.986 -0.3691  0.5915 -0.4321
  157SAPE   H4X17531   1.155   1.805   6.945  2.2922  2.0930 -0.2649
  157SAPE   H4Y17532   1.002   1.888   6.935 -0.3759  3.8840 -0.9450
  157SAPE   C3517533   1.076   1.882   7.145 -0.0535  0.1837 -0.0137
  157SAPE   H5X17534   0.996   1.955   7.165 -0.3550  0.3224 -1.6010
  157SAPE   H5Y17535   1.164   1.914   7.204 -0.0898 -0.2609  0.2826
  157SAPE   C3617536   1.017   1.747   7.189  0.1766  0.5596 -0.0995
  157SAPE   H6X17537   1.082   1.671   7.141  0.5524 -1.0504  2.7531
  157SAPE   H6Y17538   0.912   1.752   7.154  0.8459  0.2534 -2.2766
  157SAPE   C3717539   1.028   1.738   7.343  0.2044  0.6280 -0.4098
  157SAPE   H7X17540   0.961   1.818   7.381  0.2390  1.1953 -1.4995
  157SAPE   H7Y17541   1.129   1.758   7.383  0.0179 -1.8942  1.5226
  157SAPE   C3817542   0.968   1.606   7.399  0.1933 -0.1235 -0.1369
  157SAPE   H8X17543   1.031   1.518   7.375 -0.5352 -0.6859 -0.0506
  157SAPE   H8Y17544   0.860   1.590   7.378 -0.0722 -2.1622  2.3662
  157SAPE   C3917545   0.964   1.625   7.556 -0.3464  0.1258 -0.8096
  157SAPE   H9X17546   0.920   1.723   7.586 -0.0981 -0.1367  0.4961
  157SAPE   H9Y17547   1.068   1.630   7.596 -1.4708 -0.6046  2.5448
  157SAPE  C31017548   0.895   1.505   7.625 -0.4593  0.0402  0.5568
  157SAPE  H10X17549   0.932   1.413   7.576 -0.6482 -0.1372  0.7440
  157SAPE  H10Y17550   0.788   1.524   7.600 -0.3632  0.2223  0.2822
  157SAPE  C31117551   0.892   1.512   7.776 -0.4399 -0.6569  0.2632
  157SAPE  H11X17552   0.879   1.620   7.800  1.5150 -0.8650  2.7537
  157SAPE  H11Y17553   0.995   1.479   7.802  0.0051  0.4056 -0.0821
  157SAPE  C31217554   0.782   1.429   7.839 -0.1973 -0.2117  0.1221
  157SAPE  H12X17555   0.798   1.324   7.805  1.1601 -0.5659  1.7195
  157SAPE  H12Y17556   0.692   1.469   7.788  0.9604  2.4185 -0.0453
  157SAPE  C31317557   0.764   1.429   7.994  0.4738  0.1251  0.4794
  157SAPE  H13X17558   0.679   1.360   8.013 -0.4395  1.5147  1.5789
  157SAPE  H13Y17559   0.731   1.528   8.033  0.8520 -0.0726  1.3181
  157SAPE  C31417560   0.890   1.372   8.074 -0.1199 -0.3155  0.2682
  157SAPE  H14X17561   0.969   1.444   8.043  0.7986 -2.0770 -1.7763
  157SAPE  H14Y17562   0.902   1.265   8.047 -0.2462 -0.0319 -0.9601
  157SAPE  C31517563   0.883   1.378   8.231  0.5800 -0.4199  0.0847
  157SAPE  H15X17564   0.865   1.488   8.234  1.3690 -0.3001  2.4950
  157SAPE  H15Y17565   0.972   1.344   8.287  0.9248  2.0557  1.1731
  157SAPE  C31617566   0.753   1.319   8.282  0.0315 -0.4293  0.6383
  157SAPE  H16X17567   0.753   1.209   8.265 -0.3079 -0.4886  1.0170
  157SAPE  H16Y17568   0.668   1.367   8.229  0.3332 -0.7194 -0.1212
  157SAPE  C31717569   0.727   1.338   8.432  0.0850  0.4739 -0.5284
  157SAPE  H17X17570   0.727   1.448   8.448  0.4018  0.5031 -0.7170
  157SAPE  H17Y17571   0.815   1.309   8.493  1.2879 -0.1776 -2.4895
  157SAPE  C31817572   0.594   1.283   8.491  0.0664 -0.3668 -0.1950
  157SAPE  H18X17573   0.595   1.310   8.599  1.1024 -0.2353 -0.2273
  157SAPE  H18Y17574   0.603   1.173   8.477  1.1405 -0.1377 -1.5279
  157SAPE  H18Z17575   0.502   1.328   8.448  0.6933  2.1717  0.9264
  158SAPE     N17576   2.196   5.736   6.413  0.0605 -0.2320  0.1063
  158SAPE   HN117577   2.253   5.820   6.438 -1.7661  1.3662 -0.8039
  158SAPE   HN217578   2.097   5.760   6.436 -1.4452 -1.8973 -3.7742
  158SAPE   HN317579   2.217   5.654   6.473  0.1239  0.2838  0.7995
  158SAPE   C1217580   2.195   5.697   6.261 -0.8346 -0.3907 -0.4908
  158SAPE  H12A17581   2.128   5.609   6.250  0.6800 -1.9938  2.1657
  158SAPE  H12B17582   2.301   5.670   6.241 -0.4467 -1.6842  2.7270
  158SAPE   C1117583   2.158   5.805   6.166  0.5078 -0.2086  0.6383
  158SAPE  H11A17584   2.182   5.762   6.067  1.3299  0.3828  0.5720
  158SAPE  H11B17585   2.224   5.895   6.167 -0.1837  0.4206 -2.0921
  158SAPE     P17586   1.945   5.946   6.112 -0.1797 -0.1285  0.0360
  158SAPE   O1317587   2.020   5.979   5.991 -0.7180  0.5446  0.0696
  158SAPE   O1417588   1.814   5.888   6.080 -0.3313 -0.5288 -0.7025
  158SAPE   O1217589   2.027   5.837   6.188  0.9121  0.3856 -0.1813
  158SAPE   O1117590   1.925   6.069   6.212 -0.1887  0.5752 -0.2800
  158SAPE    C117591   1.997   6.087   6.327  0.0315 -0.0862 -0.8237
  158SAPE    HA17592   2.095   6.034   6.327  1.4671  2.3563  0.4397
  158SAPE    HB17593   2.028   6.193   6.333 -0.0491 -0.1040  0.1174
  158SAPE    C217594   1.908   6.044   6.440  0.4180  0.3069 -0.5674
  158SAPE    HS17595   1.876   5.939   6.427 -0.3584  0.5601 -0.7590
  158SAPE   O2117596   1.796   6.138   6.432 -0.1951 -0.3411  0.4972
  158SAPE   C2117597   1.669   6.094   6.431  0.7408 -0.0530  0.1046
  158SAPE   O2217598   1.632   5.977   6.435  0.0843  0.3847 -0.1440
  158SAPE   C2217599   1.575   6.211   6.419  0.4446  0.6194 -0.8152
  158SAPE   H2R17600   1.606   6.286   6.495 -4.1223  1.5346  0.4538
  158SAPE   H2S17601   1.593   6.259   6.321 -0.6902  2.9872  0.0702
  158SAPE    C317602   1.984   6.066   6.581  0.3113 -0.3945  0.6070
  158SAPE    HX17603   1.973   6.177   6.586 -0.0856 -0.3693 -0.4947
  158SAPE    HY17604   2.092   6.041   6.579  0.1485 -1.1923  1.6144
  158SAPE   O3117605   1.924   6.006   6.694  1.0543 -0.2996 -0.1686
  158SAPE   C3117606   1.936   5.871   6.708 -0.0433  0.5219 -0.1196
  158SAPE   O3217607   1.990   5.800   6.621  0.4004  0.1224  0.1618
  158SAPE   C3217608   1.878   5.826   6.842  0.3130  0.1934  0.1955
  158SAPE   H2X17609   1.925   5.732   6.878 -0.1454 -0.2522 -0.3473
  158SAPE   H2Y17610   1.771   5.802   6.824  0.6966 -0.8424 -0.8049
  158SAPE   C2317611   1.423   6.181   6.446  0.0781  0.3384  0.7768
  158SAPE   H3R17612   1.395   6.096   6.379  2.8699  0.6507 -0.9372
  158SAPE   H3S17613   1.361   6.267   6.413 -0.8194 -0.2623  0.8495
  158SAPE   C2417614   1.390   6.150   6.590  1.3173 -0.7278  0.4284
  158SAPE   H4R17615   1.446   6.061   6.627 -0.2547 -0.6771  3.2422
  158SAPE   H4S17616   1.283   6.120   6.588  1.5655 -1.6139 -0.2236
  158SAPE   C2517617   1.410   6.264   6.686  0.3592  0.1003  0.2753
  158SAPE   H5R17618   1.501   6.323   6.670  0.8827 -0.9832 -0.9123
  158SAPE   C2617619   1.333   6.287   6.792  0.0649  0.8512  0.0162
  158SAPE   H6R17620   1.394   6.352   6.857  2.2679 -2.0918  1.1123
  158SAPE   C2717621   1.216   6.214   6.857 -0.0328 -0.1253  0.4872
  158SAPE   H7R17622   1.134   6.200   6.783 -0.5099  2.7251  0.3801
  158SAPE   H7S17623   1.182   6.282   6.938 -1.2075  0.3927 -0.4137
  158SAPE   C2817624   1.249   6.080   6.916 -0.4179  0.0661 -0.1022
  158SAPE   H8R17625   1.349   6.039   6.893 -0.9314 -0.1767 -2.1414
  158SAPE   C2917626   1.181   6.022   7.011  0.1287  0.1802  0.3446
  158SAPE   H9R17627   1.202   5.914   7.020 -1.0284  0.0299  1.5541
  158SAPE  C21017628   1.054   6.060   7.085 -0.1778  0.0679 -0.5356
  158SAPE  H10R17629   1.005   6.141   7.027 -0.9589  0.1991  0.2755
  158SAPE  H10S17630   1.079   6.094   7.188  2.4014 -0.3483 -0.9550
  158SAPE  C21117631   0.954   5.949   7.097  0.3817  0.3156  0.5105
  158SAPE  H11R17632   0.868   5.946   7.029  0.3070 -1.1618  0.6419
  158SAPE  C21217633   0.960   5.859   7.200 -0.1497  0.2788 -0.0392
  158SAPE  H12R17634   0.884   5.779   7.206 -1.3168  1.4592  2.8743
  158SAPE  C21317635   1.068   5.859   7.304  0.7061 -0.0996  0.1810
  158SAPE  H13R17636   1.162   5.917   7.292  2.1509 -2.6705 -1.9243
  158SAPE  H13S17637   1.106   5.755   7.302  1.4118  0.1606  0.0633
  158SAPE  C21417638   1.015   5.895   7.439 -0.0195 -0.1748  0.7159
  158SAPE  H14R17639   0.918   5.946   7.449  0.7391  1.1940  1.3854
  158SAPE  C21517640   1.084   5.870   7.553  0.2097 -0.2678  0.6525
  158SAPE  H15R17641   1.057   5.920   7.647 -0.7112  0.0101  0.2580
  158SAPE  C21617642   1.213   5.798   7.562  0.2445 -1.0622  0.5778
  158SAPE  H16R17643   1.281   5.850   7.633  1.5743 -1.1451 -0.5857
  158SAPE  H16S17644   1.270   5.796   7.467 -0.1640 -0.3349  0.3081
  158SAPE  C21717645   1.203   5.655   7.606 -0.1070  0.1613 -0.9132
  158SAPE  H17R17646   1.135   5.600   7.538 -1.5361  1.2732 -0.4343
  158SAPE  H17S17647   1.165   5.654   7.710  0.8798  2.1717 -0.4665
  158SAPE  C21817648   1.338   5.576   7.612  0.3429  0.8544  0.6134
  158SAPE  H18R17649   1.323   5.478   7.663 -0.0112 -0.8970 -2.5696
  158SAPE  H18S17650   1.415   5.643   7.656  0.7450  1.1344 -0.4699
  158SAPE  C21917651   1.388   5.542   7.467 -0.1023  0.1643 -0.0271
  158SAPE  H19R17652   1.431   5.635   7.424 -0.1083 -0.7194 -2.0173
  158SAPE  H19S17653   1.294   5.521   7.412 -0.7558 -1.0784  1.4807
  158SAPE  C22017654   1.495   5.427   7.456 -0.1127  0.4492 -0.4866
  158SAPE  H20R17655   1.478   5.359   7.542  0.7523  0.5791 -0.2096
  158SAPE  H20S17656   1.604   5.442   7.472  0.8635 -3.0994 -2.6553
  158SAPE  H20T17657   1.478   5.378   7.358  1.4139 -1.9320  0.3472
  158SAPE   C3317658   1.874   5.945   6.950  0.9422  0.3549  0.5357
  158SAPE   H3X17659   1.793   6.020   6.935 -0.6550 -1.5091 -0.6874
  158SAPE   H3Y17660   1.966   6.005   6.938  0.3540  0.9122 -1.5401
  158SAPE   C3417661   1.874   5.898   7.097  0.0060  0.3344  0.0170
  158SAPE   H4X17662   1.931   5.974   7.155 -1.1763  2.1176 -1.0727
  158SAPE   H4Y17663   1.940   5.810   7.109  1.3417  1.1490 -1.0044
  158SAPE   C3517664   1.741   5.891   7.164  0.0479 -0.0168  0.0964
  158SAPE   H5X17665   1.678   5.817   7.109  0.7003 -0.6112  0.1290
  158SAPE   H5Y17666   1.690   5.989   7.163 -0.4323 -0.2648 -0.1381
  158SAPE   C3617667   1.743   5.841   7.305  0.4973  0.1660  0.7016
  158SAPE   H6X17668   1.793   5.742   7.312  2.1403  1.0198  1.3184
  158SAPE   H6Y17669   1.635   5.828   7.328  0.7110  1.3770  2.5677
  158SAPE   C3717670   1.815   5.934   7.402 -0.1258  0.5999 -0.7856
  158SAPE   H7X17671   1.925   5.938   7.391 -0.0345  0.0034 -0.1574
  158SAPE   H7Y17672   1.783   6.040   7.394 -0.5066  0.4610 -1.2046
  158SAPE   C3817673   1.790   5.906   7.551 -0.3601  0.1930  0.0003
  158SAPE   H8X17674   1.828   5.808   7.588 -0.5360  0.0222 -0.2721
  158SAPE   H8Y17675   1.680   5.898   7.568 -0.3501  0.8792  0.4448
  158SAPE   C3917676   1.833   6.021   7.649  0.4648  0.8628  0.5660
  158SAPE   H9X17677   1.750   6.096   7.647  0.8365  1.3638  2.4345
  158SAPE   H9Y17678   1.930   6.065   7.620 -0.2024  0.9910 -1.6721
  158SAPE  C31017679   1.835   5.970   7.789 -0.0678 -0.2181  0.2786
  158SAPE  H10X17680   1.925   5.904   7.792  1.0228  1.2637  3.1620
  158SAPE  H10Y17681   1.749   5.900   7.800 -0.2832  0.0688  0.4416
  158SAPE  C31117682   1.861   6.071   7.895 -0.0987 -0.5670 -0.0622
  158SAPE  H11X17683   1.785   6.152   7.893 -0.5807 -0.7473  3.6608
  158SAPE  H11Y17684   1.958   6.125   7.885 -0.6665  0.4013 -0.4221
  158SAPE  C31217685   1.869   6.019   8.040  0.2243  0.1216  0.3679
  158SAPE  H12X17686   1.951   5.945   8.055 -0.4665 -1.3270 -2.3928
  158SAPE  H12Y17687   1.776   5.959   8.041  0.4211 -0.2122 -0.4328
  158SAPE  C31317688   1.872   6.122   8.152  0.2888 -0.1763 -0.2711
  158SAPE  H13X17689   1.781   6.186   8.152  0.9196  0.7461  0.6481
  158SAPE  H13Y17690   1.953   6.195   8.131  1.0515 -1.5557 -2.6300
  158SAPE  C31417691   1.893   6.058   8.285 -0.0789  0.3195 -0.1029
  158SAPE  H14X17692   1.998   6.023   8.296  0.3937  1.4883 -0.7699
  158SAPE  H14Y17693   1.825   5.971   8.300 -0.9593  0.7089 -1.5952
  158SAPE  C31517694   1.869   6.167   8.390  0.7393  0.1227 -0.1060
  158SAPE  H15X17695   1.763   6.171   8.422  0.7381  1.5871 -0.2497
  158SAPE  H15Y17696   1.905   6.258   8.338  2.1128  0.4539  1.3551
  158SAPE  C31617697   1.958   6.134   8.511 -0.1386  0.0720  0.8824
  158SAPE  H16X17698   2.061   6.109   8.476  0.0247  1.8327 -0.0052
  158SAPE  H16Y17699   1.910   6.046   8.559 -0.9238 -0.5609 -0.9647
  158SAPE  C31717700   1.971   6.253   8.607  0.1239 -0.0048 -0.1484
  158SAPE  H17X17701   1.996   6.341   8.543 -1.2836  0.3166 -0.3114
  158SAPE  H17Y17702   2.048   6.238   8.685  0.3692 -0.6356 -0.5096
  158SAPE  C31817703   1.839   6.267   8.688 -0.3418  0.1702 -0.1712
  158SAPE  H18X17704   1.818   6.162   8.720  1.8819 -1.1576 -2.6596
  158SAPE  H18Y17705   1.764   6.304   8.615 -0.0173  1.8247  0.2924
  158SAPE  H18Z17706   1.847   6.338   8.773  0.7587 -0.0105 -0.1105
  159SAPE     N17707   1.302   0.875   5.997  0.2317 -1.1312  0.8948
  159SAPE   HN117708   1.370   0.937   5.949  2.0087 -2.2002  1.9021
  159SAPE   HN217709   1.217   0.929   6.021 -0.5243 -1.4361 -0.9388
  159SAPE   HN317710   1.357   0.850   6.082  0.6101 -0.2492  0.9128
  159SAPE   C1217711   1.269   0.746   5.919  0.4667  0.1614  0.4718
  159SAPE  H12A17712   1.247   0.770   5.813 -0.3656  2.4940  1.1195
  159SAPE  H12B17713   1.186   0.702   5.978 -1.5166  1.0082 -1.5420
  159SAPE   C1117714   1.371   0.628   5.935 -0.3552 -0.1593 -1.0515
  159SAPE  H11A17715   1.458   0.649   5.869  1.2726  1.3847  1.3844
  159SAPE  H11B17716   1.325   0.531   5.906  0.8656 -0.4531 -2.1009
  159SAPE     P17717   1.523   0.518   6.127  0.4499 -0.0971  0.1385
  159SAPE   O1317718   1.524   0.399   6.040 -0.8807  0.0877 -0.0231
  159SAPE   O1417719   1.648   0.591   6.145 -0.0277  0.5648  0.7071
  159SAPE   O1217720   1.408   0.623   6.076 -0.2776 -0.0431 -0.3917
  159SAPE   O1117721   1.468   0.472   6.269 -0.3318  0.0301  0.6720
  159SAPE    C117722   1.387   0.572   6.329  0.6236 -0.8587 -0.2995
  159SAPE    HA17723   1.433   0.673   6.331 -0.7736 -0.1955 -0.1021
  159SAPE    HB17724   1.291   0.595   6.279  1.2659  2.4023 -0.3069
  159SAPE    C217725   1.335   0.529   6.464  0.2213 -0.1199  0.2937
  159SAPE    HS17726   1.256   0.602   6.489 -0.4409 -0.0432 -1.8295
  159SAPE   O2117727   1.446   0.508   6.553 -0.0041 -0.4489 -0.4064
  159SAPE   C2117728   1.493   0.617   6.605  0.0969  0.0643  0.6946
  159SAPE   O2217729   1.449   0.730   6.589  0.7255  0.3415  0.6060
  159SAPE   C2217730   1.619   0.590   6.681 -0.9073  0.6015  0.5111
  159SAPE   H2R17731   1.627   0.481   6.704 -0.1830  0.6422  0.4996
  159SAPE   H2S17732   1.704   0.627   6.620 -0.3852 -0.8715  0.2875
  159SAPE    C317733   1.271   0.388   6.443 -0.2305 -0.5499 -0.6526
  159SAPE    HX17734   1.355   0.323   6.411  1.6649  1.5448 -0.2080
  159SAPE    HY17735   1.195   0.403   6.364 -0.4093  0.3907 -0.3142
  159SAPE   O3117736   1.230   0.343   6.576 -0.1419  0.4125 -0.6578
  159SAPE   C3117737   1.120   0.378   6.621 -0.4196 -0.3272 -0.0812
  159SAPE   O3217738   1.044   0.458   6.570  0.0323 -0.6671  0.1358
  159SAPE   C3217739   1.111   0.347   6.771  0.0311  0.0127  0.3088
  159SAPE   H2X17740   1.120   0.445   6.823  1.6040  0.9725 -1.6475
  159SAPE   H2Y17741   1.193   0.279   6.804 -0.9046 -1.5335 -0.4436
  159SAPE   C2317742   1.613   0.663   6.812 -0.0102  0.2540  0.3889
  159SAPE   H3R17743   1.528   0.640   6.880 -1.0460  0.6505 -0.7290
  159SAPE   H3S17744   1.629   0.768   6.779 -0.9203  0.9901  2.1799
  159SAPE   C2417745   1.741   0.637   6.892  0.0475 -0.0173  0.1906
  159SAPE   H4R17746   1.827   0.670   6.829  1.0968 -2.2265  0.3361
  159SAPE   H4S17747   1.740   0.526   6.895 -0.2828 -0.1575 -2.5015
  159SAPE   C2517748   1.754   0.683   7.033  0.3207 -0.3132 -0.4573
  159SAPE   H5R17749   1.672   0.750   7.061  0.8023 -0.2117  0.7717
  159SAPE   C2617750   1.840   0.645   7.130  0.0763 -0.3895 -0.4138
  159SAPE   H6R17751   1.831   0.696   7.227  2.3371  1.3132 -1.0014
  159SAPE   C2717752   1.945   0.534   7.125 -0.1858 -0.1275  0.0026
  159SAPE   H7R17753   1.963   0.496   7.022  1.4001  0.5913 -0.0150
  159SAPE   H7S17754   1.921   0.445   7.187  0.5825 -0.6577 -0.4352
  159SAPE   C2817755   2.071   0.606   7.175 -0.0041  0.3937 -0.1393
  159SAPE   H8R17756   2.127   0.668   7.104 -0.0605  0.0207 -0.5179
  159SAPE   C2917757   2.125   0.590   7.301 -0.1558  0.8643 -0.3432
  159SAPE   H9R17758   2.213   0.644   7.337 -1.7253  2.3234  1.5164
  159SAPE  C21017759   2.067   0.501   7.409 -0.1546 -0.0262 -0.5893
  159SAPE  H10R17760   2.150   0.439   7.450  1.3467  2.6044  0.6181
  159SAPE  H10S17761   1.995   0.423   7.374 -1.6455  0.3468  1.4145
  159SAPE  C21117762   2.011   0.564   7.532  0.3314 -0.9507 -0.2505
  159SAPE  H11R17763   2.081   0.607   7.605  0.5172  2.1678 -2.1001
  159SAPE  C21217764   1.880   0.562   7.561 -0.5139  0.0618  0.2936
  159SAPE  H12R17765   1.851   0.613   7.654  0.1758  1.6781 -0.3273
  159SAPE  C21317766   1.764   0.499   7.478  0.3614 -0.3522  0.4917
  159SAPE  H13R17767   1.783   0.389   7.477 -2.0604 -0.8168  0.0701
  159SAPE  H13S17768   1.762   0.546   7.378 -2.0300  0.1386  0.7121
  159SAPE  C21417769   1.627   0.513   7.534  0.2316 -0.5143  0.6617
  159SAPE  H14R17770   1.564   0.583   7.476  1.1351 -0.2487 -0.0191
  159SAPE  C21517771   1.561   0.426   7.617 -0.3407  0.1293 -0.4891
  159SAPE  H15R17772   1.463   0.453   7.659 -0.6794 -0.7214 -0.6943
  159SAPE  C21617773   1.622   0.304   7.684  0.3343  0.0610 -0.4952
  159SAPE  H16R17774   1.722   0.267   7.654  0.4631 -2.1470  2.1802
  159SAPE  H16S17775   1.549   0.221   7.669 -0.0376  0.5691 -1.5664
  159SAPE  C21717776   1.635   0.328   7.835 -0.2251 -0.4412  0.6509
  159SAPE  H17R17777   1.690   0.241   7.876  0.9295 -0.5568 -1.0319
  159SAPE  H17S17778   1.535   0.320   7.882  0.2060  0.2586  1.7346
  159SAPE  C21817779   1.705   0.457   7.890  0.0291  0.4263  0.2497
  159SAPE  H18R17780   1.665   0.548   7.840 -1.8851 -0.9471 -0.8264
  159SAPE  H18S17781   1.811   0.441   7.860 -0.1555  0.5284 -0.4867
  159SAPE  C21917782   1.692   0.478   8.043  0.1406 -0.6603 -0.6894
  159SAPE  H19R17783   1.584   0.481   8.072 -0.0221 -0.5108 -1.2969
  159SAPE  H19S17784   1.727   0.575   8.083  0.5449 -0.9838 -0.2537
  159SAPE  C22017785   1.763   0.373   8.122  0.0812 -0.5703  0.3114
  159SAPE  H20R17786   1.720   0.272   8.102 -0.9553 -0.3770  1.4798
  159SAPE  H20S17787   1.757   0.385   8.232 -0.3310  0.0026  0.2274
  159SAPE  H20T17788   1.868   0.383   8.087 -0.6850  2.3626 -1.4436
  159SAPE   C3317789   0.965   0.301   6.797 -0.6976  0.4240  0.1349
  159SAPE   H3X17790   0.961   0.213   6.729 -0.3654 -0.3112  1.0374
  159SAPE   H3Y17791   0.897   0.382   6.763  0.3640  1.6944  0.9413
  159SAPE   C3417792   0.949   0.244   6.941  0.5666  0.2917  0.4743
  159SAPE   H4X17793   0.842   0.224   6.964  0.8735 -1.4966  0.5503
  159SAPE   H4Y17794   0.980   0.319   7.017 -2.3599  3.1769 -0.9743
  159SAPE   C3517795   1.015   0.105   6.969  0.0234  0.1358  0.1646
  159SAPE   H5X17796   1.124   0.098   6.948 -0.3026 -0.4170 -1.4789
  159SAPE   H5Y17797   0.981   0.031   6.894 -1.3057  0.5041  0.3904
  159SAPE   C3617798   0.992   0.059   7.111 -0.0596  0.2113 -0.0697
  159SAPE   H6X17799   0.887   0.033   7.136 -0.3668  1.1732 -0.3291
  159SAPE   H6Y17800   1.009   0.155   7.164  0.8198  0.8347 -1.4072
  159SAPE   C3717801   1.099  -0.038   7.159  0.6443 -0.2040 -0.4272
  159SAPE   H7X17802   1.196   0.013   7.142 -1.3414  3.5712 -1.5406
  159SAPE   H7Y17803   1.086  -0.132   7.102  0.1883  0.4100 -1.3682
  159SAPE   C3817804   1.089  -0.074   7.311  0.0422 -0.3154 -0.5094
  159SAPE   H8X17805   0.988  -0.107   7.344  0.5660 -2.3125 -0.7807
  159SAPE   H8Y17806   1.102   0.026   7.357 -0.8127 -0.4282 -0.0019
  159SAPE   C3917807   1.186  -0.178   7.371 -0.4140  0.3805  0.7956
  159SAPE   H9X17808   1.282  -0.122   7.378 -0.8068  1.4705 -1.5243
  159SAPE   H9Y17809   1.205  -0.266   7.306  2.7361 -0.0631  2.1362
  159SAPE  C31017810   1.145  -0.216   7.514 -0.3533 -0.6754  0.6438
  159SAPE  H10X17811   1.213  -0.294   7.554 -2.0096 -1.1855  2.6678
  159SAPE  H10Y17812   1.046  -0.265   7.500 -1.4223  1.8770 -1.6729
  159SAPE  C31117813   1.145  -0.098   7.612  0.3875  0.6303 -0.4236
  159SAPE  H11X17814   1.093  -0.131   7.704 -0.1673  0.3061 -0.8493
  159SAPE  H11Y17815   1.091  -0.008   7.574  0.7879  0.7721 -0.6624
  159SAPE  C31217816   1.286  -0.059   7.652 -0.0970 -0.5563  0.2466
  159SAPE  H12X17817   1.322  -0.001   7.565 -0.6053  0.3378  0.6218
  159SAPE  H12Y17818   1.360  -0.142   7.661 -1.0513 -1.2114  3.8055
  159SAPE  C31317819   1.307   0.029   7.777  0.0966 -0.0676  0.0431
  159SAPE  H13X17820   1.248   0.122   7.759 -2.7836 -1.6019  0.8986
  159SAPE  H13Y17821   1.414   0.055   7.790  0.0149  0.1506  0.2982
  159SAPE  C31417822   1.268  -0.041   7.907  0.0792 -0.9355  0.1421
  159SAPE  H14X17823   1.314  -0.142   7.906 -1.2291 -1.5515 -1.3254
  159SAPE  H14Y17824   1.159  -0.060   7.904  0.0844 -0.8982 -0.3112
  159SAPE  C31517825   1.288   0.027   8.042 -0.3635 -1.6387  0.2311
  159SAPE  H15X17826   1.396   0.013   8.064  0.3346 -0.0083 -1.8353
  159SAPE  H15Y17827   1.217  -0.004   8.121 -0.3414  2.0422  1.8757
  159SAPE  C31617828   1.260   0.180   8.042 -0.5853  0.6299  0.3479
  159SAPE  H16X17829   1.161   0.194   7.994 -0.2270 -0.1929 -0.6609
  159SAPE  H16Y17830   1.331   0.233   7.975  0.3580  0.1973  0.9759
  159SAPE  C31717831   1.271   0.239   8.186  0.0456 -0.2104 -0.2915
  159SAPE  H17X17832   1.222   0.178   8.264 -1.3330  0.8194 -0.3020
  159SAPE  H17Y17833   1.224   0.340   8.192  2.2539  0.8645 -0.0404
  159SAPE  C31817834   1.420   0.271   8.218 -0.2455 -0.2072  0.6002
  159SAPE  H18X17835   1.487   0.183   8.220  0.2350  0.1468  0.1879
  159SAPE  H18Y17836   1.429   0.319   8.318  3.2368  2.5939 -0.8466
  159SAPE  H18Z17837   1.452   0.346   8.143 -1.9563 -0.9111 -0.8939
  160SAPE     N17838   3.200   0.638   6.250 -0.4611  0.2202  0.3911
  160SAPE   HN117839   3.242   0.553   6.294  0.0528  0.0641 -0.3773
  160SAPE   HN217840   3.169   0.608   6.156  0.5860  2.6422 -0.8139
  160SAPE   HN317841   3.271   0.714   6.248  2.1503 -2.0374  1.1114
  160SAPE   C1217842   3.079   0.683   6.309  0.1403 -0.5997  0.5655
  160SAPE  H12A17843   3.040   0.760   6.238  1.9989  2.4929  2.6589
  160SAPE  H12B17844   3.114   0.741   6.397 -0.3800 -1.3074  1.2446
  160SAPE   C1117845   2.988   0.559   6.342  0.3985  0.3161  0.5431
  160SAPE  H11A17846   2.971   0.509   6.245 -0.6301  1.1807  0.2646
  160SAPE  H11B17847   2.894   0.610   6.370  0.9550  1.9909 -0.5097
  160SAPE     P17848   2.988   0.325   6.456 -0.2322 -0.1697  0.2830
  160SAPE   O1317849   2.843   0.312   6.430 -0.1426 -0.0414 -0.1361
  160SAPE   O1417850   3.080   0.234   6.377  0.4913 -0.2290  0.4866
  160SAPE   O1217851   3.033   0.471   6.440  0.0370  0.6297 -0.3007
  160SAPE   O1117852   3.009   0.306   6.616  0.2834  0.1499  0.1816
  160SAPE    C117853   3.141   0.321   6.669  0.7153  0.2249  0.0408
  160SAPE    HA17854   3.224   0.287   6.604  0.3420  0.6527 -0.6695
  160SAPE    HB17855   3.167   0.428   6.683  1.7564  0.0482 -0.4884
  160SAPE    C217856   3.162   0.253   6.805  1.0891  0.2486 -0.1179
  160SAPE    HS17857   3.100   0.161   6.814 -0.9651  1.6550  0.9566
  160SAPE   O2117858   3.115   0.349   6.897 -0.4341  0.0052  0.2066
  160SAPE   C2117859   3.060   0.304   7.012  0.1025  0.1268  0.3198
  160SAPE   O2217860   3.044   0.186   7.038  0.0843  0.3339 -0.6812
  160SAPE   C2217861   3.027   0.424   7.098 -0.3507 -0.1418  0.6534
  160SAPE   H2R17862   3.108   0.497   7.077 -1.4360  0.2199 -3.1353
  160SAPE   H2S17863   2.929   0.469   7.071  0.3300  2.3128  1.9573
  160SAPE    C317864   3.304   0.212   6.834  0.2144 -0.3403 -0.1827
  160SAPE    HX17865   3.351   0.312   6.851 -1.6509  0.4592  0.5763
  160SAPE    HY17866   3.343   0.157   6.746  0.4524  0.4817 -0.5991
  160SAPE   O3117867   3.322   0.146   6.956  0.0668  0.3134 -0.2932
  160SAPE   C3117868   3.297   0.021   6.973 -0.9332  0.2460  0.1218
  160SAPE   O3217869   3.262  -0.056   6.881  0.2237 -0.2649 -0.6508
  160SAPE   C3217870   3.346  -0.027   7.109 -0.0965 -0.0660  0.5293
  160SAPE   H2X17871   3.257  -0.009   7.173  0.2741  1.5295  0.6218
  160SAPE   H2Y17872   3.427   0.038   7.147 -1.0258  2.8534 -2.0948
  160SAPE   C2317873   3.015   0.385   7.243  0.1760  1.0008  0.2345
  160SAPE   H3R17874   3.102   0.329   7.284  0.2575  0.1985 -1.0079
  160SAPE   H3S17875   2.936   0.309   7.263  2.4071 -0.8925  2.5856
  160SAPE   C2417876   2.981   0.512   7.330  0.0504  0.0795  1.0905
  160SAPE   H4R17877   2.871   0.530   7.329  0.5704  4.9263 -1.4711
  160SAPE   H4S17878   3.028   0.601   7.283  1.3698 -0.7831  0.7277
  160SAPE   C2517879   3.037   0.502   7.469  0.4352  0.9251  0.1118
  160SAPE   H5R17880   3.122   0.566   7.495 -0.4901  1.4346  2.1318
  160SAPE   C2617881   2.984   0.425   7.568 -0.0976  0.1329  0.3961
  160SAPE   H6R17882   3.040   0.421   7.663 -0.9741  0.3283  0.9395
  160SAPE   C2717883   2.866   0.333   7.555  0.8197  0.3427  0.0124
  160SAPE   H7R17884   2.897   0.228   7.574 -0.4825 -0.4409 -1.8924
  160SAPE   H7S17885   2.822   0.333   7.453 -1.6770 -2.5969  0.9357
  160SAPE   C2817886   2.754   0.370   7.646 -0.3975 -0.2553 -0.5734
  160SAPE   H8R17887   2.706   0.468   7.637 -0.4242 -0.0955  1.0653
  160SAPE   C2917888   2.718   0.310   7.762 -0.3171  0.0067 -0.2586
  160SAPE   H9R17889   2.659   0.374   7.829  0.4529 -2.1955  2.7334
  160SAPE  C21017890   2.780   0.187   7.820  0.3473  0.5713 -0.7275
  160SAPE  H10R17891   2.766   0.180   7.930 -0.0851  0.9258 -0.7561
  160SAPE  H10S17892   2.891   0.185   7.807  0.2123  0.6959 -1.9620
  160SAPE  C21117893   2.709   0.060   7.769  0.2934 -0.3433 -0.1664
  160SAPE  H11R17894   2.722   0.033   7.663  0.9063 -1.8894  0.2798
  160SAPE  C21217895   2.634  -0.021   7.845 -0.1257 -0.0969 -0.3311
  160SAPE  H12R17896   2.588  -0.104   7.789 -1.5972 -0.9928  2.0535
  160SAPE  C21317897   2.600  -0.016   7.995  0.0325  0.4393  0.3837
  160SAPE  H13R17898   2.686   0.022   8.054 -0.9176  1.7691  0.9818
  160SAPE  H13S17899   2.556  -0.113   8.026 -1.0714  0.5740 -0.6673
  160SAPE  C21417900   2.484   0.087   7.992  0.1025 -0.7260  0.5719
  160SAPE  H14R17901   2.416   0.070   7.907 -1.7564  0.6438  1.7077
  160SAPE  C21517902   2.460   0.186   8.080  0.1097 -0.0909 -1.1224
  160SAPE  H15R17903   2.373   0.251   8.068 -0.4511 -1.0434 -2.4694
  160SAPE  C21617904   2.545   0.203   8.202  0.0506  0.0225  0.1118
  160SAPE  H16R17905   2.603   0.112   8.226 -0.5569 -0.4154 -0.0624
  160SAPE  H16S17906   2.473   0.219   8.286  0.3025 -0.0656  0.3466
  160SAPE  C21717907   2.634   0.332   8.193  0.4195  0.8730 -0.5535
  160SAPE  H17R17908   2.578   0.427   8.186 -1.5469  0.0523  2.5500
  160SAPE  H17S17909   2.695   0.331   8.099  0.3577 -1.6594 -0.6292
  160SAPE  C21817910   2.727   0.340   8.317  0.0529 -0.2189  0.3310
  160SAPE  H18R17911   2.804   0.409   8.277  1.4908 -1.7919  0.2837
  160SAPE  H18S17912   2.787   0.251   8.345  0.0406  0.0145  1.1168
  160SAPE  C21917913   2.670   0.408   8.448  0.6484  0.3536  0.4751
  160SAPE  H19R17914   2.584   0.345   8.481 -0.5540  2.4587  1.5440
  160SAPE  H19S17915   2.626   0.506   8.420  0.4892  0.3629  0.7588
  160SAPE  C22017916   2.775   0.421   8.558  0.2452 -0.6211 -0.2611
  160SAPE  H20R17917   2.719   0.457   8.647 -0.4218 -3.8943  0.7775
  160SAPE  H20S17918   2.857   0.491   8.533 -0.2405 -0.5942 -1.8735
  160SAPE  H20T17919   2.819   0.325   8.595 -0.4393 -0.0588  2.2079
  160SAPE   C3317920   3.386  -0.180   7.105 -0.2315 -0.5919  0.6687
  160SAPE   H3X17921   3.470  -0.170   7.034 -1.6839  1.5290 -0.8729
  160SAPE   H3Y17922   3.304  -0.244   7.065  0.1180 -0.5914 -0.0587
  160SAPE   C3417923   3.413  -0.235   7.251  0.3826  0.5758  0.2816
  160SAPE   H4X17924   3.450  -0.339   7.234 -0.4010  0.3495 -0.0640
  160SAPE   H4Y17925   3.320  -0.239   7.311  0.4813  0.6826  0.4418
  160SAPE   C3517926   3.513  -0.152   7.327 -0.7685  0.2067 -0.2490
  160SAPE   H5X17927   3.460  -0.056   7.348  1.0312  0.7120  2.4420
  160SAPE   H5Y17928   3.606  -0.129   7.270  0.6572 -0.2873  1.7757
  160SAPE   C3617929   3.545  -0.210   7.463 -0.1628  0.2897 -0.1380
  160SAPE   H6X17930   3.592  -0.309   7.443 -0.8864 -0.1637  0.3790
  160SAPE   H6Y17931   3.452  -0.224   7.522 -1.0423 -1.4444 -1.8152
  160SAPE   C3717932   3.647  -0.134   7.544 -0.2595 -0.3690  0.2738
  160SAPE   H7X17933   3.615  -0.031   7.567  1.3060  0.0095  0.8971
  160SAPE   H7Y17934   3.743  -0.114   7.491 -1.3786  0.2349 -1.6298
  160SAPE   C3817935   3.695  -0.200   7.681  0.6010  0.7373 -0.4769
  160SAPE   H8X17936   3.782  -0.145   7.722  0.5150  0.7388 -0.2945
  160SAPE   H8Y17937   3.728  -0.303   7.654 -1.5004 -0.3372  0.7581
  160SAPE   C3917938   3.583  -0.193   7.791 -0.2297  0.2622 -0.4313
  160SAPE   H9X17939   3.496  -0.253   7.755  0.1692 -0.0661 -0.8637
  160SAPE   H9Y17940   3.557  -0.085   7.798  3.1414  1.2900 -1.6092
  160SAPE  C31017941   3.637  -0.240   7.932 -0.6056  0.3945  0.5171
  160SAPE  H10X17942   3.724  -0.177   7.959 -0.5995  0.8818 -0.5777
  160SAPE  H10Y17943   3.644  -0.350   7.933  2.6554  0.2943 -3.8062
  160SAPE  C31117944   3.543  -0.212   8.042 -0.3354 -0.0579  0.6103
  160SAPE  H11X17945   3.447  -0.265   8.027 -0.2289  0.1900 -1.0763
  160SAPE  H11Y17946   3.523  -0.103   8.042 -2.1367 -0.3206 -1.7780
  160SAPE  C31217947   3.598  -0.246   8.181  0.6081 -0.1632 -0.1385
  160SAPE  H12X17948   3.695  -0.192   8.190  0.1915  0.8974 -1.6755
  160SAPE  H12Y17949   3.619  -0.355   8.191 -1.2890 -0.7039 -1.6548
  160SAPE  C31317950   3.517  -0.216   8.301 -0.3724 -0.3362  0.8216
  160SAPE  H13X17951   3.421  -0.273   8.306 -1.7718  1.9345  1.4174
  160SAPE  H13Y17952   3.487  -0.109   8.292 -0.6472 -0.5543 -1.9687
  160SAPE  C31417953   3.595  -0.247   8.429 -0.1681 -0.7713  0.7732
  160SAPE  H14X17954   3.692  -0.194   8.430 -0.4873 -0.1481  0.0710
  160SAPE  H14Y17955   3.608  -0.357   8.423 -0.1651 -0.6998 -1.2157
  160SAPE  C31517956   3.518  -0.217   8.554 -0.0463 -0.6248 -0.0924
  160SAPE  H15X17957   3.437  -0.288   8.580  1.3403 -1.5300  1.9646
  160SAPE  H15Y17958   3.477  -0.113   8.555 -1.0903 -0.9897 -1.4912
  160SAPE  C31617959   3.606  -0.227   8.675  0.1605 -0.0205 -0.5860
  160SAPE  H16X17960   3.661  -0.324   8.666  0.5052 -0.3494  3.1328
  160SAPE  H16Y17961   3.553  -0.227   8.773  1.2899 -0.3864  0.0443
  160SAPE  C31717962   3.709  -0.115   8.692 -0.5207  0.0513  0.3890
  160SAPE  H17X17963   3.659  -0.018   8.708 -1.5340 -0.7750  2.7233
  160SAPE  H17Y17964   3.769  -0.100   8.599 -2.2559  0.3950 -0.7175
  160SAPE  C31817965   3.801  -0.134   8.815 -0.0244 -0.4134  0.2641
  160SAPE  H18X17966   3.756  -0.108   8.913 -0.0583  1.3598 -0.1855
  160SAPE  H18Y17967   3.891  -0.070   8.805 -1.6493  2.2958  1.8183
  160SAPE  H18Z17968   3.846  -0.236   8.818  2.3664  0.5339 -0.7805
  161SOPE     N17969   0.808   2.260  10.946  0.4949  0.0406  0.6575
  161SOPE   HN117970   0.832   2.335  11.014  2.0340  0.0679  0.1158
  161SOPE   HN217971   0.771   2.178  10.997 -0.2491  0.6509  1.1284
  161SOPE   HN317972   0.888   2.232  10.885 -0.0017 -1.3908  0.6277
  161SOPE   C1217973   0.713   2.325  10.851  0.9257 -0.0042 -0.2492
  161SOPE  H12A17974   0.647   2.397  10.904  0.2129 -0.7474 -0.1108
  161SOPE  H12B17975   0.657   2.244  10.800  2.3325 -1.5043  0.4849
  161SOPE   C1117976   0.802   2.416  10.763  0.9608  0.5557 -0.6137
  161SOPE  H11A17977   0.854   2.504  10.806  1.9396 -0.1333 -0.3462
  161SOPE  H11B17978   0.733   2.446  10.681 -0.0018  0.8435  0.2942
  161SOPE     P17979   1.055   2.383  10.674 -0.4444 -0.1595 -0.2767
  161SOPE   O1317980   1.133   2.403  10.798 -0.0119 -0.9096 -0.6664
  161SOPE   O1417981   1.039   2.498  10.579 -0.6741  0.0114  0.3953
  161SOPE   O1217982   0.906   2.328  10.712  0.0939 -0.3662 -0.4979
  161SOPE   O1117983   1.117   2.268  10.588 -0.0766  0.1072 -0.2994
  161SOPE    C117984   1.053   2.171  10.514 -0.2978  0.0375  0.7109
  161SOPE    HA17985   0.972   2.122  10.574 -0.7882  0.0045  0.0323
  161SOPE    HB17986   1.134   2.099  10.493  1.3219  2.2145 -0.8262
  161SOPE    C217987   0.992   2.219  10.378  0.0327  0.8102 -0.3397
  161SOPE    HS17988   0.906   2.287  10.399  1.0013  1.6536  1.0774
  161SOPE   O2117989   0.938   2.109  10.304  0.1256 -0.0395  0.6095
  161SOPE   C2117990   0.817   2.071  10.354  0.3093  0.4414 -0.2555
  161SOPE   O2217991   0.762   2.126  10.447  0.1382 -0.5031 -0.1925
  161SOPE   C2217992   0.752   1.952  10.282  0.1379  0.2103  0.6658
  161SOPE   H2R17993   0.688   1.896  10.355  1.0106 -2.0397 -0.1919
  161SOPE   H2S17994   0.828   1.884  10.238 -1.9655 -1.7984 -0.0889
  161SOPE    C317995   1.091   2.292  10.301  0.2368 -0.4551  0.0393
  161SOPE    HX17996   1.187   2.237  10.299  0.8084  0.3235  2.3169
  161SOPE    HY17997   1.098   2.393  10.347 -0.7356 -0.4618  0.2435
  161SOPE   O3117998   1.043   2.304  10.164  0.4830 -0.1572 -0.5917
  161SOPE   C3117999   1.128   2.313  10.063  0.2345  0.1256 -0.5110
  161SOPE   O3218000   1.243   2.350  10.068 -0.1377 -0.0881  0.0270
  161SOPE   C3218001   1.061   2.276   9.936  0.8969  0.6448 -0.1188
  161SOPE   H2X18002   0.967   2.335   9.926  1.4416  1.7153  0.7794
  161SOPE   H2Y18003   1.058   2.166   9.925  3.8031 -0.0089  3.6933
  161SOPE   C2318004   0.649   2.003  10.179 -0.3167 -0.0826  0.4103
  161SOPE   H3R18005   0.565   2.056  10.228 -0.8721  0.0615 -0.6745
  161SOPE   H3S18006   0.616   1.903  10.142  1.4113 -0.3621 -0.5134
  161SOPE   C2418007   0.710   2.078  10.053  0.5858  0.2156 -0.3400
  161SOPE   H4R18008   0.760   2.173  10.084  2.3014  0.1840 -2.7717
  161SOPE   H4S18009   0.779   2.004  10.008  0.6450 -0.3046  0.5782
  161SOPE   C2518010   0.596   2.113   9.946 -0.8309  0.6380 -0.3415
  161SOPE   H5R18011   0.643   2.109   9.846 -1.2652 -0.7075 -0.5083
  161SOPE   H5S18012   0.521   2.032   9.949 -1.4076  1.1324 -1.0965
  161SOPE   C2618013   0.530   2.247   9.960  0.3540 -0.0185  1.1114
  161SOPE   H6R18014   0.497   2.257  10.065  1.1696  0.3739  1.3323
  161SOPE   H6S18015   0.603   2.326   9.934 -1.4490  1.1671 -0.7508
  161SOPE   C2718016   0.403   2.262   9.874 -0.4041  0.1471  0.2377
  161SOPE   H7R18017   0.333   2.186   9.916 -0.9405  1.0914  1.1284
  161SOPE   H7S18018   0.362   2.360   9.908  1.3190  0.7538  0.6837
  161SOPE   C2818019   0.408   2.255   9.720  0.3656 -1.0437 -0.3198
  161SOPE   H8R18020   0.435   2.153   9.686 -3.3943 -3.3699  2.8238
  161SOPE   H8S18021   0.308   2.287   9.684  0.4910  0.1390  0.3335
  161SOPE   C2918022   0.515   2.358   9.678  0.3683 -0.2332 -0.5946
  161SOPE   H9118023   0.531   2.444   9.744 -0.7924 -0.8740  0.5568
  161SOPE  C21018024   0.573   2.368   9.558 -0.4629 -0.3308  0.1412
  161SOPE  H10118025   0.654   2.442   9.545  1.3128 -2.3665 -1.0627
  161SOPE  C21118026   0.552   2.267   9.447  0.0808  0.4131 -0.1332
  161SOPE  H11R18027   0.554   2.323   9.352 -0.4021  2.5130  1.0281
  161SOPE  H11S18028   0.453   2.217   9.451  0.2380  0.1067  2.9547
  161SOPE  C21218029   0.669   2.156   9.453  0.0966 -0.2792  0.0630
  161SOPE  H12R18030   0.650   2.092   9.541  1.7345  1.1925  1.5711
  161SOPE  H12S18031   0.766   2.207   9.472  0.3151 -0.5836 -0.2426
  161SOPE  C21318032   0.679   2.090   9.320  0.0032 -0.1714  0.1247
  161SOPE  H13R18033   0.783   2.055   9.304  0.4007 -0.4392  2.7962
  161SOPE  H13S18034   0.654   2.168   9.245  1.5337  0.4679  0.2536
  161SOPE  C21418035   0.578   1.974   9.293  0.5425  0.7013 -0.1278
  161SOPE  H14R18036   0.489   2.012   9.348  0.5546  0.4224  0.0851
  161SOPE  H14S18037   0.592   1.882   9.352 -4.4931  0.1001  0.5852
  161SOPE  C21518038   0.550   1.945   9.146  0.1992 -0.2477  0.4340
  161SOPE  H15R18039   0.640   1.905   9.095 -0.2195  1.6387 -1.9614
  161SOPE  H15S18040   0.511   2.040   9.104  1.4350  1.1640  2.3464
  161SOPE  C21618041   0.441   1.840   9.113 -1.1484  0.2462 -0.4677
  161SOPE  H16R18042   0.351   1.876   9.168 -1.2976 -0.3292 -0.3369
  161SOPE  H16S18043   0.474   1.742   9.153  2.6207  0.9269 -1.5204
  161SOPE  C21718044   0.409   1.838   8.964  0.5056  0.2326  0.1014
  161SOPE  H17R18045   0.488   1.783   8.910  0.1174 -0.4413  0.2142
  161SOPE  H17S18046   0.404   1.940   8.918 -0.0648 -0.2133 -0.8599
  161SOPE  C21818047   0.276   1.766   8.942  0.8447 -0.8083 -0.3017
  161SOPE  H18R18048   0.296   1.660   8.971  0.7019 -1.4044 -2.2648
  161SOPE  H18S18049   0.250   1.771   8.834 -0.6281  2.8661  0.1011
  161SOPE  H18T18050   0.204   1.804   9.017  0.0114 -1.3240 -0.8260
  161SOPE   C3318051   1.150   2.312   9.813 -0.4346 -0.9046  0.0158
  161SOPE   H3X18052   1.245   2.255   9.801  1.1769  2.0754 -3.0726
  161SOPE   H3Y18053   1.181   2.418   9.811 -1.3024 -0.6410  0.0821
  161SOPE   C3418054   1.079   2.291   9.678 -0.1016 -0.1098  0.2588
  161SOPE   H4X18055   0.992   2.359   9.668  0.7686  0.8268 -1.5256
  161SOPE   H4Y18056   1.031   2.191   9.680 -1.9414  0.6509 -1.6635
  161SOPE   C3518057   1.160   2.318   9.549 -0.1400 -0.1115  0.0232
  161SOPE   H5X18058   1.247   2.249   9.553  2.0031  2.4769  1.1756
  161SOPE   H5Y18059   1.196   2.423   9.540  0.8552 -0.6257 -3.6883
  161SOPE   C3618060   1.089   2.288   9.416  0.4113 -0.0266  0.3104
  161SOPE   H6X18061   0.997   2.349   9.411  0.4934  0.0786  0.0546
  161SOPE   H6Y18062   1.057   2.183   9.402 -0.1835  0.3091 -0.9798
  161SOPE   C3718063   1.164   2.341   9.295  0.0781 -0.0150 -0.2012
  161SOPE   H7X18064   1.253   2.278   9.275  0.5715  0.6071  0.0159
  161SOPE   H7Y18065   1.198   2.446   9.305 -0.1125 -0.0861  1.6343
  161SOPE   C3818066   1.079   2.331   9.165  0.0808  0.6993 -0.0746
  161SOPE   H8X18067   1.132   2.407   9.104  0.3167  0.9696  0.4629
  161SOPE   H8Y18068   0.974   2.363   9.182 -0.1636  0.6287 -1.3287
  161SOPE   C3918069   1.080   2.197   9.091 -0.2599  0.5781 -0.0337
  161SOPE   H9X18070   1.045   2.123   9.166 -1.1386  1.6316  0.6261
  161SOPE   H9Y18071   1.182   2.172   9.053 -1.1666 -1.9494 -0.9760
  161SOPE  C31018072   0.983   2.180   8.974  0.2620 -0.1728 -0.1033
  161SOPE  H10X18073   1.027   2.223   8.882  0.9166  0.7076  0.6048
  161SOPE  H10Y18074   0.886   2.230   8.996 -0.6047 -0.5357 -2.7606
  161SOPE  C31118075   0.952   2.030   8.963  0.5429  0.0156  0.2543
  161SOPE  H11X18076   0.919   1.990   9.061 -3.3689  0.7086 -0.6124
  161SOPE  H11Y18077   1.053   1.987   8.949  0.1711 -0.2403 -2.2687
  161SOPE  C31218078   0.863   1.991   8.845  0.4245 -0.0941 -0.0353
  161SOPE  H12X18079   0.767   2.048   8.853  1.2263  1.2784  0.2068
  161SOPE  H12Y18080   0.839   1.883   8.837 -0.9664  0.2902 -1.4862
  161SOPE  C31318081   0.934   2.014   8.704  0.4667 -0.3269 -0.0946
  161SOPE  H13X18082   1.027   1.956   8.718  0.4589 -0.4676 -0.6017
  161SOPE  H13Y18083   0.958   2.121   8.688 -2.5618  0.2079 -1.7662
  161SOPE  C31418084   0.855   1.969   8.587  0.3756 -0.2395  0.4654
  161SOPE  H14X18085   0.777   2.046   8.566 -0.9029 -1.3478  1.0304
  161SOPE  H14Y18086   0.789   1.883   8.611 -1.6894  0.7135 -1.4113
  161SOPE  C31518087   0.941   1.932   8.471 -0.7059 -0.4201  0.0746
  161SOPE  H15X18088   1.011   2.014   8.446 -0.1387 -0.9745 -0.2038
  161SOPE  H15Y18089   0.880   1.934   8.378 -0.2032 -0.3608 -0.2554
  161SOPE  C31618090   1.027   1.806   8.488 -0.2611 -0.1087 -1.0309
  161SOPE  H16X18091   1.094   1.805   8.577 -0.0100 -0.3785 -1.2247
  161SOPE  H16Y18092   1.083   1.797   8.393  0.6164 -1.4759 -0.4070
  161SOPE  C31718093   0.952   1.668   8.504 -0.8520 -0.2525  0.1761
  161SOPE  H17X18094   0.893   1.660   8.410  0.3030  0.8814 -0.6897
  161SOPE  H17Y18095   0.887   1.658   8.593 -0.3003  1.1455  0.7646
  161SOPE  C31818096   1.047   1.554   8.519  0.4820 -0.4533 -0.0512
  161SOPE  H18X18097   0.993   1.461   8.550  1.1960 -0.5129  1.0698
  161SOPE  H18Y18098   1.125   1.585   8.592 -0.5609 -0.8479  1.2791
  161SOPE  H18Z18099   1.099   1.540   8.422  1.4781  0.2509  0.3625
  162SOPE     N18100   0.194   1.324  10.966 -0.3637  0.1417 -0.1168
  162SOPE   HN118101   0.232   1.351  11.058  0.1359  2.8886 -1.0492
  162SOPE   HN218102   0.226   1.235  10.923 -0.5585  0.5230 -1.0833
  162SOPE   HN318103   0.225   1.393  10.895  1.1547 -0.7938 -0.4064
  162SOPE   C1218104   0.048   1.317  10.975 -0.0841 -0.2261 -0.1702
  162SOPE  H12A18105   0.016   1.423  10.971  1.8667  0.4218  0.5193
  162SOPE  H12B18106   0.019   1.297  11.081  0.0756 -0.5973 -0.1953
  162SOPE   C1118107  -0.019   1.216  10.889  0.8316  0.4673 -0.0811
  162SOPE  H11A18108  -0.009   1.238  10.781  1.3643 -1.7333 -0.5267
  162SOPE  H11B18109  -0.125   1.224  10.924  0.8847  1.7011 -0.1399
  162SOPE     P18110   0.129   1.002  10.843  0.1497 -0.2518 -0.0703
  162SOPE   O1318111   0.120   0.873  10.913 -0.1045  0.3919 -0.2230
  162SOPE   O1418112   0.262   1.078  10.849  0.3758 -0.1956 -0.4167
  162SOPE   O1218113   0.020   1.088  10.914  0.3632 -0.1500  0.6449
  162SOPE   O1118114   0.075   0.993  10.697  0.6619  0.0052 -0.3738
  162SOPE    C118115  -0.064   0.966  10.681 -0.1789 -0.1143 -0.3256
  162SOPE    HA18116  -0.126   1.053  10.712 -2.6176 -2.7192  2.7241
  162SOPE    HB18117  -0.097   0.878  10.739 -0.7752  0.3275  0.0153
  162SOPE    C218118  -0.100   0.931  10.535 -0.5025  0.1623 -0.1074
  162SOPE    HS18119  -0.048   0.833  10.538 -2.7724 -1.1062 -0.3133
  162SOPE   O2118120  -0.059   1.031  10.442 -0.8858 -0.0291 -0.0976
  162SOPE   C2118121   0.027   0.997  10.351 -0.4417  0.4799 -0.0667
  162SOPE   O2218122   0.083   0.890  10.335 -0.2361 -0.1910  0.4080
  162SOPE   C2218123   0.045   1.121  10.259 -0.1852 -0.1009  0.5154
  162SOPE   H2R18124   0.082   1.204  10.324  0.4905 -0.4606  0.5989
  162SOPE   H2S18125  -0.056   1.148  10.224 -0.0276 -0.2560 -0.0645
  162SOPE    C318126  -0.255   0.907  10.507 -0.2043 -0.8521 -0.0972
  162SOPE    HX18127  -0.294   0.992  10.566 -0.4889 -2.3435  1.9918
  162SOPE    HY18128  -0.288   0.811  10.554 -2.3579 -0.0701  0.0704
  162SOPE   O3118129  -0.299   0.913  10.371  0.0720 -0.3078  0.1334
  162SOPE   C3118130  -0.289   0.810  10.287 -0.0034  0.3074  0.2707
  162SOPE   O3218131  -0.255   0.697  10.316  0.1220 -0.4539 -0.4182
  162SOPE   C3218132  -0.318   0.868  10.145  0.2900  0.6807 -0.1668
  162SOPE   H2X18133  -0.255   0.805  10.078 -0.8705  0.3458 -0.9864
  162SOPE   H2Y18134  -0.272   0.969  10.140 -1.1784  1.3340 -1.3122
  162SOPE   C2318135   0.153   1.100  10.146  0.6000 -0.0167 -0.5000
  162SOPE   H3R18136   0.243   1.052  10.191 -0.2928 -1.3785 -0.1186
  162SOPE   H3S18137   0.178   1.196  10.096 -1.7653  0.5783 -0.6328
  162SOPE   C2418138   0.105   1.008  10.034  0.1454 -0.7405 -0.1489
  162SOPE   H4R18139   0.197   0.971   9.985  0.7290 -0.8711  1.0036
  162SOPE   H4S18140   0.064   0.922  10.091 -0.1575  0.0641  0.8862
  162SOPE   C2518141   0.003   1.060   9.941 -0.2078 -0.5204  0.0427
  162SOPE   H5R18142  -0.100   1.054   9.984 -0.6004 -0.8937 -0.9182
  162SOPE   H5S18143   0.021   1.167   9.920  0.2743 -0.6061  0.0201
  162SOPE   C2618144  -0.005   0.984   9.807  0.0858  1.2501  0.2491
  162SOPE   H6R18145  -0.024   0.876   9.826 -0.9441  1.3553 -0.1272
  162SOPE   H6S18146  -0.085   1.030   9.744  0.9898  2.0534 -0.3523
  162SOPE   C2718147   0.121   0.999   9.721 -0.5497 -0.0236  1.1752
  162SOPE   H7R18148   0.155   1.104   9.730 -1.0362  0.1515  1.0078
  162SOPE   H7S18149   0.197   0.928   9.760  1.8668  0.5021 -2.1007
  162SOPE   C2818150   0.090   0.955   9.573 -0.8011  0.7600 -0.3570
  162SOPE   H8R18151   0.042   0.854   9.576 -0.1548  0.3368 -2.3935
  162SOPE   H8S18152   0.013   1.028   9.541 -3.1648 -1.5483 -0.2904
  162SOPE   C2918153   0.211   0.946   9.484  0.1420 -0.1622  0.0277
  162SOPE   H9118154   0.301   0.970   9.543 -0.2912  2.5722 -0.3262
  162SOPE  C21018155   0.203   0.953   9.350  0.2764  0.6944  0.1720
  162SOPE  H10118156   0.300   0.959   9.298 -0.5596  0.8827 -1.4348
  162SOPE  C21118157   0.078   0.966   9.260 -0.3109 -0.3869  0.1437
  162SOPE  H11R18158   0.054   1.067   9.223  0.4561 -1.3401 -3.2602
  162SOPE  H11S18159  -0.003   0.928   9.326  0.0739  1.2672  1.6456
  162SOPE  C21218160   0.104   0.886   9.130  0.7376  0.0618 -1.1718
  162SOPE  H12R18161   0.000   0.880   9.091  0.1351  3.0769 -0.2651
  162SOPE  H12S18162   0.133   0.783   9.157  0.1533  0.3550  0.6658
  162SOPE  C21318163   0.213   0.944   9.037 -0.2880 -0.4630 -0.0884
  162SOPE  H13R18164   0.311   0.896   9.058  0.1827 -0.8817 -2.9533
  162SOPE  H13S18165   0.233   1.050   9.064 -0.5392 -0.8770  1.9311
  162SOPE  C21418166   0.183   0.921   8.889  0.2283 -0.4780  0.9424
  162SOPE  H14R18167   0.075   0.895   8.884 -0.1442  1.1159 -0.1406
  162SOPE  H14S18168   0.230   0.830   8.847 -0.2286  0.1096 -0.9739
  162SOPE  C21518169   0.195   1.047   8.805  0.0763  0.0495  0.3082
  162SOPE  H15R18170   0.186   1.142   8.862 -0.6198 -0.5988  1.3056
  162SOPE  H15S18171   0.116   1.048   8.726  1.1061  1.7232 -0.7749
  162SOPE  C21618172   0.319   1.049   8.718  0.4543 -0.6525  0.5793
  162SOPE  H16R18173   0.322   1.125   8.637  0.7445 -1.7475 -0.4712
  162SOPE  H16S18174   0.315   0.957   8.656  0.1893 -0.0036 -0.3738
  162SOPE  C21718175   0.444   1.042   8.802 -0.3352  0.7288  1.0371
  162SOPE  H17R18176   0.531   1.046   8.733 -1.0531  1.9094  0.1710
  162SOPE  H17S18177   0.453   0.950   8.864  1.1932  0.5977  0.6745
  162SOPE  C21818178   0.454   1.165   8.897 -0.3994  0.4031  0.1277
  162SOPE  H18R18179   0.556   1.208   8.888  0.1929 -0.8290  0.6206
  162SOPE  H18S18180   0.429   1.122   8.996 -1.1797  1.0081  0.1965
  162SOPE  H18T18181   0.374   1.241   8.900 -1.0279 -0.2600  0.3690
  162SOPE   C3318182  -0.458   0.881  10.094 -0.0796 -0.3620  0.7222
  162SOPE   H3X18183  -0.521   0.943  10.161  1.2537 -1.0069  2.6521
  162SOPE   H3Y18184  -0.505   0.782  10.077  0.3053 -0.1863 -1.6775
  162SOPE   C3418185  -0.462   0.950   9.955 -0.0947  0.0027  0.4125
  162SOPE   H4X18186  -0.401   1.043   9.960 -2.4554  1.5679  2.5318
  162SOPE   H4Y18187  -0.565   0.981   9.929 -0.4471 -1.9069 -0.6783
  162SOPE   C3518188  -0.424   0.864   9.838  0.5050  0.2098 -0.0298
  162SOPE   H5X18189  -0.492   0.777   9.839 -1.2902  1.5586  1.3120
  162SOPE   H5Y18190  -0.322   0.821   9.853  0.1426 -0.3990  0.6994
  162SOPE   C3618191  -0.419   0.938   9.706 -0.2708  0.5890  0.3807
  162SOPE   H6X18192  -0.383   1.042   9.723  1.6675  0.1858 -0.9806
  162SOPE   H6Y18193  -0.521   0.949   9.663  0.1261  1.6522 -0.3664
  162SOPE   C3718194  -0.320   0.876   9.607  0.4518  0.2820  0.1457
  162SOPE   H7X18195  -0.341   0.768   9.596 -2.0715  0.7099  0.2306
  162SOPE   H7Y18196  -0.218   0.886   9.651 -0.4013  1.7337  1.9383
  162SOPE   C3818197  -0.334   0.937   9.463 -0.3760  0.1196  0.0391
  162SOPE   H8X18198  -0.279   1.031   9.443 -0.2883 -0.0035 -0.3115
  162SOPE   H8Y18199  -0.442   0.956   9.445  0.0849  1.5238 -1.4744
  162SOPE   C3918200  -0.278   0.835   9.357  0.0084  0.1921 -0.3523
  162SOPE   H9X18201  -0.332   0.738   9.362  1.4070 -0.6684 -1.1624
  162SOPE   H9Y18202  -0.175   0.812   9.392 -0.0094 -0.1332 -0.5128
  162SOPE  C31018203  -0.285   0.900   9.214  0.7848  0.2908 -0.3259
  162SOPE  H10X18204  -0.229   0.834   9.145  2.3533 -0.4471  1.5935
  162SOPE  H10Y18205  -0.230   0.997   9.216  1.8346 -0.1709 -2.7854
  162SOPE  C31118206  -0.414   0.921   9.153  1.0752  0.5469  0.8435
  162SOPE  H11X18207  -0.473   0.989   9.219 -0.6660  0.4250 -0.5083
  162SOPE  H11Y18208  -0.481   0.836   9.127 -2.6393  2.5407  2.8741
  162SOPE  C31218209  -0.402   1.005   9.017 -0.5805  0.0169  0.2459
  162SOPE  H12X18210  -0.383   1.107   9.059  1.3770  0.2129 -1.0039
  162SOPE  H12Y18211  -0.499   0.996   8.964 -0.2145  0.2569 -0.4811
  162SOPE  C31318212  -0.286   0.963   8.923  0.0985 -0.4220 -0.0344
  162SOPE  H13X18213  -0.280   0.861   8.882  2.1548 -0.4361  0.2237
  162SOPE  H13Y18214  -0.190   0.983   8.974  0.2493  1.3433 -0.9178
  162SOPE  C31418215  -0.273   1.047   8.788 -0.8444 -0.1783 -0.6604
  162SOPE  H14X18216  -0.173   1.021   8.747  0.6543  3.4510  0.2963
  162SOPE  H14Y18217  -0.261   1.155   8.814  2.3751 -0.8940  1.4345
  162SOPE  C31518218  -0.385   1.019   8.698 -0.0564  0.4731 -0.0746
  162SOPE  H15X18219  -0.394   1.098   8.620  1.0092  0.2206 -0.4772
  162SOPE  H15Y18220  -0.483   1.014   8.749  0.1808  1.8182  0.5463
  162SOPE  C31618221  -0.379   0.894   8.608 -0.2234 -0.5547 -0.7289
  162SOPE  H16X18222  -0.390   0.797   8.661  2.8877 -0.9715 -0.7081
  162SOPE  H16Y18223  -0.276   0.885   8.569  0.0405 -1.6869  0.1999
  162SOPE  C31718224  -0.486   0.903   8.496  0.1128 -0.0377 -0.3623
  162SOPE  H17X18225  -0.459   0.991   8.435  0.5949 -0.0282 -0.1347
  162SOPE  H17Y18226  -0.587   0.919   8.541  0.6010 -1.0114  1.1664
  162SOPE  C31818227  -0.487   0.774   8.415  0.9103 -0.0964  0.1450
  162SOPE  H18X18228  -0.519   0.687   8.475  1.5941  0.0567  0.7497
  162SOPE  H18Y18229  -0.386   0.752   8.375  0.5964 -0.6204 -0.3728
  162SOPE  H18Z18230  -0.551   0.782   8.325 -2.6595 -0.3313  2.4540
  163SOPE     N18231   0.890   5.964  10.746 -0.6026 -0.2803  0.2389
  163SOPE   HN118232   0.808   5.988  10.804 -2.4930 -1.8587 -1.6208
  163SOPE   HN218233   0.961   5.901  10.788 -0.7255 -0.2217  0.5404
  163SOPE   HN318234   0.929   6.055  10.714 -3.4636  0.3226 -1.8687
  163SOPE   C1218235   0.855   5.890  10.623  0.4942 -0.0007  0.1124
  163SOPE  H12A18236   0.938   5.872  10.551 -1.3467  0.3423 -2.2308
  163SOPE  H12B18237   0.794   5.958  10.559  2.3310  0.0451 -1.6679
  163SOPE   C1118238   0.773   5.768  10.651 -0.2067  0.3232 -0.4173
  163SOPE  H11A18239   0.845   5.684  10.658  0.2608  0.7507 -0.0182
  163SOPE  H11B18240   0.711   5.736  10.564  0.5805  2.3705 -1.7898
  163SOPE     P18241   0.569   5.890  10.770  0.1859  0.0373 -0.5093
  163SOPE   O1318242   0.622   6.031  10.780  0.2483  0.2102  0.1816
  163SOPE   O1418243   0.469   5.844  10.871 -0.5111 -0.2461  0.1985
  163SOPE   O1218244   0.687   5.781  10.767 -0.4753  0.2475  0.2542
  163SOPE   O1118245   0.502   5.883  10.630  0.2582  0.5733  0.3504
  163SOPE    C118246   0.438   5.762  10.574 -0.2515  0.4361 -0.3243
  163SOPE    HA18247   0.386   5.712  10.659 -0.6797  0.5135 -0.5344
  163SOPE    HB18248   0.521   5.693  10.550 -0.2277 -0.3642  1.8641
  163SOPE    C218249   0.344   5.794  10.455 -0.3006 -0.1926  0.7695
  163SOPE    HS18250   0.296   5.697  10.431  1.1775 -1.2770  1.9793
  163SOPE   O2118251   0.431   5.850  10.361 -0.3779 -0.2705 -0.0662
  163SOPE   C2118252   0.395   5.844  10.232  0.2306  0.2705 -0.1696
  163SOPE   O2218253   0.293   5.798  10.186 -0.1893  0.3605  0.4076
  163SOPE   C2218254   0.511   5.917  10.151 -0.0403 -0.0008  0.2486
  163SOPE   H2R18255   0.589   5.967  10.211  0.9486 -2.7438  1.3999
  163SOPE   H2S18256   0.460   5.988  10.082  0.6018  1.0396  0.8258
  163SOPE    C318257   0.223   5.894  10.495 -0.2986 -0.7764  0.4933
  163SOPE    HX18258   0.264   5.979  10.554 -1.0145  0.3720 -0.6299
  163SOPE    HY18259   0.159   5.844  10.572  0.4257  0.1523  1.7221
  163SOPE   O3118260   0.147   5.945  10.386  0.2698  0.0917  0.3535
  163SOPE   C3118261   0.050   5.865  10.337 -0.5862 -0.0580  0.1403
  163SOPE   O3218262  -0.007   5.774  10.396 -0.4492  0.0132 -0.4089
  163SOPE   C3218263  -0.002   5.906  10.193  0.0625  0.1547  0.0469
  163SOPE   H2X18264   0.074   5.870  10.119  1.1758  0.6414  0.9302
  163SOPE   H2Y18265  -0.016   6.016  10.195 -0.4131  0.0863  0.7461
  163SOPE   C2318266   0.592   5.815  10.066 -0.1684 -0.0252  0.5001
  163SOPE   H3R18267   0.534   5.759   9.990  0.5547  1.5077 -1.2599
  163SOPE   H3S18268   0.627   5.732  10.131 -0.7009 -1.2017 -0.6814
  163SOPE   C2418269   0.710   5.882   9.990  0.2340  0.2432 -0.3446
  163SOPE   H4R18270   0.754   5.959  10.057 -0.6904  0.0226  0.5303
  163SOPE   H4S18271   0.799   5.817   9.977  0.5030  0.0589  2.0490
  163SOPE   C2518272   0.663   5.938   9.856 -0.7235  0.5276  0.5431
  163SOPE   H5R18273   0.611   5.862   9.793  0.7880  1.0006 -1.4038
  163SOPE   H5S18274   0.594   6.022   9.879 -0.9904  0.4224  0.1578
  163SOPE   C2618275   0.784   5.979   9.766  0.2777  0.2457  0.5688
  163SOPE   H6R18276   0.840   6.063   9.814  0.3899 -0.0033  0.8787
  163SOPE   H6S18277   0.854   5.893   9.768  0.6101  0.4732 -0.5293
  163SOPE   C2718278   0.757   6.025   9.619 -0.3415  0.9530 -0.2961
  163SOPE   H7R18279   0.704   5.943   9.567  0.6106 -0.4064  0.7968
  163SOPE   H7S18280   0.688   6.112   9.624 -2.7108 -0.7785 -1.0672
  163SOPE   C2818281   0.888   6.031   9.536 -0.7213  0.5066  0.1851
  163SOPE   H8R18282   0.860   6.091   9.447 -1.5128  0.6771  0.5414
  163SOPE   H8S18283   0.960   6.089   9.598 -0.1668  0.6601 -0.5904
  163SOPE   C2918284   0.949   5.896   9.489  0.1233 -0.8226 -0.5274
  163SOPE   H9118285   0.950   5.815   9.563 -0.5048  0.3475  0.8104
  163SOPE  C21018286   0.978   5.861   9.363  0.3005 -0.2565 -0.3814
  163SOPE  H10118287   1.022   5.761   9.352 -0.6094 -0.5400 -1.5878
  163SOPE  C21118288   0.961   5.946   9.244 -0.3554  0.2315  0.0762
  163SOPE  H11R18289   0.883   6.024   9.251 -0.0221  0.4173  2.4270
  163SOPE  H11S18290   0.927   5.879   9.163  0.7935  0.1576 -0.3718
  163SOPE  C21218291   1.085   6.029   9.201  0.4096  0.5146 -0.0898
  163SOPE  H12R18292   1.122   6.090   9.285  0.5902  0.8412 -0.4046
  163SOPE  H12S18293   1.069   6.096   9.114  1.3354  0.4423 -0.3184
  163SOPE  C21318294   1.204   5.943   9.160 -0.2018  0.1853  0.0583
  163SOPE  H13R18295   1.164   5.850   9.112 -0.0268 -0.6197  1.4168
  163SOPE  H13S18296   1.246   5.906   9.256 -0.1244  0.5854  0.1770
  163SOPE  C21418297   1.302   6.017   9.065 -0.4134  0.1404 -0.1814
  163SOPE  H14R18298   1.351   6.101   9.118  1.5345 -1.2096  0.2780
  163SOPE  H14S18299   1.258   6.057   8.971  1.3104 -1.6959 -1.8705
  163SOPE  C21518300   1.413   5.918   9.020  0.3557  0.2588  0.2470
  163SOPE  H15R18301   1.360   5.822   8.998 -1.2573  1.6649 -2.6870
  163SOPE  H15S18302   1.489   5.898   9.098 -1.5400 -0.9258  1.9202
  163SOPE  C21618303   1.468   5.956   8.878 -0.1245  0.3572  0.6720
  163SOPE  H16R18304   1.516   6.056   8.885  0.7656  0.1510 -1.4520
  163SOPE  H16S18305   1.385   5.963   8.804  0.1982 -0.7741  0.1881
  163SOPE  C21718306   1.559   5.852   8.817  0.3754  0.5405  0.0692
  163SOPE  H17R18307   1.487   5.772   8.791  0.8394  0.1572 -0.0590
  163SOPE  H17S18308   1.627   5.814   8.896  1.2935  0.5141 -0.7140
  163SOPE  C21818309   1.640   5.890   8.697  0.3073 -0.4577  0.3114
  163SOPE  H18R18310   1.724   5.954   8.730  0.1130  0.6460 -1.2415
  163SOPE  H18S18311   1.588   5.942   8.613 -0.6781  0.6958  1.5954
  163SOPE  H18T18312   1.686   5.798   8.654  2.1484  0.8634 -0.6869
  163SOPE   C3318313  -0.136   5.842  10.161  0.6778  0.1740 -0.2990
  163SOPE   H3X18314  -0.205   5.883  10.237  2.4454  2.9732 -0.0764
  163SOPE   H3Y18315  -0.131   5.731  10.156 -1.4648  0.0433 -0.5298
  163SOPE   C3418316  -0.192   5.869  10.015  0.4731 -0.0308 -0.2527
  163SOPE   H4X18317  -0.193   5.980  10.005  4.1416  0.1731 -0.0476
  163SOPE   H4Y18318  -0.290   5.817  10.013  1.4407 -2.3909  3.3695
  163SOPE   C3518319  -0.091   5.817   9.904 -0.0414 -0.1361 -0.4066
  163SOPE   H5X18320  -0.057   5.717   9.938 -0.6311  0.8929  3.7670
  163SOPE   H5Y18321  -0.004   5.887   9.906 -0.2360  0.0881  1.0141
  163SOPE   C3618322  -0.153   5.814   9.771 -0.2529  0.4215  0.0301
  163SOPE   H6X18323  -0.198   5.911   9.743  1.0514  1.0272 -0.0506
  163SOPE   H6Y18324  -0.231   5.735   9.768 -1.6838  1.0501  6.3460
  163SOPE   C3718325  -0.046   5.800   9.658 -0.2258  0.2743  0.0115
  163SOPE   H7X18326  -0.010   5.695   9.653 -0.4788  0.2283 -1.9631
  163SOPE   H7Y18327   0.046   5.861   9.666  1.6464 -1.9717 -2.4673
  163SOPE   C3818328  -0.101   5.830   9.519 -0.6317 -0.1889  0.5800
  163SOPE   H8X18329  -0.129   5.938   9.517  2.5929  0.7795  1.0903
  163SOPE   H8Y18330  -0.194   5.771   9.505  0.0483 -1.3078  0.6527
  163SOPE   C3918331  -0.005   5.805   9.402  1.0328 -0.8636  0.3685
  163SOPE   H9X18332   0.084   5.749   9.438  1.3040  0.4884  1.9340
  163SOPE   H9Y18333   0.047   5.897   9.368  0.1328 -0.2232  0.6771
  163SOPE  C31018334  -0.059   5.748   9.272  0.2274  0.2297  0.8657
  163SOPE  H10X18335  -0.133   5.817   9.227 -0.7633 -0.7544  0.9354
  163SOPE  H10Y18336  -0.106   5.648   9.287  0.8479  0.3606  4.5041
  163SOPE  C31118337   0.064   5.723   9.176 -0.2164  0.0023  0.4378
  163SOPE  H11X18338   0.040   5.644   9.102  0.8662  0.0043  0.0649
  163SOPE  H11Y18339   0.144   5.680   9.240 -1.1969 -1.0565  0.9824
  163SOPE  C31218340   0.104   5.847   9.097 -0.3300  0.1532 -0.5587
  163SOPE  H12X18341   0.196   5.824   9.039  2.0426 -0.2630  3.0040
  163SOPE  H12Y18342   0.119   5.937   9.161 -0.5670 -0.4478  0.3592
  163SOPE  C31318343   0.006   5.882   8.989  0.0734 -0.3039 -0.2402
  163SOPE  H13X18344  -0.096   5.871   9.033 -0.0252  1.0668 -0.0547
  163SOPE  H13Y18345   0.012   5.810   8.906 -1.2041  0.9845 -1.5004
  163SOPE  C31418346   0.015   6.027   8.930  0.1670  0.4148 -0.9199
  163SOPE  H14X18347   0.123   6.051   8.919  0.3020  0.3625  0.1567
  163SOPE  H14Y18348  -0.029   6.092   9.009  3.9965  1.3550  0.6682
  163SOPE  C31518349  -0.056   6.043   8.797  0.4278 -0.4257  0.1576
  163SOPE  H15X18350  -0.160   6.011   8.820 -0.0258  1.6285  1.2219
  163SOPE  H15Y18351  -0.001   5.989   8.717  2.4527  0.7775  0.6653
  163SOPE  C31618352  -0.065   6.182   8.735  0.4085  0.1890 -0.4992
  163SOPE  H16X18353   0.041   6.216   8.728  0.3083  0.3254 -1.4743
  163SOPE  H16Y18354  -0.127   6.243   8.804 -2.4530 -1.5230 -1.4133
  163SOPE  C31718355  -0.156   6.180   8.610 -0.2278 -0.0885 -0.7707
  163SOPE  H17X18356  -0.261   6.175   8.645 -0.2448 -0.2068 -0.8387
  163SOPE  H17Y18357  -0.133   6.085   8.557 -0.3576 -0.0759 -0.8518
  163SOPE  C31818358  -0.140   6.303   8.514 -0.1567 -0.3154 -0.2238
  163SOPE  H18X18359  -0.215   6.290   8.434  0.3431  2.6275 -1.3089
  163SOPE  H18Y18360  -0.035   6.300   8.477 -0.0817  0.3049 -0.0700
  163SOPE  H18Z18361  -0.156   6.402   8.562 -2.0882 -1.6391  2.0825
  164SOPE     N18362   1.345   3.450  10.660 -0.1463  0.0060  0.2119
  164SOPE   HN118363   1.345   3.378  10.734 -2.8559  0.1181  0.4062
  164SOPE   HN218364   1.244   3.466  10.644 -0.2002 -1.1309 -0.7979
  164SOPE   HN318365   1.388   3.408  10.574  0.8877 -0.0610  0.7452
  164SOPE   C1218366   1.396   3.583  10.695 -0.3605 -0.2231 -0.0081
  164SOPE  H12A18367   1.382   3.655  10.612 -1.2695  1.6341  1.6564
  164SOPE  H12B18368   1.500   3.589  10.734 -0.4239 -0.1039  0.1438
  164SOPE   C1118369   1.312   3.656  10.808 -0.7924  0.5627  0.7551
  164SOPE  H11A18370   1.356   3.758  10.805 -0.5177  0.4448 -1.7462
  164SOPE  H11B18371   1.338   3.613  10.907 -0.8387  0.9156  0.9240
  164SOPE     P18372   1.054   3.667  10.855  0.0735 -0.4478  0.0884
  164SOPE   O1318373   1.040   3.543  10.931 -0.2639  0.4342  0.5923
  164SOPE   O1418374   0.936   3.697  10.770 -0.2718 -0.1880  0.0300
  164SOPE   O1218375   1.176   3.647  10.766  0.5962  0.0261  0.2408
  164SOPE   O1118376   1.091   3.775  10.965  0.2175 -1.1138  0.5060
  164SOPE    C118377   1.162   3.900  10.936 -0.0680 -0.4777  0.7495
  164SOPE    HA18378   1.220   3.907  10.841 -3.4294 -0.4650 -1.4568
  164SOPE    HB18379   1.237   3.920  11.016  0.6955  1.2857 -0.3179
  164SOPE    C218380   1.065   4.027  10.919 -0.3038  0.2277 -0.4251
  164SOPE    HS18381   1.019   4.038  11.019 -1.9225 -2.8694 -0.7121
  164SOPE   O2118382   0.966   3.985  10.822 -0.3707 -0.1094  0.3804
  164SOPE   C2118383   0.850   4.048  10.822  0.3187 -0.0978 -0.5774
  164SOPE   O2218384   0.824   4.130  10.911  0.0583  0.2468  0.3590
  164SOPE   C2218385   0.753   3.989  10.718 -0.3653 -0.5816 -0.8857
  164SOPE   H2R18386   0.676   3.951  10.788  1.0604 -0.4082  0.8447
  164SOPE   H2S18387   0.805   3.902  10.671 -1.4892 -1.3253 -0.7913
  164SOPE    C318388   1.135   4.158  10.875 -0.1964 -0.8012 -0.1746
  164SOPE    HX18389   1.194   4.191  10.963  0.8560 -0.2297 -1.0725
  164SOPE    HY18390   1.065   4.240  10.850  2.1264  0.9599 -1.2415
  164SOPE   O3118391   1.223   4.129  10.765 -0.7186 -0.5753 -0.2234
  164SOPE   C3118392   1.295   4.231  10.724  0.2327 -0.5625 -0.2527
  164SOPE   O3218393   1.291   4.344  10.767  0.3068 -0.0269 -0.0995
  164SOPE   C3218394   1.373   4.198  10.597 -0.3520  0.3137 -0.0704
  164SOPE   H2X18395   1.306   4.165  10.515  0.5861  1.2790 -1.2613
  164SOPE   H2Y18396   1.441   4.112  10.619 -2.2426 -1.1466  0.3505
  164SOPE   C2318397   0.685   4.089  10.627  0.6505 -0.5118  0.3611
  164SOPE   H3R18398   0.769   4.150  10.589 -1.3145  1.2073 -1.5126
  164SOPE   H3S18399   0.623   4.158  10.688 -1.6183 -1.4313 -0.7920
  164SOPE   C2418400   0.599   4.026  10.518 -0.1950 -0.3341 -0.4181
  164SOPE   H4R18401   0.524   3.959  10.565  0.5515 -0.8877  0.0059
  164SOPE   H4S18402   0.545   4.112  10.472  2.0160  1.2163 -0.2971
  164SOPE   C2518403   0.692   3.949  10.420  0.3431 -0.0615 -0.5968
  164SOPE   H5R18404   0.800   3.976  10.425  0.4796 -0.8511  1.1102
  164SOPE   H5S18405   0.676   3.845  10.454 -1.3022  0.2749 -0.2718
  164SOPE   C2618406   0.655   3.964  10.274  0.6372 -0.6041  0.0507
  164SOPE   H6R18407   0.545   3.973  10.260  0.7250  0.1387 -0.2548
  164SOPE   H6S18408   0.690   4.062  10.236  1.7800 -0.9029  0.3166
  164SOPE   C2718409   0.720   3.861  10.177  0.3259  0.2462 -0.3318
  164SOPE   H7R18410   0.806   3.814  10.229 -0.6773 -0.0434  1.1183
  164SOPE   H7S18411   0.662   3.769  10.151  0.7461 -0.6249  1.6707
  164SOPE   C2818412   0.773   3.928  10.049 -0.6696  0.4301 -0.1661
  164SOPE   H8R18413   0.851   4.005  10.070 -0.0113  0.9893 -4.0260
  164SOPE   H8S18414   0.839   3.867   9.984 -0.4414  1.5077 -0.9766
  164SOPE   C2918415   0.652   3.978   9.981  0.7668  0.2547 -0.1199
  164SOPE   H9118416   0.596   4.063  10.022 -1.0792 -0.5163 -0.9360
  164SOPE  C21018417   0.605   3.936   9.858 -0.1197  0.4620 -0.0481
  164SOPE  H10118418   0.523   3.996   9.816 -0.2330  0.8698  0.7390
  164SOPE  C21118419   0.668   3.835   9.764 -0.5600 -0.2686 -0.1835
  164SOPE  H11R18420   0.627   3.739   9.803 -0.7586 -1.0905 -2.2815
  164SOPE  H11S18421   0.778   3.841   9.780 -1.0878  3.3179  3.9253
  164SOPE  C21218422   0.634   3.840   9.615  0.1444  0.3714 -0.8179
  164SOPE  H12R18423   0.524   3.843   9.600  0.0096  0.1902  0.0603
  164SOPE  H12S18424   0.665   3.745   9.567 -0.5735 -1.1971  1.6171
  164SOPE  C21318425   0.708   3.954   9.548 -0.5573 -0.3698 -0.5708
  164SOPE  H13R18426   0.817   3.933   9.540 -0.5710  0.1493 -2.9638
  164SOPE  H13S18427   0.690   4.048   9.605 -1.7936 -2.2458  2.3231
  164SOPE  C21418428   0.645   3.978   9.412  0.1920  0.7101 -0.1788
  164SOPE  H14R18429   0.691   4.068   9.365  0.0556  0.5270 -0.6599
  164SOPE  H14S18430   0.535   3.996   9.417  0.3674  1.7658  0.4716
  164SOPE  C21518431   0.664   3.862   9.317  0.3836 -0.6522  0.3879
  164SOPE  H15R18432   0.610   3.768   9.343  1.5165 -1.0814  1.2437
  164SOPE  H15S18433   0.771   3.834   9.312  0.1401 -1.5733  0.0994
  164SOPE  C21618434   0.624   3.916   9.178  0.7699  0.0651  0.6381
  164SOPE  H16R18435   0.693   3.998   9.150  0.5718 -0.6869 -2.4188
  164SOPE  H16S18436   0.520   3.952   9.164  0.0875 -1.6886  0.9250
  164SOPE  C21718437   0.640   3.817   9.053 -0.4464 -0.1505 -0.5656
  164SOPE  H17R18438   0.582   3.851   8.964 -1.4351 -2.4641 -0.8627
  164SOPE  H17S18439   0.594   3.718   9.075 -0.7148 -0.0886 -0.8296
  164SOPE  C21818440   0.789   3.811   9.000  0.5052  0.5559 -1.0857
  164SOPE  H18R18441   0.825   3.914   8.983 -1.4705  2.0964  2.6905
  164SOPE  H18S18442   0.791   3.742   8.913  2.4659 -1.9837  0.8022
  164SOPE  H18T18443   0.845   3.769   9.087 -0.5610 -1.3278 -1.2618
  164SOPE   C3318444   1.458   4.315  10.529  0.0162  0.8113  0.0509
  164SOPE   H3X18445   1.496   4.367  10.619 -1.5307  0.3621  1.0108
  164SOPE   H3Y18446   1.387   4.387  10.481  1.1034  0.7306 -1.7699
  164SOPE   C3418447   1.565   4.270  10.426  0.2696  0.3225 -0.1054
  164SOPE   H4X18448   1.632   4.195  10.473 -1.1272 -0.5140  0.5998
  164SOPE   H4Y18449   1.620   4.362  10.397  3.6871 -1.5284 -0.0478
  164SOPE   C3518450   1.515   4.205  10.296 -0.3360  0.3074  0.5308
  164SOPE   H5X18451   1.493   4.098  10.314  0.5438  0.1378  0.6258
  164SOPE   H5Y18452   1.598   4.207  10.223 -2.5651 -1.7220 -2.3157
  164SOPE   C3618453   1.400   4.282  10.230 -0.3271  0.4542  0.1032
  164SOPE   H6X18454   1.425   4.391  10.231 -0.2862  0.5970  4.3928
  164SOPE   H6Y18455   1.322   4.275  10.309 -0.3463 -0.8769 -0.0176
  164SOPE   C3718456   1.350   4.233  10.092  0.1926 -0.9746  0.5732
  164SOPE   H7X18457   1.245   4.269  10.085 -0.1476 -2.0926 -0.4307
  164SOPE   H7Y18458   1.338   4.123  10.095 -1.4331 -0.8606 -0.5297
  164SOPE   C3818459   1.450   4.285   9.983 -0.7538 -0.3576 -0.1791
  164SOPE   H8X18460   1.553   4.250  10.006  0.0577  1.3327 -1.0557
  164SOPE   H8Y18461   1.451   4.395   9.973  0.5839 -0.1381  1.8538
  164SOPE   C3918462   1.417   4.242   9.840 -0.2416 -0.0528  0.8318
  164SOPE   H9X18463   1.324   4.298   9.813 -0.6026 -0.3238  1.4876
  164SOPE   H9Y18464   1.380   4.137   9.836 -1.7476  0.4817 -1.2985
  164SOPE  C31018465   1.522   4.267   9.734 -0.3559  0.1802  0.6420
  164SOPE  H10X18466   1.602   4.192   9.748 -0.1641 -0.2125 -1.9420
  164SOPE  H10Y18467   1.578   4.362   9.741 -1.9284  1.3500 -1.3062
  164SOPE  C31118468   1.459   4.257   9.598 -0.2839 -0.3716 -0.0310
  164SOPE  H11X18469   1.367   4.318   9.602  0.0206  0.0220  2.6535
  164SOPE  H11Y18470   1.423   4.157   9.566 -1.5625  0.1599 -0.2898
  164SOPE  C31218471   1.538   4.316   9.477  0.0386  0.2855  0.0894
  164SOPE  H12X18472   1.637   4.265   9.485 -0.4704 -1.3750 -2.8671
  164SOPE  H12Y18473   1.547   4.426   9.493 -0.9273  0.3052  0.5630
  164SOPE  C31318474   1.476   4.299   9.337  0.0658 -0.5407 -0.3818
  164SOPE  H13X18475   1.375   4.345   9.340 -0.0896 -0.6474 -2.4299
  164SOPE  H13Y18476   1.451   4.193   9.313 -0.8358 -0.5477  0.4945
  164SOPE  C31418477   1.569   4.365   9.230  0.3604  0.0878 -0.1390
  164SOPE  H14X18478   1.668   4.317   9.244 -0.1977 -0.8046  0.9303
  164SOPE  H14Y18479   1.588   4.469   9.264  1.6196 -0.1023 -0.2246
  164SOPE  C31518480   1.537   4.349   9.087 -0.1843  0.2429 -0.1200
  164SOPE  H15X18481   1.493   4.248   9.069 -0.6136  0.0459  1.7900
  164SOPE  H15Y18482   1.628   4.343   9.025  0.6693  0.4975  1.0787
  164SOPE  C31618483   1.426   4.448   9.036  0.0331  0.3465  0.0278
  164SOPE  H16X18484   1.461   4.552   9.055  0.4092  0.0613  0.9910
  164SOPE  H16Y18485   1.337   4.435   9.102  0.6370 -2.4371  0.4375
  164SOPE  C31718486   1.387   4.442   8.890  0.2895 -0.1008  0.0222
  164SOPE  H17X18487   1.357   4.335   8.884  1.0232 -0.3019 -0.3250
  164SOPE  H17Y18488   1.470   4.456   8.816  2.0186 -2.3713  1.3884
  164SOPE  C31818489   1.267   4.541   8.851 -0.1446  0.3117 -1.2390
  164SOPE  H18X18490   1.227   4.506   8.753  1.3956 -0.3022 -1.6694
  164SOPE  H18Y18491   1.297   4.647   8.846  1.7574 -0.0684  0.7653
  164SOPE  H18Z18492   1.184   4.519   8.922  0.5080 -1.2422 -0.9118
  165SOPE     N18493   0.736   4.383  11.005  0.4187  0.7903 -0.5946
  165SOPE   HN118494   0.765   4.283  10.999 -1.1714  0.0667  2.0795
  165SOPE   HN218495   0.813   4.453  11.009  0.4372  0.7160  0.6955
  165SOPE   HN318496   0.710   4.398  11.105  0.6178 -1.7312 -0.1088
  165SOPE   C1218497   0.633   4.427  10.900 -0.6446  0.1104 -0.1508
  165SOPE  H12A18498   0.537   4.424  10.957 -0.1063  0.8987  0.8296
  165SOPE  H12B18499   0.643   4.353  10.818  1.5564 -1.0411  1.0469
  165SOPE   C1118500   0.674   4.564  10.834 -0.3456 -0.4505 -0.4547
  165SOPE  H11A18501   0.594   4.577  10.758 -0.9985 -0.1249  0.2625
  165SOPE  H11B18502   0.774   4.552  10.787 -0.9775 -0.5593 -1.8183
  165SOPE     P18503   0.572   4.785  10.917  0.1672  0.1118 -0.6547
  165SOPE   O1318504   0.595   4.888  11.018  0.3658  0.1173 -0.0120
  165SOPE   O1418505   0.433   4.729  10.923 -0.0142  0.4402 -0.2114
  165SOPE   O1218506   0.675   4.670  10.933 -0.5536  0.1127  0.4364
  165SOPE   O1118507   0.586   4.841  10.776 -0.4700 -0.2542  0.0750
  165SOPE    C118508   0.703   4.868  10.709  0.5897  0.2793  0.1663
  165SOPE    HA18509   0.791   4.804  10.732  3.0935  4.0865  2.3052
  165SOPE    HB18510   0.733   4.974  10.725  0.1498  0.1755  1.7333
  165SOPE    C218511   0.691   4.845  10.550  0.7962  0.2138  0.7167
  165SOPE    HS18512   0.603   4.896  10.505  1.6021  0.3116 -0.8305
  165SOPE   O2118513   0.685   4.706  10.515 -0.3635 -0.4947  0.0765
  165SOPE   C2118514   0.571   4.661  10.485  0.5807  1.8262  0.1740
  165SOPE   O2218515   0.463   4.708  10.474 -0.2102 -0.4413  0.8147
  165SOPE   C2218516   0.587   4.509  10.449  0.4468  0.2460  0.0242
  165SOPE   H2R18517   0.623   4.457  10.540 -1.8782 -0.8840  0.3743
  165SOPE   H2S18518   0.657   4.511  10.362  1.2020 -0.5658  0.6001
  165SOPE    C318519   0.817   4.901  10.475  0.2117 -0.5343 -0.1041
  165SOPE    HX18520   0.908   4.841  10.498  0.8919  1.3310  2.6070
  165SOPE    HY18521   0.841   4.996  10.526  0.9577  0.3858 -2.0832
  165SOPE   O3118522   0.789   4.922  10.337  0.7463  0.3331  0.2640
  165SOPE   C3118523   0.814   4.825  10.248  0.3071  0.1005  0.6053
  165SOPE   O3218524   0.867   4.720  10.275 -0.1412  0.2210  0.1742
  165SOPE   C3218525   0.751   4.861  10.109  0.0939  0.4354  0.2600
  165SOPE   H2X18526   0.784   4.965  10.090  2.9535 -0.6661 -1.3916
  165SOPE   H2Y18527   0.640   4.857  10.115 -0.2173 -1.5416 -3.7779
  165SOPE   C2318528   0.456   4.443  10.407 -0.4663 -0.2641  0.6097
  165SOPE   H3R18529   0.369   4.495  10.452 -1.1867 -0.7973 -0.1336
  165SOPE   H3S18530   0.452   4.345  10.459  0.0570 -0.7172 -0.1648
  165SOPE   C2418531   0.445   4.437  10.256 -0.3383 -0.4026  0.3777
  165SOPE   H4R18532   0.357   4.374  10.233 -0.2146  0.0667 -1.5829
  165SOPE   H4S18533   0.422   4.542  10.225 -0.9746 -1.0308 -1.4196
  165SOPE   C2518534   0.567   4.376  10.179  0.1089 -0.2130  0.1127
  165SOPE   H5R18535   0.651   4.448  10.167 -1.0590  1.3385  0.8689
  165SOPE   H5S18536   0.605   4.292  10.242  1.7106  0.3182 -0.1033
  165SOPE   C2618537   0.544   4.329  10.035 -0.2358  0.1178 -0.2235
  165SOPE   H6R18538   0.637   4.282   9.997 -0.3291  0.9202 -1.5252
  165SOPE   H6S18539   0.460   4.256  10.028  0.7304 -1.1356  0.8167
  165SOPE   C2718540   0.517   4.448   9.949  0.3606 -0.2570  0.1148
  165SOPE   H7R18541   0.435   4.500  10.002  0.3014 -1.5199  1.3266
  165SOPE   H7S18542   0.599   4.522   9.953  1.5298 -1.3020 -2.2567
  165SOPE   C2818543   0.486   4.418   9.793 -0.1767  0.8483  0.1673
  165SOPE   H8R18544   0.411   4.337   9.785  1.4430 -0.5812 -1.7204
  165SOPE   H8S18545   0.453   4.509   9.739  2.1921  0.6009 -1.8753
  165SOPE   C2918546   0.602   4.349   9.723 -0.2305 -0.2138 -0.4540
  165SOPE   H9118547   0.674   4.310   9.797 -1.9187 -1.7882  0.4095
  165SOPE  C21018548   0.638   4.358   9.598 -0.4619  0.1395 -0.0750
  165SOPE  H10118549   0.731   4.314   9.560 -0.4652 -0.1228  0.2181
  165SOPE  C21118550   0.567   4.443   9.495  0.1889  0.2795  0.2408
  165SOPE  H11R18551   0.635   4.515   9.444  1.9612 -1.1974  0.3812
  165SOPE  H11S18552   0.488   4.502   9.545 -2.1619 -1.7403 -0.8609
  165SOPE  C21218553   0.495   4.343   9.394 -0.0486 -0.4043 -0.2240
  165SOPE  H12R18554   0.425   4.267   9.438  0.4200 -0.7266 -0.0235
  165SOPE  H12S18555   0.576   4.278   9.354  1.1126  0.7413  0.2266
  165SOPE  C21318556   0.412   4.405   9.280 -0.7348 -0.0232 -0.3985
  165SOPE  H13R18557   0.336   4.469   9.332 -1.3793 -1.7910  0.9406
  165SOPE  H13S18558   0.372   4.320   9.220  1.6845 -2.3312  1.0792
  165SOPE  C21418559   0.504   4.485   9.183  0.7755  0.0783  0.9027
  165SOPE  H14R18560   0.592   4.427   9.147  0.8113  1.3858 -1.3114
  165SOPE  H14S18561   0.542   4.567   9.246 -0.0861  1.5029 -0.3600
  165SOPE  C21518562   0.427   4.532   9.059 -0.0361 -0.0941  0.7155
  165SOPE  H15R18563   0.352   4.601   9.102 -2.9999 -2.0519 -0.9326
  165SOPE  H15S18564   0.362   4.458   9.006  0.2160  0.9761 -1.1969
  165SOPE  C21618565   0.538   4.593   8.968  0.0229 -0.3186  0.0523
  165SOPE  H16R18566   0.605   4.514   8.930  0.5441  0.7476 -1.3567
  165SOPE  H16S18567   0.591   4.676   9.020  2.5868 -0.3907 -2.2442
  165SOPE  C21718568   0.469   4.659   8.846 -0.1592 -0.0769 -0.1755
  165SOPE  H17R18569   0.548   4.714   8.791  2.2314 -1.6523  1.4695
  165SOPE  H17S18570   0.387   4.729   8.872 -1.6747 -2.0359  0.6074
  165SOPE  C21818571   0.394   4.560   8.747  0.0231 -0.1603  0.4809
  165SOPE  H18R18572   0.468   4.503   8.686  0.3554  1.6569 -0.8920
  165SOPE  H18S18573   0.342   4.611   8.664  1.7137  1.6207  0.4369
  165SOPE  H18T18574   0.323   4.501   8.809  0.0705  0.2625  0.9479
  165SOPE   C3318575   0.805   4.770   9.998 -0.4137  0.0982  0.2914
  165SOPE   H3X18576   0.770   4.665  10.011  0.3406 -0.0259  1.5735
  165SOPE   H3Y18577   0.916   4.765   9.997 -0.4319 -0.4508 -1.2684
  165SOPE   C3418578   0.765   4.814   9.856 -0.5347 -0.4355 -0.5821
  165SOPE   H4X18579   0.803   4.918   9.843 -0.9224 -0.3051 -0.6946
  165SOPE   H4Y18580   0.654   4.813   9.845 -0.6430 -1.0479  0.4117
  165SOPE   C3518581   0.826   4.732   9.745 -0.6125  0.4012  0.5959
  165SOPE   H5X18582   0.799   4.625   9.749  2.1118 -0.3388  3.4167
  165SOPE   H5Y18583   0.937   4.735   9.754 -0.6627  1.3150  1.1445
  165SOPE   C3618584   0.799   4.795   9.607  0.2434  0.0607 -0.3924
  165SOPE   H6X18585   0.833   4.901   9.594 -1.4470  0.5899 -0.6782
  165SOPE   H6Y18586   0.689   4.792   9.594  0.0235 -1.6285  1.4182
  165SOPE   C3718587   0.854   4.720   9.481  0.2755 -0.6512  0.8398
  165SOPE   H7X18588   0.782   4.641   9.451 -0.6357  1.0526 -1.8239
  165SOPE   H7Y18589   0.952   4.668   9.492  0.8874  0.0502 -0.9873
  165SOPE   C3818590   0.852   4.813   9.354  0.2289 -0.1830  0.1447
  165SOPE   H8X18591   0.904   4.905   9.386 -1.9563  1.6567 -1.2707
  165SOPE   H8Y18592   0.752   4.857   9.335  0.6341  1.6074  1.8886
  165SOPE   C3918593   0.907   4.743   9.230  0.1243  0.0239 -0.0518
  165SOPE   H9X18594   0.846   4.651   9.214 -0.1965  0.3539 -0.7610
  165SOPE   H9Y18595   1.011   4.704   9.235 -0.2395 -1.0483 -0.4734
  165SOPE  C31018596   0.911   4.833   9.101  0.4369 -0.9083 -0.0787
  165SOPE  H10X18597   0.971   4.924   9.122  1.7991 -1.7322 -0.3112
  165SOPE  H10Y18598   0.810   4.870   9.073  0.6543  0.8162  1.2205
  165SOPE  C31118599   0.965   4.756   8.978 -0.6616  0.5537 -0.2303
  165SOPE  H11X18600   0.912   4.659   8.963  0.9776 -0.5308  0.7373
  165SOPE  H11Y18601   1.073   4.745   8.999 -0.5393 -1.6596 -1.5977
  165SOPE  C31218602   0.954   4.841   8.844  0.1548 -0.0023  0.4290
  165SOPE  H12X18603   0.995   4.944   8.855  1.4429 -0.1991 -1.9704
  165SOPE  H12Y18604   0.851   4.864   8.809  0.6077  0.3128 -0.7257
  165SOPE  C31318605   1.034   4.771   8.734  0.1264  0.4299  0.2075
  165SOPE  H13X18606   1.024   4.661   8.748 -0.4518  0.3611 -0.6444
  165SOPE  H13Y18607   1.143   4.790   8.751  0.5351 -0.1942 -1.4686
  165SOPE  C31418608   0.996   4.804   8.589 -0.6752  0.2878 -0.2884
  165SOPE  H14X18609   0.889   4.781   8.572 -0.1029 -1.4907 -1.9033
  165SOPE  H14Y18610   1.067   4.755   8.519 -1.2491 -0.0292 -0.6514
  165SOPE  C31518611   1.000   4.957   8.574 -0.2583 -0.2348  0.6314
  165SOPE  H15X18612   0.947   5.011   8.656 -0.9791  0.1726 -0.0968
  165SOPE  H15Y18613   0.946   4.978   8.479  2.9269  0.5703 -1.1466
  165SOPE  C31618614   1.133   5.018   8.542  0.2283  0.1104 -0.4514
  165SOPE  H16X18615   1.165   4.959   8.454 -0.3221 -1.1574  0.1652
  165SOPE  H16Y18616   1.205   5.005   8.626 -0.5738  0.0105  0.2390
  165SOPE  C31718617   1.126   5.161   8.498  0.3270 -0.3747 -0.5325
  165SOPE  H17X18618   1.069   5.211   8.580 -1.2908 -1.7121 -0.7943
  165SOPE  H17Y18619   1.069   5.160   8.403 -2.2288 -1.5883  0.9026
  165SOPE  C31818620   1.261   5.227   8.474  0.3318 -0.0094 -0.4193
  165SOPE  H18X18621   1.259   5.335   8.451  2.4135  0.4606  1.2520
  165SOPE  H18Y18622   1.322   5.165   8.406  1.2163 -1.3719  1.5221
  165SOPE  H18Z18623   1.310   5.221   8.574 -1.5641 -0.7304  0.5182
  166SOPE     N18624   4.345   3.652  10.628 -0.4789  0.2893 -0.5747
  166SOPE   HN118625   4.395   3.743  10.617  0.1345 -0.0827 -0.9153
  166SOPE   HN218626   4.376   3.595  10.710  1.9604  1.7474 -0.3694
  166SOPE   HN318627   4.353   3.598  10.539 -0.5865 -0.1921 -0.2972
  166SOPE   C1218628   4.199   3.687  10.654  0.0922  1.1150  0.3031
  166SOPE  H12A18629   4.144   3.591  10.665  0.8578  0.5404 -0.6914
  166SOPE  H12B18630   4.149   3.717  10.559 -0.6572  1.5417  0.8170
  166SOPE   C1118631   4.173   3.784  10.775  0.3595  1.0857  0.0621
  166SOPE  H11A18632   4.188   3.722  10.866  0.0988 -0.0305 -0.6316
  166SOPE  H11B18633   4.063   3.797  10.782 -0.2941 -2.9607  0.1664
  166SOPE     P18634   4.220   4.017  10.873 -0.2359  0.0598 -0.0081
  166SOPE   O1318635   4.309   4.000  10.989  0.6340  0.0732  0.8423
  166SOPE   O1418636   4.073   4.026  10.880  0.2979  0.4498 -0.2967
  166SOPE   O1218637   4.257   3.904  10.768 -0.1123  0.3737 -0.0863
  166SOPE   O1118638   4.266   4.144  10.797 -0.0286 -0.8643  0.4189
  166SOPE    C118639   4.230   4.166  10.658  0.0005  0.4431  0.2183
  166SOPE    HA18640   4.148   4.098  10.627  0.8595 -0.6278  0.2407
  166SOPE    HB18641   4.313   4.132  10.593 -0.0696 -0.1039  0.4106
  166SOPE    C218642   4.193   4.315  10.629  0.3342  0.7019  0.2505
  166SOPE    HS18643   4.144   4.317  10.529  1.3201 -0.0543 -0.2679
  166SOPE   O2118644   4.319   4.392  10.628  0.3449 -0.0588  0.1170
  166SOPE   C2118645   4.398   4.380  10.519  0.1052  0.3642  0.1716
  166SOPE   O2218646   4.362   4.313  10.423 -0.1425 -0.1895  0.6354
  166SOPE   C2218647   4.526   4.451  10.530 -0.5256 -0.4615 -0.2419
  166SOPE   H2R18648   4.609   4.380  10.554 -0.0453  0.1922  0.0695
  166SOPE   H2S18649   4.519   4.523  10.614 -0.6254  0.4129 -0.9844
  166SOPE    C318650   4.089   4.361  10.727  0.1628 -0.4233 -0.6095
  166SOPE    HX18651   4.121   4.361  10.834 -1.4645 -1.1582 -0.0899
  166SOPE    HY18652   4.004   4.291  10.738 -2.4631  2.7969  1.6830
  166SOPE   O3118653   4.021   4.490  10.692 -0.6404  0.8292 -0.4569
  166SOPE   C3118654   4.075   4.602  10.745  0.2268  0.3215  0.0362
  166SOPE   O3218655   4.160   4.604  10.833 -0.0593 -0.0823  0.0112
  166SOPE   C3218656   4.018   4.734  10.673  0.4360  0.1243  0.8646
  166SOPE   H2X18657   4.020   4.807  10.756  0.6936  1.4299 -0.2510
  166SOPE   H2Y18658   3.918   4.694  10.646  0.7518 -0.7400  0.9454
  166SOPE   C2318659   4.559   4.536  10.402 -0.1360 -0.0680  0.9006
  166SOPE   H3R18660   4.630   4.620  10.419  0.8758  0.2475 -3.6068
  166SOPE   H3S18661   4.464   4.582  10.367  0.4434 -0.3628 -1.2296
  166SOPE   C2418662   4.619   4.457  10.280 -0.0978 -0.2278 -0.5704
  166SOPE   H4R18663   4.708   4.396  10.303 -0.2241  0.0393  0.6859
  166SOPE   H4S18664   4.545   4.382  10.246 -0.4614 -0.5614  0.9095
  166SOPE   C2518665   4.646   4.542  10.162 -0.1138 -1.3793  0.1232
  166SOPE   H5R18666   4.556   4.596  10.127  1.1304 -0.1173 -1.2312
  166SOPE   H5S18667   4.719   4.619  10.194 -0.3956 -1.1176  0.1400
  166SOPE   C2618668   4.713   4.455  10.055  0.6900  0.5196  0.0973
  166SOPE   H6R18669   4.799   4.416  10.113  0.9538  0.6342 -0.2111
  166SOPE   H6S18670   4.640   4.373  10.038  0.3545  0.5511  1.2868
  166SOPE   C2718671   4.743   4.537   9.934 -0.0669 -0.8282  0.8488
  166SOPE   H7R18672   4.661   4.608   9.909  1.5587  0.8156 -0.0744
  166SOPE   H7S18673   4.828   4.606   9.956  0.0280 -0.6135 -0.1294
  166SOPE   C2818674   4.789   4.457   9.812  0.4493 -0.0964 -0.1570
  166SOPE   H8R18675   4.865   4.383   9.844  0.3812 -0.3903 -0.6561
  166SOPE   H8S18676   4.706   4.393   9.775  1.0213 -1.3641  0.7036
  166SOPE   C2918677   4.851   4.536   9.699 -0.2040 -0.4669 -0.0739
  166SOPE   H9118678   4.912   4.622   9.730 -0.9475 -0.4718  1.4687
  166SOPE  C21018679   4.841   4.509   9.569 -0.3632 -0.2571 -0.5582
  166SOPE  H10118680   4.883   4.580   9.497 -0.7103  2.2056  1.5053
  166SOPE  C21118681   4.770   4.398   9.517  1.0480 -0.4158  0.4912
  166SOPE  H11R18682   4.680   4.443   9.470  1.9347  2.1225  1.0659
  166SOPE  H11S18683   4.737   4.322   9.591  1.4511  0.1479  1.2755
  166SOPE  C21218684   4.851   4.326   9.404 -0.3011  0.1908 -0.2511
  166SOPE  H12R18685   4.793   4.235   9.378  0.0074 -0.3223  0.8436
  166SOPE  H12S18686   4.947   4.290   9.444 -0.8758  1.5138  2.5538
  166SOPE  C21318687   4.866   4.416   9.277  0.1103  0.3864 -0.5870
  166SOPE  H13R18688   4.924   4.504   9.313  0.1023 -0.3659  1.4056
  166SOPE  H13S18689   4.767   4.451   9.242 -0.0118  0.6989  0.0551
  166SOPE  C21418690   4.937   4.340   9.171  0.1745  0.2534  0.6647
  166SOPE  H14R18691   4.883   4.246   9.148  1.3116  0.2193 -2.2912
  166SOPE  H14S18692   5.036   4.305   9.204 -0.6335 -1.1499  1.6936
  166SOPE  C21518693   4.931   4.414   9.037 -0.5482 -0.9535  0.5386
  166SOPE  H15R18694   5.004   4.497   9.040  0.6567 -1.9233 -0.4924
  166SOPE  H15S18695   4.826   4.449   9.030 -0.2202  0.6536  2.8365
  166SOPE  C21618696   4.969   4.318   8.921 -0.3981  0.0663  0.3271
  166SOPE  H16R18697   4.902   4.230   8.913 -1.4373  0.6622  1.9336
  166SOPE  H16S18698   5.069   4.280   8.952 -0.4029 -0.2327 -0.0237
  166SOPE  C21718699   4.982   4.386   8.784  0.4079  0.0257 -0.2173
  166SOPE  H17R18700   5.032   4.318   8.711 -1.7180 -3.4132  1.2681
  166SOPE  H17S18701   5.035   4.483   8.788  2.9900 -1.2909  0.0870
  166SOPE  C21818702   4.840   4.413   8.739  0.4225 -0.0014 -0.2227
  166SOPE  H18R18703   4.768   4.329   8.740 -1.2756  1.1195  4.8119
  166SOPE  H18S18704   4.836   4.466   8.642 -2.3356 -1.4784 -1.0001
  166SOPE  H18T18705   4.802   4.489   8.812  0.5566 -1.7856  1.8180
  166SOPE   C3318706   4.110   4.781  10.555  0.5940  0.2741  0.2421
  166SOPE   H3X18707   4.205   4.825  10.593  1.0726 -0.1261 -0.4700
  166SOPE   H3Y18708   4.045   4.861  10.515  1.7943  0.0814 -2.3038
  166SOPE   C3418709   4.136   4.672  10.454  0.2488 -0.7926  0.6103
  166SOPE   H4X18710   4.058   4.599  10.424 -0.6753  0.4938 -0.2754
  166SOPE   H4Y18711   4.226   4.608  10.464 -0.0545 -2.1932 -3.5700
  166SOPE   C3518712   4.173   4.741  10.320 -0.2890  0.4670  0.3302
  166SOPE   H5X18713   4.260   4.808  10.333 -0.3363 -0.0309  4.5400
  166SOPE   H5Y18714   4.091   4.800  10.273  0.6566  0.9161 -0.8048
  166SOPE   C3618715   4.208   4.630  10.210  0.0315  0.7347 -0.0855
  166SOPE   H6X18716   4.110   4.585  10.186  1.8178 -1.6053 -3.9419
  166SOPE   H6Y18717   4.278   4.551  10.246 -1.2766  0.2483  1.5292
  166SOPE   C3718718   4.256   4.687  10.076  0.1872  0.5809  0.5942
  166SOPE   H7X18719   4.352   4.736  10.103 -0.5528  0.6711  3.3985
  166SOPE   H7Y18720   4.182   4.747  10.018  1.6284  0.6739 -1.2444
  166SOPE   C3818721   4.289   4.576   9.984  0.3543 -0.6044  0.6328
  166SOPE   H8X18722   4.193   4.529   9.952 -0.5274  1.4424  0.1053
  166SOPE   H8Y18723   4.359   4.500  10.026  1.5423  0.1523  0.0722
  166SOPE   C3918724   4.348   4.631   9.854  0.2192  0.2560 -0.6243
  166SOPE   H9X18725   4.433   4.696   9.884 -0.1126  0.8437 -0.9319
  166SOPE   H9Y18726   4.276   4.702   9.809 -1.4778 -0.0970  1.3774
  166SOPE  C31018727   4.384   4.511   9.764 -0.2713  0.1993 -0.8172
  166SOPE  H10X18728   4.302   4.437   9.774 -0.7905  0.8973  0.3580
  166SOPE  H10Y18729   4.476   4.462   9.802 -0.7986  1.6371  2.7714
  166SOPE  C31118730   4.416   4.552   9.619  0.4797  0.4663  0.1127
  166SOPE  H11X18731   4.318   4.596   9.588 -0.5779 -0.7470  1.6072
  166SOPE  H11Y18732   4.457   4.467   9.560  0.1756  1.2550 -1.2968
  166SOPE  C31218733   4.514   4.671   9.615  1.2138 -0.2626 -0.0778
  166SOPE  H12X18734   4.600   4.644   9.680  0.2073 -1.7227  0.7057
  166SOPE  H12Y18735   4.457   4.761   9.646  0.9294  0.1758 -1.7558
  166SOPE  C31318736   4.576   4.701   9.476 -0.4740 -0.5988 -0.1402
  166SOPE  H13X18737   4.599   4.608   9.422  4.2441 -0.7029  1.5850
  166SOPE  H13Y18738   4.676   4.748   9.489 -0.6537 -0.2654  0.0601
  166SOPE  C31418739   4.492   4.799   9.386 -0.0331 -0.1979  0.0636
  166SOPE  H14X18740   4.524   4.903   9.411  0.1476 -0.4010  0.6906
  166SOPE  H14Y18741   4.385   4.789   9.412 -0.4951  1.9641 -0.7823
  166SOPE  C31518742   4.515   4.756   9.239  0.3761 -0.6121  0.0141
  166SOPE  H15X18743   4.483   4.650   9.241 -2.1776  0.1117  1.2346
  166SOPE  H15Y18744   4.625   4.759   9.225  0.2844 -3.5040 -2.3017
  166SOPE  C31618745   4.454   4.840   9.128  0.2701  0.0328  0.0309
  166SOPE  H16X18746   4.474   4.948   9.147 -0.8446  0.0031  1.6248
  166SOPE  H16Y18747   4.344   4.829   9.141  0.6303 -2.8177  1.2848
  166SOPE  C31718748   4.496   4.809   8.985 -0.1696 -0.0850 -0.0384
  166SOPE  H17X18749   4.456   4.712   8.947  0.1788 -0.6877  1.0864
  166SOPE  H17Y18750   4.607   4.805   8.981  0.0666  2.0803  2.1677
  166SOPE  C31818751   4.451   4.924   8.886 -0.4445 -0.2825 -0.1516
  166SOPE  H18X18752   4.343   4.945   8.896 -0.0743  2.3247 -0.8218
  166SOPE  H18Y18753   4.469   4.893   8.781 -0.4367 -0.8663  0.0230
  166SOPE  H18Z18754   4.507   5.019   8.904 -2.0167  0.5224  0.6723
  167SOPE     N18755   5.659   4.521   6.192 -0.8136  0.6790 -0.3708
  167SOPE   HN118756   5.629   4.473   6.105  1.4814  0.2276 -0.9761
  167SOPE   HN218757   5.576   4.538   6.252  0.8866  0.6282  2.1722
  167SOPE   HN318758   5.701   4.616   6.184  0.7814 -0.0995 -1.9262
  167SOPE   C1218759   5.751   4.432   6.274 -0.1491  0.9291 -0.3217
  167SOPE  H12A18760   5.816   4.495   6.338  2.4459 -2.5497  0.7429
  167SOPE  H12B18761   5.809   4.377   6.198  2.6773  2.3722  0.6610
  167SOPE   C1118762   5.657   4.335   6.351 -0.6589  0.4184 -0.4329
  167SOPE  H11A18763   5.606   4.386   6.436  0.9359  0.4014  0.5866
  167SOPE  H11B18764   5.716   4.251   6.395 -2.4558 -0.2420  0.8157
  167SOPE     P18765   5.505   4.134   6.287 -0.3644 -0.0870  0.0119
  167SOPE   O1318766   5.610   4.035   6.269  0.9102  0.1952 -0.1923
  167SOPE   O1418767   5.390   4.126   6.198  0.1871 -0.3759  0.5335
  167SOPE   O1218768   5.557   4.278   6.269  0.0832  0.6197 -0.1293
  167SOPE   O1118769   5.455   4.134   6.438 -0.9208  0.9214  0.7387
  167SOPE    C118770   5.335   4.199   6.468  0.7104 -0.5651  0.2295
  167SOPE    HA18771   5.248   4.130   6.472 -1.2580  1.6531 -1.4033
  167SOPE    HB18772   5.303   4.283   6.402  1.8112 -2.1759 -2.4841
  167SOPE    C218773   5.328   4.247   6.622  0.5332 -0.0900 -0.3201
  167SOPE    HS18774   5.399   4.331   6.638  0.7458 -0.3388  0.0699
  167SOPE   O2118775   5.353   4.136   6.717 -0.2294 -0.0111 -0.2934
  167SOPE   C2118776   5.414   4.165   6.837 -0.3248  0.3585  0.3575
  167SOPE   O2218777   5.447   4.276   6.871  0.2941  0.3298  0.2378
  167SOPE   C2218778   5.455   4.034   6.902 -0.1675 -0.4917 -0.3101
  167SOPE   H2R18779   5.509   3.978   6.823 -0.6579 -0.2693 -0.8070
  167SOPE   H2S18780   5.361   3.976   6.913 -1.9030  1.9536 -1.4917
  167SOPE    C318781   5.173   4.296   6.650 -0.4664  0.1386 -0.3109
  167SOPE    HX18782   5.110   4.205   6.641 -1.8902  1.0718 -0.0458
  167SOPE    HY18783   5.149   4.366   6.567  1.2219 -0.1465 -1.0971
  167SOPE   O3118784   5.150   4.353   6.783  0.1736  0.0798 -0.4532
  167SOPE   C3118785   5.212   4.466   6.806  0.2163  0.3453  0.4718
  167SOPE   O3218786   5.255   4.540   6.719 -0.1978 -0.9267  0.3542
  167SOPE   C3218787   5.225   4.476   6.958 -0.5161  0.0725 -0.1453
  167SOPE   H2X18788   5.333   4.496   6.974 -0.4576  0.5863 -1.0891
  167SOPE   H2Y18789   5.201   4.376   7.000  0.3830 -0.7491 -1.5260
  167SOPE   C2318790   5.531   4.051   7.032 -0.6330  0.0027  0.1932
  167SOPE   H3R18791   5.627   4.103   7.015 -0.3479 -1.2405 -2.4888
  167SOPE   H3S18792   5.559   3.952   7.075  1.1051  0.6155  0.5383
  167SOPE   C2418793   5.457   4.124   7.147  0.1737  0.3174 -0.1757
  167SOPE   H4R18794   5.397   4.210   7.109 -0.8270  0.1727  1.0274
  167SOPE   H4S18795   5.378   4.055   7.185 -0.7864  1.5115  0.0708
  167SOPE   C2518796   5.551   4.175   7.258  0.4126  0.0723 -0.3068
  167SOPE   H5R18797   5.585   4.085   7.314 -0.2044  1.4106  2.3698
  167SOPE   H5S18798   5.645   4.212   7.211  0.0323  0.3539 -0.8624
  167SOPE   C2618799   5.478   4.267   7.364  0.1570  0.0232  0.4580
  167SOPE   H6R18800   5.452   4.361   7.311  2.4817 -0.1215 -1.0635
  167SOPE   H6S18801   5.387   4.218   7.404  0.8427 -1.4931  0.2159
  167SOPE   C2718802   5.567   4.307   7.491  0.4774  0.5564 -0.0596
  167SOPE   H7R18803   5.571   4.225   7.566 -1.5661  2.2829  2.0999
  167SOPE   H7S18804   5.674   4.319   7.463  0.1704  0.9137 -1.1354
  167SOPE   C2818805   5.514   4.431   7.562  0.5094 -0.3432 -0.3499
  167SOPE   H8R18806   5.589   4.478   7.629 -1.7195  0.8300  1.5128
  167SOPE   H8S18807   5.493   4.508   7.485  0.5610  0.1020  0.0740
  167SOPE   C2918808   5.397   4.400   7.653  0.1661 -0.2114  0.0267
  167SOPE   H9118809   5.305   4.365   7.605 -0.6305 -0.3531  1.5977
  167SOPE  C21018810   5.395   4.422   7.787  1.0193  0.2964  0.3498
  167SOPE  H10118811   5.300   4.405   7.839  0.6372  0.0786 -0.4200
  167SOPE  C21118812   5.499   4.461   7.887  0.4460 -0.5232  0.7986
  167SOPE  H11R18813   5.511   4.571   7.900  0.7120 -0.2293 -1.4418
  167SOPE  H11S18814   5.601   4.432   7.853  0.0651 -1.2606  0.2591
  167SOPE  C21218815   5.482   4.390   8.023  0.2669 -0.5416 -0.1706
  167SOPE  H12R18816   5.489   4.281   8.002 -0.1051 -0.6767  0.3918
  167SOPE  H12S18817   5.378   4.412   8.056 -1.0765  0.3085 -4.3758
  167SOPE  C21318818   5.580   4.433   8.138 -0.2174  0.2666 -0.2924
  167SOPE  H13R18819   5.588   4.543   8.130  2.6961  0.0731 -1.2986
  167SOPE  H13S18820   5.682   4.395   8.116 -0.9716 -2.6493  0.7654
  167SOPE  C21418821   5.536   4.384   8.277  0.4739  0.4549 -0.1049
  167SOPE  H14R18822   5.539   4.273   8.270 -0.6266  0.4945 -2.4351
  167SOPE  H14S18823   5.431   4.418   8.295 -0.7006 -2.6890 -0.3438
  167SOPE  C21518824   5.615   4.448   8.390  0.1185  0.0423  0.2545
  167SOPE  H15R18825   5.556   4.421   8.480  1.2452  1.0257  1.3258
  167SOPE  H15S18826   5.625   4.559   8.397  2.6290  0.1011 -2.4356
  167SOPE  C21618827   5.757   4.388   8.397 -0.1859  0.1910  0.3001
  167SOPE  H16R18828   5.813   4.419   8.305  1.4314 -0.5205  1.0051
  167SOPE  H16S18829   5.752   4.278   8.409  0.5968 -0.0992 -1.6107
  167SOPE  C21718830   5.846   4.435   8.513 -0.5089  0.2068 -0.7925
  167SOPE  H17R18831   5.860   4.544   8.499 -0.4834  0.2124 -0.7254
  167SOPE  H17S18832   5.949   4.396   8.499  0.5728  1.9850  1.4423
  167SOPE  C21818833   5.800   4.413   8.656 -0.0542 -0.3849  0.3150
  167SOPE  H18R18834   5.753   4.313   8.654 -1.0990  0.0975 -1.0081
  167SOPE  H18S18835   5.720   4.488   8.673  1.0492  0.8518  0.2192
  167SOPE  H18T18836   5.883   4.420   8.730 -0.1949 -0.8486  0.5208
  167SOPE   C3318837   5.133   4.568   7.033 -0.4014 -0.5155 -0.3650
  167SOPE   H3X18838   5.025   4.555   7.014 -1.9173  5.1354  2.1993
  167SOPE   H3Y18839   5.146   4.678   7.024 -1.6825 -0.3624 -0.4322
  167SOPE   C3418840   5.163   4.545   7.182  0.0127 -0.2011 -0.6102
  167SOPE   H4X18841   5.271   4.562   7.202 -0.2784  2.2698 -0.7938
  167SOPE   H4Y18842   5.134   4.441   7.206 -0.7264  0.1912  0.2500
  167SOPE   C3518843   5.094   4.654   7.258 -0.4608  0.0363 -0.9793
  167SOPE   H5X18844   4.996   4.675   7.211  0.1298  1.5701 -1.5834
  167SOPE   H5Y18845   5.165   4.739   7.249  0.2052 -0.2199  1.1567
  167SOPE   C3618846   5.072   4.626   7.412  0.3709 -0.6258  0.0234
  167SOPE   H6X18847   5.029   4.723   7.446  1.0050 -0.0104 -0.9046
  167SOPE   H6Y18848   5.165   4.592   7.463 -0.4286 -1.1180  1.2232
  167SOPE   C3718849   4.957   4.515   7.419 -0.0791  0.4245  0.5686
  167SOPE   H7X18850   4.991   4.416   7.382  1.7897  1.5127 -0.8399
  167SOPE   H7Y18851   4.872   4.555   7.359 -1.0056  0.0402  1.5976
  167SOPE   C3818852   4.940   4.498   7.564  0.2793 -0.5629  0.7326
  167SOPE   H8X18853   4.925   4.601   7.602  2.5064 -0.2799  0.9337
  167SOPE   H8Y18854   5.030   4.457   7.615 -0.3475 -1.5226  1.1125
  167SOPE   C3918855   4.823   4.408   7.607  0.7354 -0.5347  0.1789
  167SOPE   H9X18856   4.840   4.310   7.559  3.3048 -2.1619  3.9013
  167SOPE   H9Y18857   4.726   4.444   7.567 -0.7017 -4.4217 -0.2591
  167SOPE  C31018858   4.811   4.386   7.756 -0.1876 -0.7161  0.0465
  167SOPE  H10X18859   4.824   4.478   7.817 -0.9648 -1.1447  0.8905
  167SOPE  H10Y18860   4.903   4.325   7.770 -0.5798 -0.8023  2.6828
  167SOPE  C31118861   4.691   4.301   7.807  0.5689 -0.1387 -0.2665
  167SOPE  H11X18862   4.677   4.225   7.726 -0.5930 -1.2493  0.9343
  167SOPE  H11Y18863   4.606   4.372   7.805  1.0833  0.4913 -2.5619
  167SOPE  C31218864   4.703   4.238   7.947 -0.2151 -1.0588  0.5282
  167SOPE  H12X18865   4.727   4.318   8.021  0.1793  1.2880 -1.9519
  167SOPE  H12Y18866   4.795   4.176   7.953  0.7899  0.3804  0.7498
  167SOPE  C31318867   4.594   4.155   7.993  0.3477  0.1511  0.0306
  167SOPE  H13X18868   4.558   4.086   7.914  0.1755 -0.9447  1.0375
  167SOPE  H13Y18869   4.499   4.208   8.013 -1.7027 -2.2118 -2.6875
  167SOPE  C31418870   4.640   4.070   8.112  0.1608 -0.9215  0.2985
  167SOPE  H14X18871   4.717   4.000   8.073 -1.2551 -2.2810 -0.1839
  167SOPE  H14Y18872   4.561   3.998   8.144 -0.6944  0.8535  2.4838
  167SOPE  C31518873   4.670   4.151   8.245 -0.0017  0.3179 -0.2010
  167SOPE  H15X18874   4.574   4.178   8.293  0.8476  1.5719  0.8510
  167SOPE  H15Y18875   4.729   4.242   8.223  2.8720 -1.2744  0.3101
  167SOPE  C31618876   4.754   4.083   8.354 -0.2851 -0.4227  0.5189
  167SOPE  H16X18877   4.860   4.115   8.350 -0.4495  0.9495  3.7474
  167SOPE  H16Y18878   4.756   3.972   8.352 -1.0808 -0.4371  0.0219
  167SOPE  C31718879   4.705   4.117   8.495 -0.5480 -0.1974 -0.0126
  167SOPE  H17X18880   4.691   4.226   8.507  0.4465 -0.1247  0.5310
  167SOPE  H17Y18881   4.788   4.085   8.561 -0.7835 -0.2971  0.2363
  167SOPE  C31818882   4.573   4.053   8.544  0.2443  0.4412  0.0364
  167SOPE  H18X18883   4.494   4.059   8.465 -0.9369  4.0490  1.2639
  167SOPE  H18Y18884   4.530   4.123   8.619  3.5064  1.8628  0.7234
  167SOPE  H18Z18885   4.582   3.961   8.605 -0.9135  1.6773  2.1915
  168SOPE     N18886   0.380   2.824   6.162 -0.0914 -0.0282 -0.3683
  168SOPE   HN118887   0.367   2.829   6.060 -0.1091 -1.1069 -0.4353
  168SOPE   HN218888   0.423   2.914   6.192 -0.9815  0.3488 -0.1905
  168SOPE   HN318889   0.451   2.750   6.183  0.1402  0.3108  0.0690
  168SOPE   C1218890   0.260   2.782   6.245 -0.7100 -0.2033 -0.1665
  168SOPE  H12A18891   0.224   2.680   6.220 -2.1277 -0.0398  1.0614
  168SOPE  H12B18892   0.188   2.866   6.236 -0.9004 -0.1407  1.5814
  168SOPE   C1118893   0.298   2.765   6.396 -0.4727  0.4864 -0.2205
  168SOPE  H11A18894   0.206   2.743   6.453 -2.2535  1.7197 -2.4527
  168SOPE  H11B18895   0.342   2.865   6.413  3.2744 -0.8557 -0.9611
  168SOPE     P18896   0.450   2.601   6.544 -0.4803  0.2377  0.0706
  168SOPE   O1318897   0.491   2.699   6.646 -0.4264  0.0368 -0.1352
  168SOPE   O1418898   0.545   2.492   6.519 -0.4485  0.1756 -0.4043
  168SOPE   O1218899   0.414   2.676   6.408 -0.2556  0.0728  0.1067
  168SOPE   O1118900   0.315   2.534   6.583 -0.7055  0.1043 -0.6541
  168SOPE    C118901   0.242   2.436   6.508  0.5309  0.6876 -0.3189
  168SOPE    HA18902   0.297   2.403   6.418  0.3684  1.8647 -0.8637
  168SOPE    HB18903   0.149   2.481   6.467 -0.7391 -0.3815  1.2445
  168SOPE    C218904   0.207   2.304   6.588 -0.5084  0.6222 -0.8013
  168SOPE    HS18905   0.179   2.228   6.513 -1.1722 -0.4416  0.4965
  168SOPE   O2118906   0.109   2.339   6.674 -0.5124 -0.2497  0.0929
  168SOPE   C2118907   0.040   2.233   6.723 -0.4597  0.1618 -0.9102
  168SOPE   O2218908   0.066   2.116   6.702  0.5608 -0.2086 -0.4674
  168SOPE   C2218909  -0.068   2.298   6.808  0.0263 -0.5858 -0.1209
  168SOPE   H2R18910  -0.153   2.338   6.749 -0.3675 -1.2346 -0.0068
  168SOPE   H2S18911  -0.016   2.376   6.866 -1.2760 -0.2375  0.6276
  168SOPE    C318912   0.340   2.254   6.664 -0.6559  0.0062  0.0004
  168SOPE    HX18913   0.376   2.332   6.734  0.1821  0.0183 -0.4168
  168SOPE    HY18914   0.420   2.254   6.586 -1.3427  0.1334 -0.7208
  168SOPE   O3118915   0.345   2.120   6.728 -0.3102  0.0657  0.5703
  168SOPE   C3118916   0.320   2.114   6.854  0.4959 -0.0683  0.4504
  168SOPE   O3218917   0.293   2.212   6.928  0.0722  0.3594 -0.8110
  168SOPE   C3218918   0.326   1.972   6.898  0.3462 -0.3028 -0.6384
  168SOPE   H2X18919   0.426   1.936   6.867  0.6558  2.3357 -3.0813
  168SOPE   H2Y18920   0.248   1.912   6.846 -0.2538 -3.0835  2.9831
  168SOPE   C2318921  -0.127   2.199   6.919  0.0680 -0.8737  0.2184
  168SOPE   H3R18922  -0.066   2.107   6.928 -2.3683 -2.7337 -1.1656
  168SOPE   H3S18923  -0.222   2.159   6.879  0.2002  0.0226 -1.0436
  168SOPE   C2418924  -0.144   2.263   7.052 -0.6370 -0.1599  0.4350
  168SOPE   H4R18925  -0.056   2.329   7.065 -1.7542  1.1828  1.6081
  168SOPE   H4S18926  -0.231   2.329   7.031  1.2788  1.3834 -3.5553
  168SOPE   C2518927  -0.163   2.166   7.164 -0.1480  0.3455 -0.0042
  168SOPE   H5R18928  -0.260   2.114   7.148  0.0043  0.1088 -0.1904
  168SOPE   H5S18929  -0.080   2.092   7.161 -0.2634  0.2028 -3.1411
  168SOPE   C2618930  -0.174   2.228   7.298 -0.1094 -0.7220 -0.5683
  168SOPE   H6R18931  -0.068   2.241   7.326 -0.1302  1.1672 -1.2267
  168SOPE   H6S18932  -0.205   2.334   7.287  0.3683 -0.3712  1.2238
  168SOPE   C2718933  -0.236   2.143   7.405 -0.5315  0.0015  0.7488
  168SOPE   H7R18934  -0.225   2.197   7.501 -0.0476 -0.8237  1.1687
  168SOPE   H7S18935  -0.345   2.144   7.381 -0.2383  0.0139 -0.7125
  168SOPE   C2818936  -0.184   1.998   7.415 -0.4041 -0.3093 -0.0185
  168SOPE   H8R18937  -0.185   1.945   7.318  2.0780 -2.4233  0.9884
  168SOPE   H8S18938  -0.077   2.001   7.446  0.3220 -1.7904 -2.1638
  168SOPE   C2918939  -0.261   1.913   7.511 -0.1041  0.2786 -0.2247
  168SOPE   H9118940  -0.365   1.884   7.485 -0.0127 -1.5596  1.2439
  168SOPE  C21018941  -0.221   1.865   7.631 -0.0836  0.1050  0.2149
  168SOPE  H10118942  -0.282   1.798   7.693 -0.1216  0.8520  0.9916
  168SOPE  C21118943  -0.090   1.885   7.687 -0.3069 -0.5125 -0.6698
  168SOPE  H11R18944  -0.069   1.994   7.697  1.7075 -1.1231  3.9289
  168SOPE  H11S18945  -0.015   1.856   7.610 -0.9557 -2.7261 -0.5300
  168SOPE  C21218946  -0.046   1.811   7.810  1.1248 -0.0585 -0.1275
  168SOPE  H12R18947   0.064   1.819   7.821  1.0774  0.5079 -0.0029
  168SOPE  H12S18948  -0.076   1.704   7.816 -2.0320  0.7870  1.5831
  168SOPE  C21318949  -0.110   1.879   7.934  0.5507 -0.5636  0.4277
  168SOPE  H13R18950  -0.220   1.890   7.930  0.3063 -2.8633 -0.1323
  168SOPE  H13S18951  -0.061   1.979   7.940  0.4408 -0.5334  0.8890
  168SOPE  C21418952  -0.078   1.810   8.065 -0.1534  0.2204 -0.5931
  168SOPE  H14R18953  -0.111   1.704   8.067 -0.9986  0.4824  1.2457
  168SOPE  H14S18954  -0.139   1.867   8.139  0.0770  0.1428 -0.3432
  168SOPE  C21518955   0.064   1.824   8.109  0.6984 -0.8014 -0.0632
  168SOPE  H15R18956   0.088   1.932   8.118  0.7478 -0.6905 -1.3542
  168SOPE  H15S18957   0.134   1.789   8.031  1.8622 -2.3522  1.5948
  168SOPE  C21618958   0.098   1.771   8.251  0.0691 -0.3068  0.4017
  168SOPE  H16R18959   0.206   1.791   8.268 -0.0379  2.0317 -1.1650
  168SOPE  H16S18960   0.087   1.661   8.255  0.4157 -0.3153  1.1954
  168SOPE  C21718961   0.023   1.840   8.363 -0.0786  0.2323  0.1705
  168SOPE  H17R18962  -0.079   1.795   8.367  0.6206 -1.6049 -1.0587
  168SOPE  H17S18963   0.015   1.946   8.331  0.1410 -0.6474 -3.2262
  168SOPE  C21818964   0.096   1.833   8.500  0.8024  0.7760 -0.4829
  168SOPE  H18R18965   0.036   1.777   8.574 -0.1502 -0.4517 -2.1008
  168SOPE  H18S18966   0.114   1.939   8.530  1.5344  0.6698 -0.5192
  168SOPE  H18T18967   0.194   1.782   8.493  1.4157  1.9120 -0.4285
  168SOPE   C3318968   0.305   1.960   7.052  0.1559 -0.0671 -0.3107
  168SOPE   H3X18969   0.367   2.034   7.107 -0.8959 -0.0657  0.9231
  168SOPE   H3Y18970   0.340   1.860   7.086 -1.9100 -0.4453  0.8535
  168SOPE   C3418971   0.163   1.979   7.107  0.0813 -0.4142  0.2243
  168SOPE   H4X18972   0.098   1.904   7.058 -1.2153  1.3996 -0.9523
  168SOPE   H4Y18973   0.130   2.083   7.082  1.6409  0.5607  1.9294
  168SOPE   C3518974   0.167   1.949   7.255  0.2323  0.0955 -0.5568
  168SOPE   H5X18975   0.237   1.862   7.259 -0.5030 -0.6062 -2.1223
  168SOPE   H5Y18976   0.069   1.904   7.281 -0.0921  1.7448  1.2895
  168SOPE   C3618977   0.197   2.073   7.342  0.7379  0.4647  0.2660
  168SOPE   H6X18978   0.110   2.141   7.331  0.9307  0.9729  1.6962
  168SOPE   H6Y18979   0.278   2.135   7.300  0.7672  1.0948  1.2179
  168SOPE   C3718980   0.232   2.024   7.483  0.4984 -0.4324  0.1388
  168SOPE   H7X18981   0.326   1.967   7.471  0.8580 -0.8505  3.7693
  168SOPE   H7Y18982   0.153   1.953   7.517  1.1443 -0.6140  1.3062
  168SOPE   C3818983   0.232   2.138   7.589  0.4401 -0.6541 -0.8317
  168SOPE   H8X18984   0.131   2.185   7.592  1.4318  1.5904 -1.0286
  168SOPE   H8Y18985   0.304   2.219   7.567 -1.8189  2.1640  1.3833
  168SOPE   C3918986   0.265   2.076   7.727  0.0517 -0.0451  0.3033
  168SOPE   H9X18987   0.372   2.048   7.731 -0.0413 -0.2376  2.0120
  168SOPE   H9Y18988   0.213   1.983   7.759  0.4244 -0.2516  0.3137
  168SOPE  C31018989   0.233   2.175   7.841 -0.2362  0.7507  0.7783
  168SOPE  H10X18990   0.125   2.203   7.842 -0.7345 -0.8844 -0.8478
  168SOPE  H10Y18991   0.293   2.267   7.829 -1.2263  1.4042  0.7731
  168SOPE  C31118992   0.268   2.105   7.979  0.6710 -0.0018 -0.0890
  168SOPE  H11X18993   0.378   2.092   7.980  0.8959  1.7649  0.4457
  168SOPE  H11Y18994   0.220   2.005   7.966 -1.3571  0.9496 -0.2917
  168SOPE  C31218995   0.224   2.185   8.096  0.1205  0.9847 -0.9823
  168SOPE  H12X18996   0.114   2.183   8.114  0.2778  0.5483  0.0061
  168SOPE  H12Y18997   0.254   2.292   8.086  0.5681  0.9627  0.0154
  168SOPE  C31318998   0.292   2.134   8.227  0.5771 -0.7413 -0.3835
  168SOPE  H13X18999   0.282   2.025   8.245  0.6921 -0.4428  1.7017
  168SOPE  H13Y19000   0.250   2.190   8.313 -0.9499  0.0786 -1.5938
  168SOPE  C31419001   0.447   2.156   8.226 -0.2935  0.0996  0.1610
  168SOPE  H14X19002   0.455   2.243   8.157 -1.7632  0.6776  0.6809
  168SOPE  H14Y19003   0.503   2.065   8.194  1.0585  0.7814  0.5087
  168SOPE  C31519004   0.489   2.214   8.366 -0.2215  0.3464 -0.6298
  168SOPE  H15X19005   0.447   2.316   8.382  0.3397  0.5631 -0.5121
  168SOPE  H15Y19006   0.599   2.229   8.364 -0.1343  0.3110  1.3410
  168SOPE  C31619007   0.463   2.111   8.492  0.7681  0.0661  0.5283
  168SOPE  H16X19008   0.357   2.103   8.522  1.2574 -0.5864  2.1882
  168SOPE  H16Y19009   0.505   2.164   8.581 -1.5252  2.2623  0.4084
  168SOPE  C31719010   0.509   1.964   8.467  0.3313 -0.5897 -0.2491
  168SOPE  H17X19011   0.615   1.970   8.434  1.1346  0.0142  2.2402
  168SOPE  H17Y19012   0.437   1.912   8.400  0.2128  1.0949 -1.4982
  168SOPE  C31819013   0.508   1.884   8.605 -0.1602 -0.8722  0.1049
  168SOPE  H18X19014   0.413   1.909   8.657 -0.9066 -0.5413 -1.3517
  168SOPE  H18Y19015   0.589   1.939   8.659  0.0107 -3.0699  2.2192
  168SOPE  H18Z19016   0.531   1.777   8.590  2.4027 -0.2891 -0.7609
  169SOPE     N19017   1.555   3.236   6.422 -0.7441 -0.2978 -1.0568
  169SOPE   HN119018   1.514   3.240   6.517  0.0613 -1.6205 -0.6199
  169SOPE   HN219019   1.590   3.332   6.401  2.5274 -1.4290 -1.3108
  169SOPE   HN319020   1.492   3.212   6.343  0.3422  0.2208 -2.1213
  169SOPE   C1219021   1.676   3.144   6.420  0.2005 -0.0133  0.2714
  169SOPE  H12A19022   1.692   3.118   6.313  0.2253  0.8350  0.0544
  169SOPE  H12B19023   1.637   3.055   6.473 -0.5152 -0.2987 -0.7063
  169SOPE   C1119024   1.799   3.197   6.484  0.4682 -0.6386  0.3463
  169SOPE  H11A19025   1.875   3.116   6.489  1.3045  0.0150 -1.1506
  169SOPE  H11B19026   1.771   3.231   6.586 -1.0361  0.8778 -0.5062
  169SOPE     P19027   1.972   3.321   6.332 -0.1534  0.2258 -0.0189
  169SOPE   O1319028   2.009   3.466   6.311 -0.6888 -0.9106  0.4398
  169SOPE   O1419029   1.942   3.241   6.216 -0.3497  0.3275 -0.5072
  169SOPE   O1219030   1.850   3.318   6.426 -0.8031  0.5408 -0.0685
  169SOPE   O1119031   2.075   3.254   6.424 -0.4209 -0.0798 -0.0676
  169SOPE    C119032   2.120   3.325   6.542  0.6428  1.0681 -0.3998
  169SOPE    HA19033   2.033   3.368   6.595  0.3466 -0.4624  0.4116
  169SOPE    HB19034   2.196   3.401   6.515  3.2159 -1.9644 -2.5718
  169SOPE    C219035   2.191   3.235   6.650  0.1456  0.7424 -0.2190
  169SOPE    HS19036   2.269   3.170   6.605  1.0125  0.6824  1.2966
  169SOPE   O2119037   2.088   3.171   6.728 -0.6508 -0.6959  0.4198
  169SOPE   C2119038   2.073   3.043   6.709  0.0294  0.2064 -0.7846
  169SOPE   O2219039   2.129   2.974   6.625  0.2371 -0.1082  0.5585
  169SOPE   C2219040   1.970   2.985   6.807 -0.2321  0.0011  1.1438
  169SOPE   H2R19041   1.870   2.976   6.759 -0.3026  0.3449  1.2225
  169SOPE   H2S19042   1.961   3.065   6.883  3.7427  1.1742  0.5987
  169SOPE    C319043   2.272   3.328   6.745  0.5480  0.0457 -0.2711
  169SOPE    HX19044   2.199   3.404   6.780 -2.0613 -2.2411 -0.3718
  169SOPE    HY19045   2.350   3.373   6.680  0.9752 -2.4505 -1.6120
  169SOPE   O3119046   2.323   3.259   6.857  0.1205  0.5312 -0.0354
  169SOPE   C3119047   2.253   3.255   6.963 -0.2711  0.2389  0.2044
  169SOPE   O3219048   2.156   3.317   6.991  0.2414 -0.4780 -0.1968
  169SOPE   C3219049   2.302   3.137   7.049  0.4563 -0.0541  0.1000
  169SOPE   H2X19050   2.396   3.161   7.103  0.3892  2.3316 -0.7495
  169SOPE   H2Y19051   2.308   3.056   6.972  0.9698 -1.4416  1.5485
  169SOPE   C2319052   2.017   2.856   6.875 -0.0128  0.3100  0.0181
  169SOPE   H3R19053   2.125   2.863   6.901 -0.2833  1.6371  0.8976
  169SOPE   H3S19054   2.024   2.773   6.801 -1.7132 -0.5945  0.8129
  169SOPE   C2419055   1.938   2.815   6.993  0.0949  0.0250  0.0781
  169SOPE   H4R19056   1.965   2.880   7.079 -0.5091 -0.3256  0.5444
  169SOPE   H4S19057   1.828   2.816   6.977  0.2718  1.4683 -1.3553
  169SOPE   C2519058   1.957   2.664   7.040 -0.1088  0.1933  0.2667
  169SOPE   H5R19059   1.916   2.591   6.967 -1.5555  0.0323  1.1957
  169SOPE   H5S19060   2.066   2.644   7.042 -0.4884 -2.1786  0.7386
  169SOPE   C2619061   1.905   2.640   7.182 -0.3051  0.1055  0.5826
  169SOPE   H6R19062   1.968   2.565   7.233 -2.7238 -1.8783  0.8590
  169SOPE   H6S19063   1.915   2.736   7.238  0.7955 -0.0546  0.6788
  169SOPE   C2719064   1.758   2.585   7.172 -0.6077 -0.4308 -0.0328
  169SOPE   H7R19065   1.692   2.666   7.135 -1.0630 -0.5227  0.5633
  169SOPE   H7S19066   1.767   2.507   7.093 -0.5419  0.5055 -0.9599
  169SOPE   C2819067   1.692   2.534   7.300  0.3862 -0.3873  0.0312
  169SOPE   H8R19068   1.681   2.611   7.379 -3.7387 -0.0106 -0.6698
  169SOPE   H8S19069   1.588   2.504   7.276  0.5255  0.8504 -2.3398
  169SOPE   C2919070   1.773   2.428   7.357 -0.1493 -0.1017  0.0555
  169SOPE   H9119071   1.812   2.359   7.281 -1.4915 -0.5140 -0.2929
  169SOPE  C21019072   1.814   2.416   7.488  0.5780 -0.0210  0.3153
  169SOPE  H10119073   1.866   2.324   7.518  0.9663  0.4495  1.1312
  169SOPE  C21119074   1.779   2.505   7.606 -0.3321  0.4256  0.5133
  169SOPE  H11R19075   1.741   2.602   7.566  0.2151 -0.1526 -1.5541
  169SOPE  H11S19076   1.875   2.539   7.651  0.1137  1.2939 -1.0291
  169SOPE  C21219077   1.694   2.443   7.716 -0.8658  0.3322 -0.4183
  169SOPE  H12R19078   1.591   2.422   7.678 -0.0065 -0.6743 -2.3023
  169SOPE  H12S19079   1.699   2.517   7.799  4.8851 -1.6055  1.4350
  169SOPE  C21319080   1.744   2.315   7.777 -0.2141  0.4443  0.8455
  169SOPE  H13R19081   1.855   2.313   7.770 -0.2430  1.3300 -0.1068
  169SOPE  H13S19082   1.708   2.222   7.727  1.3704  0.5299 -0.5265
  169SOPE  C21419083   1.717   2.305   7.922 -0.0330 -0.3505 -0.2188
  169SOPE  H14R19084   1.610   2.333   7.932  0.2111 -0.0786  2.1854
  169SOPE  H14S19085   1.774   2.382   7.979 -1.5471 -0.1050  1.0324
  169SOPE  C21519086   1.765   2.165   7.975 -0.6715  0.7140 -0.5248
  169SOPE  H15R19087   1.863   2.133   7.933 -0.7107  1.3919 -1.1653
  169SOPE  H15S19088   1.699   2.092   7.922 -1.4005  0.9390  0.0617
  169SOPE  C21619089   1.756   2.143   8.121 -0.7444  0.5995 -0.4888
  169SOPE  H16R19090   1.744   2.033   8.131  0.1696  0.5049 -0.3838
  169SOPE  H16S19091   1.659   2.188   8.150 -0.5253  0.6966  0.0967
  169SOPE  C21719092   1.871   2.209   8.202 -0.5049  0.0537 -1.2948
  169SOPE  H17R19093   1.834   2.237   8.303  2.7113 -2.0153  0.6422
  169SOPE  H17S19094   1.907   2.305   8.161  0.8291  0.2705  0.2819
  169SOPE  C21819095   1.982   2.112   8.230 -0.7495 -0.1996  0.1691
  169SOPE  H18R19096   2.059   2.164   8.292 -0.7457  1.7492 -1.3726
  169SOPE  H18S19097   2.030   2.097   8.132  0.3114  1.7862  0.3411
  169SOPE  H18T19098   1.945   2.023   8.286 -1.7306  1.2734  1.9869
  169SOPE   C3319099   2.200   3.097   7.154 -0.2961 -0.6918  0.1519
  169SOPE   H3X19100   2.113   3.064   7.093  0.7467 -1.2700 -1.0658
  169SOPE   H3Y19101   2.173   3.189   7.209  1.1252 -0.1846  0.0187
  169SOPE   C3419102   2.244   2.998   7.252  0.0516 -0.1986  0.2254
  169SOPE   H4X19103   2.339   3.037   7.294 -0.0189  0.5211 -0.2499
  169SOPE   H4Y19104   2.271   2.900   7.209  2.3143 -0.7123  2.6160
  169SOPE   C3519105   2.127   2.974   7.352 -0.3407  1.0034  0.6528
  169SOPE   H5X19106   2.054   2.916   7.292  1.2826 -0.4392 -0.0251
  169SOPE   H5Y19107   2.078   3.068   7.387  2.3750  2.7352  0.0731
  169SOPE   C3619108   2.168   2.894   7.480  0.1599  0.3435  0.7207
  169SOPE   H6X19109   2.222   2.959   7.552 -2.2154  1.8926  1.2156
  169SOPE   H6Y19110   2.226   2.804   7.451  1.7166  1.0366  1.6081
  169SOPE   C3719111   2.042   2.854   7.565 -0.3128  0.0824  0.9073
  169SOPE   H7X19112   1.971   2.791   7.508  1.6743 -1.5894  0.1198
  169SOPE   H7Y19113   1.989   2.945   7.600  0.7528  1.7971 -1.6147
  169SOPE   C3819114   2.075   2.776   7.694 -0.1635  0.6226  0.3896
  169SOPE   H8X19115   2.093   2.673   7.658  0.5987  0.9087 -0.0716
  169SOPE   H8Y19116   2.174   2.793   7.740  1.9805 -1.8005 -2.9047
  169SOPE   C3919117   1.957   2.784   7.798 -0.5271  0.7145 -0.7537
  169SOPE   H9X19118   1.861   2.781   7.742  0.8226  0.3088 -3.2059
  169SOPE   H9Y19119   1.963   2.883   7.849  2.1704  0.5864 -0.6561
  169SOPE  C31019120   1.958   2.675   7.898  0.4711  0.0956  0.1393
  169SOPE  H10X19121   1.933   2.576   7.855 -1.7207  1.1355 -1.1314
  169SOPE  H10Y19122   1.873   2.684   7.969 -1.7092 -4.1927 -1.5357
  169SOPE  C31119123   2.083   2.664   7.987 -0.4476  0.0214  0.3836
  169SOPE  H11X19124   2.116   2.767   8.013 -0.6341 -0.4354  2.6454
  169SOPE  H11Y19125   2.165   2.618   7.928  0.4182  2.6535 -0.6103
  169SOPE  C31219126   2.056   2.592   8.116  0.0951 -0.0963 -0.2576
  169SOPE  H12X19127   2.019   2.488   8.106  1.8195 -0.9150  1.3543
  169SOPE  H12Y19128   1.980   2.648   8.175  1.5604 -0.8445  2.4982
  169SOPE  C31319129   2.185   2.588   8.198  0.3506 -0.3155 -0.2746
  169SOPE  H13X19130   2.218   2.689   8.233  0.6614 -0.7654  0.7718
  169SOPE  H13Y19131   2.265   2.547   8.132  0.4563  1.9060 -1.6426
  169SOPE  C31419132   2.175   2.491   8.321  0.2461  0.3082  0.1303
  169SOPE  H14X19133   2.111   2.406   8.289  1.1972  0.0774 -1.2373
  169SOPE  H14Y19134   2.117   2.525   8.410  3.0477 -2.3859  3.2318
  169SOPE  C31519135   2.308   2.449   8.367  0.2429 -0.4081 -0.1552
  169SOPE  H15X19136   2.348   2.539   8.418 -3.2936  0.9344  0.5046
  169SOPE  H15Y19137   2.372   2.423   8.280 -0.7568 -2.3448 -0.3759
  169SOPE  C31619138   2.308   2.329   8.469  0.1815  0.2237 -0.1269
  169SOPE  H16X19139   2.238   2.252   8.431  3.2778 -2.0432 -1.7282
  169SOPE  H16Y19140   2.265   2.357   8.568 -0.5380  1.0040 -0.6478
  169SOPE  C31719141   2.445   2.266   8.494 -0.0673 -0.0858  0.0868
  169SOPE  H17X19142   2.516   2.346   8.524  1.4037 -2.0380  2.1340
  169SOPE  H17Y19143   2.491   2.216   8.406  2.2090 -0.5081  1.4368
  169SOPE  C31819144   2.436   2.153   8.598 -0.8902 -0.0449  0.0139
  169SOPE  H18X19145   2.382   2.188   8.688  0.5671  4.0898 -0.5124
  169SOPE  H18Y19146   2.540   2.118   8.614 -0.6716  0.1694 -0.8728
  169SOPE  H18Z19147   2.386   2.064   8.553 -2.2354 -0.0259  1.4047
  170SOPE     N19148   3.183   2.885   6.515  0.2849  0.1066 -0.5400
  170SOPE   HN119149   3.282   2.914   6.507  0.0216  1.7552  1.2209
  170SOPE   HN219150   3.174   2.835   6.606 -1.6297  0.0939 -0.6936
  170SOPE   HN319151   3.157   2.823   6.435  0.9408 -0.1827 -0.5287
  170SOPE   C1219152   3.097   3.005   6.516 -0.2151 -0.3769 -0.6066
  170SOPE  H12A19153   3.130   3.066   6.429 -0.8636 -0.7892 -1.1519
  170SOPE  H12B19154   3.106   3.059   6.613 -0.9478 -2.0470  0.4424
  170SOPE   C1119155   2.946   2.980   6.485 -0.1142  0.5077 -0.5148
  170SOPE  H11A19156   2.902   3.078   6.457  1.7520  1.1339 -1.4012
  170SOPE  H11B19157   2.898   2.945   6.579  0.3939 -0.2369 -0.5285
  170SOPE     P19158   2.774   2.854   6.340 -0.3203  0.3194  0.4199
  170SOPE   O1319159   2.764   2.758   6.227  0.1670  0.1395 -0.0394
  170SOPE   O1419160   2.687   2.975   6.328  0.2470  0.0124  0.7950
  170SOPE   O1219161   2.926   2.890   6.372  0.0082 -0.0789 -0.4661
  170SOPE   O1119162   2.741   2.776   6.480 -0.1986  0.1981  0.2010
  170SOPE    C119163   2.613   2.738   6.520 -0.0302 -0.0078  0.1895
  170SOPE    HA19164   2.625   2.656   6.594  1.2923 -1.6677 -1.7505
  170SOPE    HB19165   2.556   2.709   6.429  1.0273 -0.9724 -0.1849
  170SOPE    C219166   2.538   2.853   6.590 -0.4844  0.4297  0.6052
  170SOPE    HS19167   2.532   2.929   6.510 -1.4656  0.1259  0.3764
  170SOPE   O2119168   2.618   2.904   6.697  0.6524  1.2818  0.0497
  170SOPE   C2119169   2.587   3.032   6.730 -0.9877 -0.1658 -0.2088
  170SOPE   O2219170   2.514   3.095   6.651  0.0706 -0.4682  0.2793
  170SOPE   C2219171   2.665   3.083   6.849  0.1907  0.4466  0.2383
  170SOPE   H2R19172   2.599   3.162   6.890  1.5322  1.5707  0.3131
  170SOPE   H2S19173   2.756   3.136   6.813 -1.2580  2.2957 -0.8887
  170SOPE    C319174   2.403   2.795   6.638 -0.0016 -0.2749  0.5444
  170SOPE    HX19175   2.345   2.765   6.549  0.0542  0.3425  0.2966
  170SOPE    HY19176   2.348   2.876   6.691  0.6243 -0.2245  1.1380
  170SOPE   O3119177   2.427   2.676   6.718 -0.1626  0.3861 -0.0669
  170SOPE   C3119178   2.454   2.706   6.845  0.1636 -0.1818 -0.0481
  170SOPE   O3219179   2.399   2.803   6.896 -0.3977 -0.2186 -1.1175
  170SOPE   C3219180   2.557   2.613   6.905 -0.0785  0.0466  0.0229
  170SOPE   H2X19181   2.654   2.652   6.867  0.4228  0.7257  1.8795
  170SOPE   H2Y19182   2.538   2.509   6.872  2.7267  0.1787 -2.3886
  170SOPE   C2319183   2.709   2.975   6.944  0.1630  0.1258 -0.8772
  170SOPE   H3R19184   2.764   2.897   6.888 -0.4510 -0.1614 -1.0896
  170SOPE   H3S19185   2.610   2.941   6.983  1.6019 -0.6134  2.4207
  170SOPE   C2419186   2.788   3.042   7.059  0.3642  0.1022 -0.2578
  170SOPE   H4R19187   2.892   3.071   7.034  0.2538  2.0502  1.2481
  170SOPE   H4S19188   2.745   3.141   7.085 -2.0481 -0.7712 -0.6958
  170SOPE   C2519189   2.788   2.945   7.185  0.1824 -0.5229  0.1233
  170SOPE   H5R19190   2.686   2.907   7.203 -0.7171  1.8085  0.3160
  170SOPE   H5S19191   2.844   2.854   7.154  1.3639  0.5891 -1.1509
  170SOPE   C2619192   2.833   3.003   7.318  0.0164  0.1011 -0.2392
  170SOPE   H6R19193   2.941   3.026   7.314 -0.0518  0.8947  1.6489
  170SOPE   H6S19194   2.776   3.096   7.340 -1.0962 -0.6645  0.1866
  170SOPE   C2719195   2.817   2.911   7.435  0.2853  0.2142 -0.1743
  170SOPE   H7R19196   2.882   2.824   7.416 -0.6187 -0.7793  1.0750
  170SOPE   H7S19197   2.863   2.951   7.528  2.2266 -2.5215  0.1560
  170SOPE   C2819198   2.675   2.868   7.467  1.2314  0.6048  0.2140
  170SOPE   H8R19199   2.639   2.815   7.377 -0.4016  1.2186  0.4691
  170SOPE   H8S19200   2.670   2.782   7.538 -3.9902  1.0015  0.7269
  170SOPE   C2919201   2.585   2.987   7.502  0.0154  0.5898  0.1936
  170SOPE   H9119202   2.586   3.068   7.427 -0.1046  0.5321  0.1292
  170SOPE  C21019203   2.504   2.991   7.613  0.3422 -0.4664  0.1948
  170SOPE  H10119204   2.452   3.084   7.639  2.2432  1.0043 -0.9937
  170SOPE  C21119205   2.491   2.889   7.724 -0.5274 -0.8978 -0.3276
  170SOPE  H11R19206   2.564   2.806   7.717  0.6655  0.1076 -0.0797
  170SOPE  H11S19207   2.389   2.845   7.712 -0.9103 -0.2210  0.3329
  170SOPE  C21219208   2.527   2.945   7.863 -0.1720  0.5101 -0.8886
  170SOPE  H12R19209   2.480   3.042   7.889  2.1097  1.7693 -1.2441
  170SOPE  H12S19210   2.633   2.973   7.877  0.0556 -1.0228  1.0289
  170SOPE  C21319211   2.491   2.855   7.981 -0.0659 -0.7593 -0.5279
  170SOPE  H13R19212   2.381   2.846   7.995 -0.0282 -0.7055 -0.1846
  170SOPE  H13S19213   2.529   2.903   8.074 -1.5777  0.8200 -0.6747
  170SOPE  C21419214   2.526   2.705   7.970 -0.9447 -0.7193  0.2070
  170SOPE  H14R19215   2.484   2.661   7.876  0.8141 -1.3117 -0.3511
  170SOPE  H14S19216   2.492   2.655   8.063 -0.1307  0.7538  1.3247
  170SOPE  C21519217   2.676   2.685   7.975 -0.6720 -0.2161 -0.4364
  170SOPE  H15R19218   2.716   2.738   8.065  2.0079 -2.1348 -0.3877
  170SOPE  H15S19219   2.732   2.727   7.889  1.9291  1.1208  1.7565
  170SOPE  C21619220   2.740   2.538   7.991 -0.4346 -0.4524 -0.8263
  170SOPE  H16R19221   2.849   2.558   7.985 -0.3759  0.6549  2.0350
  170SOPE  H16S19222   2.714   2.477   7.902 -1.0678 -1.1474 -0.1868
  170SOPE  C21719223   2.696   2.475   8.118 -0.0532  0.2733  0.6184
  170SOPE  H17R19224   2.593   2.434   8.130  0.2294  0.1948  3.5697
  170SOPE  H17S19225   2.712   2.556   8.193  0.4742  0.1906  0.5984
  170SOPE  C21819226   2.789   2.352   8.141 -0.7804  0.0744  0.0797
  170SOPE  H18R19227   2.887   2.382   8.098 -1.5359  4.3920  0.9491
  170SOPE  H18S19228   2.762   2.261   8.083  2.4477 -0.0452 -1.4360
  170SOPE  H18T19229   2.803   2.326   8.248  0.4129 -4.6700 -0.9757
  170SOPE   C3319230   2.563   2.637   7.055 -0.2422 -0.5559 -0.1541
  170SOPE   H3X19231   2.555   2.745   7.079 -0.2931  0.0703 -2.6963
  170SOPE   H3Y19232   2.655   2.595   7.100  1.5291  1.7118 -1.4437
  170SOPE   C3419233   2.442   2.567   7.117  0.3423 -0.1575 -0.2777
  170SOPE   H4X19234   2.450   2.458   7.097  1.8203  0.0978 -1.2847
  170SOPE   H4Y19235   2.350   2.602   7.065 -1.3066 -0.7278  2.1203
  170SOPE   C3519236   2.414   2.595   7.260 -0.1449 -0.5825 -0.6987
  170SOPE   H5X19237   2.314   2.555   7.289 -1.5796  3.0421 -0.1612
  170SOPE   H5Y19238   2.418   2.706   7.268 -1.5678 -0.4600 -1.2822
  170SOPE   C3619239   2.521   2.541   7.351  0.5501 -0.3087 -0.3971
  170SOPE   H6X19240   2.621   2.582   7.326  0.6201  0.4233  1.0186
  170SOPE   H6Y19241   2.532   2.431   7.333  0.7963 -0.0803 -1.7552
  170SOPE   C3719242   2.482   2.567   7.499 -0.3419 -0.0481 -0.0873
  170SOPE   H7X19243   2.458   2.675   7.504 -1.1990 -0.0120 -3.0001
  170SOPE   H7Y19244   2.569   2.550   7.566  2.1973  1.0950 -2.8448
  170SOPE   C3819245   2.365   2.471   7.538 -0.4910 -0.2351 -0.3483
  170SOPE   H8X19246   2.383   2.369   7.498  2.2719 -0.3453  0.9766
  170SOPE   H8Y19247   2.269   2.510   7.496 -0.1532  0.2021 -0.7260
  170SOPE   C3919248   2.330   2.464   7.683 -0.5750 -0.0626 -0.4391
  170SOPE   H9X19249   2.279   2.561   7.704 -2.5226 -1.0742 -0.2910
  170SOPE   H9Y19250   2.416   2.459   7.754  0.0788  0.1376 -1.2039
  170SOPE  C31019251   2.238   2.346   7.721 -0.2473 -0.7139  0.6228
  170SOPE  H10X19252   2.288   2.254   7.683  0.1301 -0.6443  0.9372
  170SOPE  H10Y19253   2.141   2.372   7.674 -0.4886 -0.5911  1.1764
  170SOPE  C31119254   2.214   2.324   7.874  0.0920 -0.0667  0.3084
  170SOPE  H11X19255   2.119   2.270   7.894  0.4457 -0.2043  1.6816
  170SOPE  H11Y19256   2.223   2.420   7.929 -1.0934 -0.0122  0.4246
  170SOPE  C31219257   2.316   2.219   7.931  0.2221  0.0534 -0.4415
  170SOPE  H12X19258   2.421   2.252   7.914  0.0116  0.0952 -1.7988
  170SOPE  H12Y19259   2.295   2.128   7.870  2.4734 -1.4049  0.8327
  170SOPE  C31319260   2.301   2.195   8.078  0.5029  0.2285  0.2600
  170SOPE  H13X19261   2.191   2.194   8.094  0.7257  0.5160  2.0371
  170SOPE  H13Y19262   2.343   2.284   8.131  0.5089  1.2877 -1.4525
  170SOPE  C31419263   2.370   2.065   8.116 -1.0334  0.2308  0.4407
  170SOPE  H14X19264   2.348   1.987   8.040 -0.2656 -1.0729  1.5031
  170SOPE  H14Y19265   2.328   2.020   8.208 -1.3605 -0.1259  0.1209
  170SOPE  C31519266   2.524   2.080   8.118  0.5713 -0.1613  0.0509
  170SOPE  H15X19267   2.545   2.123   8.219 -1.3807 -0.2142  0.5176
  170SOPE  H15Y19268   2.559   2.158   8.047 -0.5046  0.2048 -0.0865
  170SOPE  C31619269   2.593   1.949   8.111 -0.4043 -0.0535  0.1120
  170SOPE  H16X19270   2.563   1.910   8.012 -1.9153  1.7489 -0.2035
  170SOPE  H16Y19271   2.550   1.881   8.188 -1.3373  2.7090  2.2261
  170SOPE  C31719272   2.740   1.950   8.127 -0.5705 -0.2863 -0.0686
  170SOPE  H17X19273   2.782   2.018   8.050 -1.4355 -0.3501 -0.6084
  170SOPE  H17Y19274   2.761   1.842   8.111 -1.0900 -0.2573 -1.0087
  170SOPE  C31819275   2.782   1.981   8.274  0.8748 -0.1427  0.2660
  170SOPE  H18X19276   2.730   1.911   8.342  1.9421 -0.3856  0.8670
  170SOPE  H18Y19277   2.755   2.085   8.300 -0.1949  0.2100 -1.9758
  170SOPE  H18Z19278   2.892   1.973   8.290  1.1373 -0.6262 -1.5385
  171SOPE     N19279   3.262   5.542   6.318  0.0359  0.1364 -0.3904
  171SOPE   HN119280   3.257   5.646   6.327  2.2142  0.1400  1.8870
  171SOPE   HN219281   3.297   5.510   6.225  0.6822 -3.0627  0.8584
  171SOPE   HN319282   3.174   5.501   6.353 -0.2199  2.5500  2.1860
  171SOPE   C1219283   3.349   5.489   6.424 -0.1639  0.3197 -0.3507
  171SOPE  H12A19284   3.273   5.462   6.501  1.3655 -1.5687  0.6025
  171SOPE  H12B19285   3.418   5.568   6.461 -0.2504 -0.1920  0.9913
  171SOPE   C1119286   3.424   5.358   6.379 -0.3262  0.3027 -0.0463
  171SOPE  H11A19287   3.480   5.330   6.471 -0.1449 -0.0643 -0.2684
  171SOPE  H11B19288   3.502   5.387   6.305 -0.2787 -2.8644 -1.3851
  171SOPE     P19289   3.283   5.143   6.413 -0.0264 -0.1190 -0.4262
  171SOPE   O1319290   3.261   5.030   6.328  0.2370 -0.1666  0.0754
  171SOPE   O1419291   3.171   5.192   6.494 -0.1902 -0.6612  0.0759
  171SOPE   O1219292   3.339   5.255   6.321  0.4450 -0.9990 -0.2665
  171SOPE   O1119293   3.405   5.117   6.514 -0.2197 -0.5738 -0.6037
  171SOPE    C119294   3.464   4.985   6.543  0.3360  0.0976 -0.1247
  171SOPE    HA19295   3.572   5.005   6.527  0.4050  0.6958  0.9919
  171SOPE    HB19296   3.437   4.914   6.462  0.9906 -0.1243 -0.1554
  171SOPE    C219297   3.431   4.918   6.677  0.4012  0.1203 -0.4083
  171SOPE    HS19298   3.475   4.816   6.680 -2.2519 -1.0857  0.6713
  171SOPE   O2119299   3.291   4.920   6.697  0.3019  0.5912  0.2000
  171SOPE   C2119300   3.243   4.813   6.774 -0.1430 -0.4992 -0.1485
  171SOPE   O2219301   3.321   4.728   6.812 -0.0483 -0.5028 -0.1775
  171SOPE   C2219302   3.098   4.835   6.808 -0.0016  0.6407 -0.1876
  171SOPE   H2R19303   3.043   4.854   6.714 -0.8941  0.5077  0.2973
  171SOPE   H2S19304   3.087   4.930   6.865 -3.8826  0.5040 -0.4968
  171SOPE    C319305   3.491   4.999   6.790 -0.2902  0.3232  0.5216
  171SOPE    HX19306   3.444   5.100   6.793 -0.2879  0.3391 -0.0060
  171SOPE    HY19307   3.596   5.027   6.768 -0.8460  0.6532 -2.0330
  171SOPE   O3119308   3.464   4.942   6.921 -0.5898  0.2382 -0.3818
  171SOPE   C3119309   3.547   4.842   6.950 -0.0547  0.3942  0.1762
  171SOPE   O3219310   3.651   4.821   6.894  0.1960 -0.0976  0.1848
  171SOPE   C3219311   3.500   4.774   7.078  0.1994 -0.3452 -0.0430
  171SOPE   H2X19312   3.586   4.707   7.100  0.6740 -0.1144 -1.1096
  171SOPE   H2Y19313   3.417   4.715   7.034 -0.6373  0.8400 -0.1055
  171SOPE   C2319314   3.028   4.728   6.891 -0.2043  0.1222 -0.3470
  171SOPE   H3R19315   3.056   4.632   6.844 -3.4375 -1.1178 -0.0072
  171SOPE   H3S19316   2.917   4.724   6.895 -0.1604 -2.4602 -0.4534
  171SOPE   C2419317   3.077   4.745   7.042 -0.0350  0.1450  0.1057
  171SOPE   H4R19318   3.184   4.721   7.059  0.1013  0.6957  0.0499
  171SOPE   H4S19319   3.061   4.854   7.060 -0.0280  0.2953 -0.7397
  171SOPE   C2519320   2.991   4.677   7.147  0.2616 -0.3565 -0.3875
  171SOPE   H5R19321   2.888   4.703   7.115  0.4120 -1.3716 -1.8014
  171SOPE   H5S19322   3.018   4.569   7.146  0.6812 -0.2703  0.7003
  171SOPE   C2619323   3.026   4.722   7.290 -0.5242 -0.3838 -0.0056
  171SOPE   H6R19324   3.086   4.650   7.349  0.1042 -1.0804 -1.4608
  171SOPE   H6S19325   3.081   4.818   7.284 -0.9524 -0.2272 -2.1993
  171SOPE   C2719326   2.896   4.771   7.359  0.1006 -0.2139  0.6125
  171SOPE   H7R19327   2.837   4.830   7.287  0.9983 -0.1669 -0.1037
  171SOPE   H7S19328   2.857   4.670   7.386  1.9050 -0.2309  3.7453
  171SOPE   C2819329   2.912   4.858   7.486  0.2744 -0.3632 -0.4118
  171SOPE   H8R19330   2.966   4.953   7.465  0.4747 -0.9048 -2.6554
  171SOPE   H8S19331   2.811   4.877   7.527  0.6312  1.9501 -0.5110
  171SOPE   C2919332   3.009   4.794   7.589 -0.3565  0.5627  0.1468
  171SOPE   H9119333   3.100   4.753   7.543  0.1255 -1.3605  2.6199
  171SOPE  C21019334   2.995   4.773   7.718 -0.2081 -0.4075  0.5597
  171SOPE  H10119335   3.071   4.732   7.785  0.8770  0.1171 -0.3223
  171SOPE  C21119336   2.870   4.810   7.788  0.4484  0.2334  0.5303
  171SOPE  H11R19337   2.785   4.817   7.716  0.7552 -0.3564  0.1047
  171SOPE  H11S19338   2.869   4.898   7.855 -2.6272  0.6822  0.0515
  171SOPE  C21219339   2.825   4.693   7.876  0.4888  0.1732  0.5434
  171SOPE  H12R19340   2.862   4.593   7.844 -1.2257 -1.2330  2.6989
  171SOPE  H12S19341   2.716   4.681   7.859  0.2868  2.9032 -0.5319
  171SOPE  C21319342   2.852   4.703   8.022  0.0321 -0.4114  0.7401
  171SOPE  H13R19343   2.782   4.780   8.060 -0.0376 -0.2094  0.2006
  171SOPE  H13S19344   2.954   4.746   8.023 -0.4482  0.7576  1.5616
  171SOPE  C21419345   2.816   4.576   8.097 -0.3053  0.5867 -0.2076
  171SOPE  H14R19346   2.865   4.569   8.197 -0.0647 -0.4031 -0.3896
  171SOPE  H14S19347   2.851   4.500   8.024  0.3943 -0.1955  0.9104
  171SOPE  C21519348   2.664   4.557   8.100  0.1175  0.1310  0.2239
  171SOPE  H15R19349   2.630   4.541   7.995 -2.0482 -0.4228  0.9786
  171SOPE  H15S19350   2.616   4.649   8.139 -2.3984 -1.3912  0.9027
  171SOPE  C21619351   2.624   4.435   8.187 -0.3823 -0.3985  0.7894
  171SOPE  H16R19352   2.640   4.465   8.292 -2.2726 -0.9795  1.2799
  171SOPE  H16S19353   2.699   4.362   8.149  1.0625  1.9642 -1.2729
  171SOPE  C21719354   2.476   4.399   8.152 -0.0856  0.2315  0.0254
  171SOPE  H17R19355   2.485   4.353   8.051 -2.4789 -0.3485  0.0342
  171SOPE  H17S19356   2.414   4.491   8.163 -0.2696 -0.0826  1.8738
  171SOPE  C21819357   2.434   4.283   8.252  0.0481  0.3010  0.1652
  171SOPE  H18R19358   2.448   4.308   8.359  0.4688 -2.1016  0.7373
  171SOPE  H18S19359   2.475   4.180   8.240  1.0162  0.4624  1.7302
  171SOPE  H18T19360   2.325   4.274   8.235  0.2673 -1.1972 -0.6312
  171SOPE   C3319361   3.455   4.855   7.196 -0.3485  0.0657  0.1872
  171SOPE   H3X19362   3.367   4.919   7.175 -2.0553 -2.1990  0.0164
  171SOPE   H3Y19363   3.529   4.931   7.229  0.3368 -0.9149  0.9639
  171SOPE   C3419364   3.400   4.763   7.309 -0.9212 -0.8940  0.5100
  171SOPE   H4X19365   3.475   4.682   7.322 -0.8353 -1.2508 -1.7247
  171SOPE   H4Y19366   3.308   4.724   7.261  0.7934 -0.6539 -3.3878
  171SOPE   C3519367   3.393   4.838   7.449  0.0637 -0.5990  0.0613
  171SOPE   H5X19368   3.302   4.900   7.435 -0.7920 -1.9598 -0.6454
  171SOPE   H5Y19369   3.481   4.902   7.470  1.2740 -2.8817  2.4594
  171SOPE   C3619370   3.386   4.741   7.566  0.1615 -0.1312  0.0166
  171SOPE   H6X19371   3.484   4.692   7.581  0.5657  1.0387  1.4942
  171SOPE   H6Y19372   3.310   4.663   7.544 -1.3003  0.4989  2.4348
  171SOPE   C3719373   3.353   4.811   7.692 -0.2708  0.1128  0.4568
  171SOPE   H7X19374   3.256   4.863   7.682 -1.2263 -1.7497 -0.3657
  171SOPE   H7Y19375   3.433   4.882   7.722 -0.5551  0.3030  0.7660
  171SOPE   C3819376   3.345   4.710   7.815  0.2977 -0.9318  0.0445
  171SOPE   H8X19377   3.440   4.655   7.832  0.0874 -0.7814  1.8633
  171SOPE   H8Y19378   3.269   4.633   7.789  0.5713 -0.9117 -0.8574
  171SOPE   C3919379   3.320   4.791   7.946  0.0588  0.6881 -0.0054
  171SOPE   H9X19380   3.244   4.867   7.915  1.5268  1.3027 -2.3439
  171SOPE   H9Y19381   3.409   4.839   7.991 -0.3071  0.0592  1.4274
  171SOPE  C31019382   3.266   4.702   8.053 -0.0693  0.3084  0.0022
  171SOPE  H10X19383   3.332   4.617   8.081 -1.8674 -0.9483  0.5895
  171SOPE  H10Y19384   3.171   4.664   8.011  0.5621  0.0081 -1.2020
  171SOPE  C31119385   3.250   4.795   8.175  0.2576 -0.0532  0.0132
  171SOPE  H11X19386   3.238   4.901   8.143  3.2430  1.0442  2.1201
  171SOPE  H11Y19387   3.354   4.796   8.213  0.7041 -2.4404 -0.9312
  171SOPE  C31219388   3.167   4.730   8.284 -1.0073 -0.9075  0.2129
  171SOPE  H12X19389   3.062   4.719   8.251 -1.0747 -1.0160  0.4653
  171SOPE  H12Y19390   3.173   4.795   8.374  2.0719 -0.3880 -0.2433
  171SOPE  C31319391   3.211   4.588   8.323 -0.4875 -0.5572 -0.1263
  171SOPE  H13X19392   3.301   4.600   8.387  0.1212  0.9293 -1.2035
  171SOPE  H13Y19393   3.231   4.514   8.242 -1.4638 -0.8312 -0.1313
  171SOPE  C31419394   3.104   4.520   8.411  0.5428 -0.1831  0.0931
  171SOPE  H14X19395   3.010   4.490   8.361  1.6175 -0.1147 -2.0522
  171SOPE  H14Y19396   3.090   4.589   8.497  0.2465 -0.5107  0.3125
  171SOPE  C31519397   3.144   4.397   8.491  0.0447  0.1743  0.2435
  171SOPE  H15X19398   3.232   4.428   8.551  0.2220 -0.1007  0.1306
  171SOPE  H15Y19399   3.172   4.318   8.417  2.5487  3.4968 -2.7212
  171SOPE  C31619400   3.023   4.344   8.574  0.5342  0.2182  0.5455
  171SOPE  H16X19401   3.063   4.254   8.626  3.7561  1.8765  1.2370
  171SOPE  H16Y19402   2.934   4.322   8.512  1.4362  1.0615 -1.1159
  171SOPE  C31719403   2.982   4.426   8.700 -0.0470  0.7415 -0.1928
  171SOPE  H17X19404   2.956   4.526   8.661  1.5098  2.1679  2.1561
  171SOPE  H17Y19405   3.071   4.446   8.764 -0.2990  0.5343  0.2292
  171SOPE  C31819406   2.868   4.367   8.780 -0.0711  0.3345 -1.3525
  171SOPE  H18X19407   2.833   4.444   8.852 -2.5603 -2.7846  1.0533
  171SOPE  H18Y19408   2.912   4.288   8.845  2.5956  1.5920 -1.4753
  171SOPE  H18Z19409   2.772   4.340   8.731 -1.4698  1.4701  0.6534
  172SOPE     N19410   4.319   0.035   6.439  1.0129 -0.5227 -0.0939
  172SOPE   HN119411   4.264   0.114   6.478  0.2630  0.5737 -3.0894
  172SOPE   HN219412   4.400   0.025   6.504  1.9341  1.9484 -0.7421
  172SOPE   HN319413   4.357   0.066   6.347 -0.8076 -0.0918 -0.7376
  172SOPE   C1219414   4.251  -0.100   6.441 -0.1518 -0.2885 -0.3793
  172SOPE  H12A19415   4.142  -0.092   6.418 -0.3507  1.3471  0.9809
  172SOPE  H12B19416   4.268  -0.127   6.547  0.1972 -0.7044 -0.5349
  172SOPE   C1119417   4.319  -0.191   6.340 -0.4760 -0.1581 -0.1098
  172SOPE  H11A19418   4.300  -0.148   6.239  1.7747  0.6425 -0.2268
  172SOPE  H11B19419   4.268  -0.289   6.350  1.7918 -1.5592 -1.3822
  172SOPE     P19420   4.519  -0.325   6.448  0.0402  0.1974  0.0674
  172SOPE   O1319421   4.644  -0.280   6.495 -0.1920  0.5224  0.5420
  172SOPE   O1419422   4.511  -0.438   6.353 -0.5659  0.4670  0.2415
  172SOPE   O1219423   4.456  -0.201   6.376 -0.4293  0.4178  0.0877
  172SOPE   O1119424   4.423  -0.349   6.574 -0.1190  0.3287  0.7559
  172SOPE    C119425   4.450  -0.402   6.701 -0.6730 -0.2538 -0.0573
  172SOPE    HA19426   4.544  -0.365   6.747  1.0316 -4.3571  0.1860
  172SOPE    HB19427   4.463  -0.513   6.700 -1.2232 -0.3206 -0.0253
  172SOPE    C219428   4.325  -0.372   6.795  0.5646  0.7536 -0.7978
  172SOPE    HS19429   4.320  -0.261   6.789  0.8245  1.0852  2.6676
  172SOPE   O2119430   4.365  -0.408   6.926 -0.2771  0.2423  0.2561
  172SOPE   C2119431   4.443  -0.326   6.997 -0.3828 -0.1537  0.7328
  172SOPE   O2219432   4.471  -0.213   6.961  0.0308  0.1186 -0.5282
  172SOPE   C2219433   4.504  -0.387   7.123  0.2213 -0.3406  0.5174
  172SOPE   H2R19434   4.582  -0.459   7.092 -1.1406 -0.9185 -1.7966
  172SOPE   H2S19435   4.420  -0.439   7.174 -2.0143  1.2881 -1.2999
  172SOPE    C319436   4.185  -0.434   6.761 -0.1172  0.0823 -0.3037
  172SOPE    HX19437   4.201  -0.543   6.779  2.1567  0.6280  1.5148
  172SOPE    HY19438   4.160  -0.423   6.654 -1.3288  0.9464  0.0458
  172SOPE   O3119439   4.081  -0.371   6.837  0.3524  0.1792 -0.7556
  172SOPE   C3119440   4.015  -0.273   6.782 -0.6689 -0.2148  0.5714
  172SOPE   O3219441   4.042  -0.218   6.677  0.8110  0.5149 -0.1269
  172SOPE   C3219442   3.918  -0.218   6.888 -0.0819 -0.5683  0.1655
  172SOPE   H2X19443   3.834  -0.291   6.896 -0.9551  0.3297 -0.6205
  172SOPE   H2Y19444   3.881  -0.128   6.836 -1.8282 -1.4687 -0.2235
  172SOPE   C2319445   4.568  -0.277   7.214 -0.4036  0.1158 -0.1973
  172SOPE   H3R19446   4.480  -0.215   7.240 -0.7732 -0.3038 -0.4318
  172SOPE   H3S19447   4.642  -0.215   7.160 -0.6304 -0.3783 -1.0961
  172SOPE   C2419448   4.646  -0.334   7.335  0.2613  0.2047 -0.0470
  172SOPE   H4R19449   4.578  -0.394   7.398 -0.6504 -2.1255 -3.0052
  172SOPE   H4S19450   4.739  -0.386   7.302 -0.9771 -0.7230 -2.3264
  172SOPE   C2519451   4.694  -0.219   7.426  0.7312  0.0604 -0.1621
  172SOPE   H5R19452   4.754  -0.152   7.361  0.9229 -0.8768 -0.9729
  172SOPE   H5S19453   4.606  -0.151   7.440  0.0201 -0.6289 -1.1495
  172SOPE   C2619454   4.766  -0.241   7.559  0.0317  0.2406 -0.3910
  172SOPE   H6R19455   4.839  -0.324   7.555  1.6495  1.6037 -0.2830
  172SOPE   H6S19456   4.828  -0.152   7.585  0.7867 -0.1055 -0.9846
  172SOPE   C2719457   4.661  -0.265   7.673  0.7656 -0.5319  0.1940
  172SOPE   H7R19458   4.723  -0.229   7.758  0.1153  0.0239  0.4389
  172SOPE   H7S19459   4.570  -0.203   7.658 -0.0004 -1.4643  0.8996
  172SOPE   C2819460   4.609  -0.412   7.694 -0.3680 -0.5228  0.0168
  172SOPE   H8R19461   4.552  -0.451   7.608 -0.1773 -1.2003  0.1829
  172SOPE   H8S19462   4.704  -0.469   7.685 -1.2920 -2.2229  0.5751
  172SOPE   C2919463   4.533  -0.431   7.821 -0.7682 -0.2396 -0.8205
  172SOPE   H9119464   4.434  -0.381   7.824 -0.9050 -0.5104 -0.8604
  172SOPE  C21019465   4.572  -0.521   7.915 -0.5076  0.0185 -0.7414
  172SOPE  H10119466   4.500  -0.539   7.996  0.5624  0.7634  0.4052
  172SOPE  C21119467   4.698  -0.603   7.919  0.2418 -0.3719  0.2616
  172SOPE  H11R19468   4.739  -0.617   7.817  0.1689  0.5172  0.0995
  172SOPE  H11S19469   4.677  -0.706   7.955  0.7064 -1.4989 -2.4593
  172SOPE  C21219470   4.803  -0.548   8.014  0.4586 -0.4493 -0.3596
  172SOPE  H12R19471   4.887  -0.620   8.017  1.2166  0.4534  0.9448
  172SOPE  H12S19472   4.757  -0.560   8.115 -1.2961  1.1036 -0.9030
  172SOPE  C21319473   4.859  -0.405   7.980 -0.1306 -0.4432  0.0591
  172SOPE  H13R19474   4.771  -0.336   7.980 -1.3128 -1.8355 -2.1377
  172SOPE  H13S19475   4.904  -0.400   7.879  1.6579  2.4863  0.8691
  172SOPE  C21419476   4.980  -0.356   8.068 -0.0661 -0.1761 -0.4209
  172SOPE  H14R19477   5.005  -0.254   8.032 -0.0067  0.0616  0.2763
  172SOPE  H14S19478   5.072  -0.417   8.054  0.8541  1.3293 -1.2586
  172SOPE  C21519479   4.952  -0.363   8.214 -0.4229 -0.4344  0.0656
  172SOPE  H15R19480   4.957  -0.464   8.261  1.0755  0.2386  1.4365
  172SOPE  H15S19481   4.852  -0.316   8.219 -0.4632 -0.4700 -0.3230
  172SOPE  C21619482   5.040  -0.279   8.308  0.6284  0.3344  0.0608
  172SOPE  H16R19483   5.144  -0.319   8.309 -0.3142 -2.2541  0.2436
  172SOPE  H16S19484   4.993  -0.271   8.409  2.1651 -0.1262  0.8558
  172SOPE  C21719485   5.059  -0.130   8.271 -0.2248 -0.9751 -0.4750
  172SOPE  H17R19486   5.110  -0.146   8.174 -1.5862  0.4921 -1.4817
  172SOPE  H17S19487   5.125  -0.080   8.345 -0.2185 -0.6383 -0.7095
  172SOPE  C21819488   4.937  -0.054   8.240  1.0752 -0.3541  0.3310
  172SOPE  H18R19489   4.896  -0.023   8.339  0.1578  1.7002 -0.6269
  172SOPE  H18S19490   4.859  -0.117   8.192  0.2033  0.8448  0.1280
  172SOPE  H18T19491   4.955   0.038   8.181  0.8438 -0.6621 -0.2232
  172SOPE   C3319492   3.981  -0.195   7.028  0.3941  1.1208 -0.1080
  172SOPE   H3X19493   3.990  -0.294   7.078  2.4651  1.2694 -0.1422
  172SOPE   H3Y19494   3.912  -0.133   7.090 -0.2472 -0.5808  0.9480
  172SOPE   C3419495   4.108  -0.121   7.023 -0.2957 -0.2826 -0.1623
  172SOPE   H4X19496   4.084  -0.032   6.960 -0.0966  0.7915  1.2343
  172SOPE   H4Y19497   4.183  -0.188   6.976  0.3625  1.1490 -1.2330
  172SOPE   C3519498   4.152  -0.078   7.166 -0.4803 -0.5913  0.0585
  172SOPE   H5X19499   4.074  -0.011   7.209  1.4855  0.8263  1.5835
  172SOPE   H5Y19500   4.245  -0.019   7.152 -0.4985 -0.5303  0.1919
  172SOPE   C3619501   4.187  -0.191   7.263  0.0226  0.2279 -0.6649
  172SOPE   H6X19502   4.268  -0.252   7.218  1.2916  1.4302 -0.0842
  172SOPE   H6Y19503   4.097  -0.253   7.285 -0.0156  0.7664  0.7994
  172SOPE   C3719504   4.241  -0.160   7.410  0.9012  0.3568  0.3358
  172SOPE   H7X19505   4.169  -0.088   7.454  0.9809  2.4428 -2.6638
  172SOPE   H7Y19506   4.336  -0.108   7.387  1.8068  0.2377  3.3502
  172SOPE   C3819507   4.268  -0.284   7.497 -0.2416 -0.6990  0.2493
  172SOPE   H8X19508   4.320  -0.257   7.591 -0.5373 -3.0756  1.1720
  172SOPE   H8Y19509   4.335  -0.355   7.444  1.2654  1.4047 -0.7782
  172SOPE   C3919510   4.140  -0.360   7.549 -0.2805  0.0615  0.9769
  172SOPE   H9X19511   4.179  -0.437   7.618  0.1928 -1.8544 -1.2749
  172SOPE   H9Y19512   4.099  -0.427   7.470  1.6897 -2.2570  1.8046
  172SOPE  C31019513   4.035  -0.277   7.612  0.4807  0.3280 -0.3135
  172SOPE  H10X19514   3.952  -0.350   7.626  0.6041  0.4078  0.9987
  172SOPE  H10Y19515   4.000  -0.197   7.543  1.1444  0.9344  0.0437
  172SOPE  C31119516   4.076  -0.200   7.742  0.0772  0.2100  1.0062
  172SOPE  H11X19517   4.007  -0.114   7.734 -1.2278 -0.9411 -0.6982
  172SOPE  H11Y19518   4.177  -0.155   7.730 -0.4461  0.7103 -2.5713
  172SOPE  C31219519   4.061  -0.281   7.866 -0.4899  0.0679  0.0841
  172SOPE  H12X19520   4.138  -0.362   7.865 -0.8966 -0.3255 -0.8256
  172SOPE  H12Y19521   3.960  -0.328   7.861  0.1905 -1.3823 -0.7844
  172SOPE  C31319522   4.094  -0.186   7.976 -0.2714 -0.5568 -0.2173
  172SOPE  H13X19523   4.029  -0.096   7.968  1.8591  1.0850  0.1941
  172SOPE  H13Y19524   4.199  -0.153   7.964 -0.5533  0.9004  0.9424
  172SOPE  C31419525   4.075  -0.239   8.118 -0.1863 -0.5923  0.2411
  172SOPE  H14X19526   4.164  -0.302   8.141  0.7370  0.4416 -0.4053
  172SOPE  H14Y19527   3.985  -0.305   8.115 -0.8027  0.2713 -1.0962
  172SOPE  C31519528   4.079  -0.128   8.227 -0.5147  0.0286  0.0494
  172SOPE  H15X19529   3.993  -0.058   8.219 -0.5839 -0.1419 -0.7332
  172SOPE  H15Y19530   4.173  -0.070   8.226 -1.0769  0.9521 -0.1259
  172SOPE  C31619531   4.070  -0.183   8.368  0.0816 -0.6955 -0.2153
  172SOPE  H16X19532   4.174  -0.219   8.383  0.2134  0.2855  1.4038
  172SOPE  H16Y19533   3.998  -0.266   8.384  0.5592 -0.9398  0.6931
  172SOPE  C31719534   4.061  -0.065   8.465 -0.9725  0.6527 -0.5287
  172SOPE  H17X19535   3.954  -0.035   8.471 -0.7766  1.4833 -1.0248
  172SOPE  H17Y19536   4.128   0.015   8.429  0.3938 -0.5746 -0.7903
  172SOPE  C31819537   4.106  -0.115   8.603  0.9579 -0.5630  0.2290
  172SOPE  H18X19538   4.033  -0.183   8.653  0.8853  0.0184  0.9298
  172SOPE  H18Y19539   4.123  -0.026   8.668  1.8682 -0.8855  0.4446
  172SOPE  H18Z19540   4.200  -0.174   8.601 -0.5686 -3.2742  1.7573
  173SAPI   C1219541   5.877   0.280  10.950 -0.3331 -0.2856  0.0806
  173SAPI    H219542   5.837   0.266  10.847 -2.4369 -0.2769  0.8527
  173SAPI    O219543   5.804   0.175  11.023 -0.1316 -0.3273 -0.1682
  173SAPI   HO219544   5.709   0.179  11.013 -0.1557 -1.7847 -0.8604
  173SAPI   C1319545   6.030   0.268  10.958 -0.2310  0.3049 -0.1877
  173SAPI    H319546   6.074   0.345  10.891  0.6530 -0.6900 -0.7706
  173SAPI    O319547   6.078   0.151  10.899 -0.6872  0.4463  0.0191
  173SAPI   HO319548   6.053   0.078  10.956 -0.9715 -0.0106 -0.6901
  173SAPI   C1419549   6.074   0.297  11.102  0.4934  0.1162 -0.1844
  173SAPI    H419550   6.020   0.222  11.164  1.5051 -0.9965 -0.6102
  173SAPI    O419551   6.208   0.268  11.120 -0.1895  0.0788 -0.1787
  173SAPI   HO419552   6.229   0.179  11.149  0.1622 -0.7115 -2.5565
  173SAPI   C1519553   6.034   0.441  11.139 -0.7905  0.3208 -0.0397
  173SAPI    H519554   6.071   0.508  11.059 -1.5020  0.8201  0.0440
  173SAPI    O519555   6.090   0.484  11.267 -0.2426 -0.3290  0.4826
  173SAPI   HO519556   6.055   0.572  11.284  1.7548  0.7446 -0.5867
  173SAPI   C1619557   5.881   0.454  11.142  0.0588 -0.0740  0.3835
  173SAPI    H619558   5.841   0.379  11.214  1.5093 -0.0084  1.2927
  173SAPI    O619559   5.846   0.593  11.172 -0.2113 -0.0219  0.4022
  173SAPI   HO619560   5.899   0.655  11.121 -1.5664  1.7363  1.0315
  173SAPI   C1119561   5.831   0.417  10.998 -0.0316  0.0463 -0.4993
  173SAPI    H119562   5.873   0.492  10.927  0.6536 -1.0660 -1.3091
  173SAPI     P19563   5.592   0.538  10.943 -0.2855 -0.1922 -0.0858
  173SAPI   O1319564   5.672   0.653  10.909 -0.3775 -0.0977  0.1418
  173SAPI   O1419565   5.473   0.555  11.033  0.0280  0.0289 -0.0557
  173SAPI   O1219566   5.690   0.416  10.992 -0.3019  0.2712 -1.0102
  173SAPI   O1119567   5.543   0.485  10.800 -0.1337 -0.5915 -0.8816
  173SAPI    C119568   5.512   0.348  10.773  0.0399 -0.1027  0.4704
  173SAPI    HA19569   5.572   0.273  10.829  2.6478  0.5715 -1.2560
  173SAPI    HB19570   5.407   0.315  10.788  0.6862 -2.6682 -0.1394
  173SAPI    C219571   5.544   0.313  10.630 -0.6867 -0.2763  0.9912
  173SAPI    HS19572   5.654   0.329  10.616 -0.8506  0.3349  0.3214
  173SAPI   O2119573   5.470   0.392  10.531  0.3642  0.2080 -0.5453
  173SAPI   C2119574   5.542   0.440  10.435 -0.0018 -0.1877 -0.1450
  173SAPI   O2219575   5.663   0.430  10.420  0.1640 -0.0806 -0.0518
  173SAPI   C2219576   5.453   0.511  10.339  0.0380 -0.6635  0.0662
  173SAPI   H2R19577   5.364   0.449  10.318  0.6765 -2.0539  1.2829
  173SAPI   H2S19578   5.407   0.602  10.383  3.3262  1.6624 -0.8754
  173SAPI    C319579   5.513   0.168  10.595 -0.1825  0.9957 -0.0444
  173SAPI    HX19580   5.404   0.160  10.575  0.2580  0.6210 -2.5879
  173SAPI    HY19581   5.535   0.103  10.683  0.2746 -1.9928 -2.1833
  173SAPI   O3119582   5.590   0.115  10.482 -0.3291 -0.8028 -0.1565
  173SAPI   C3119583   5.593  -0.017  10.457 -0.1627 -0.1047  0.5340
  173SAPI   O3219584   5.544  -0.097  10.531  0.2120 -0.0439  0.2068
  173SAPI   C3219585   5.660  -0.043  10.326  0.0073  0.2555  0.3250
  173SAPI   H2X19586   5.755  -0.100  10.341  0.7837  1.5142  0.3012
  173SAPI   H2Y19587   5.682   0.059  10.289 -1.7488  0.9306  1.0595
  173SAPI   C2319588   5.527   0.543  10.206 -0.1356 -0.2431  0.4088
  173SAPI   H3R19589   5.561   0.453  10.151  2.1381  0.6101  0.3078
  173SAPI   H3S19590   5.601   0.618  10.243 -1.0255  1.6407 -1.4031
  173SAPI   C2419591   5.428   0.601  10.099 -0.4666 -0.1406  0.2011
  173SAPI   H4R19592   5.372   0.518  10.050  1.5885 -0.6426 -1.4608
  173SAPI   H4S19593   5.479   0.642  10.010 -0.9941 -0.6143 -0.3213
  173SAPI   C2519594   5.326   0.705  10.142  0.1016 -0.3834 -0.1367
  173SAPI   H5R19595   5.247   0.669  10.210 -0.6348 -1.7154 -1.6278
  173SAPI   C2619596   5.323   0.838  10.105 -0.4739 -0.8902 -0.4461
  173SAPI   H6R19597   5.236   0.903  10.125 -1.3958 -2.8692  2.6346
  173SAPI   C2719598   5.424   0.908  10.017  0.2592  0.0921 -0.1403
  173SAPI   H7R19599   5.372   0.939   9.924 -2.4606 -0.6618  1.0305
  173SAPI   H7S19600   5.503   0.840   9.980 -0.3811 -0.6305 -0.1874
  173SAPI   C2819601   5.497   1.014  10.100  0.8493  0.6302 -0.3003
  173SAPI   H8R19602   5.533   0.977  10.197  0.8468 -0.3085 -0.6457
  173SAPI   C2919603   5.537   1.136  10.063  0.4366 -0.4324  0.3496
  173SAPI   H9R19604   5.596   1.192  10.137 -1.3703  0.9613  0.8256
  173SAPI  C21019605   5.518   1.194   9.927 -0.2655  0.1604 -0.2761
  173SAPI  H10R19606   5.496   1.303   9.932  0.3416  0.2918 -0.3974
  173SAPI  H10S19607   5.419   1.167   9.884 -1.9641  0.4179  3.0565
  173SAPI  C21119608   5.628   1.185   9.832 -0.7202 -0.3525  0.6773
  173SAPI  H11R19609   5.726   1.149   9.869 -0.8716  2.3716  4.3981
  173SAPI  C21219610   5.623   1.224   9.701  0.3252 -1.0080  0.7669
  173SAPI  H12R19611   5.711   1.222   9.635  0.8897  0.7295  1.3969
  173SAPI  C21319612   5.505   1.284   9.633  0.4413  0.8072 -0.2623
  173SAPI  H13R19613   5.487   1.382   9.683 -0.1394  0.3409  0.4779
  173SAPI  H13S19614   5.411   1.229   9.657  1.1596 -0.9119 -1.2824
  173SAPI  C21419615   5.516   1.312   9.481 -0.2387  0.6906 -0.7788
  173SAPI  H14R19616   5.616   1.331   9.438 -0.2546  0.1162 -1.0723
  173SAPI  C21519617   5.418   1.306   9.392 -0.2921  0.1884 -0.4184
  173SAPI  H15R19618   5.440   1.342   9.291 -2.1332  1.5036 -0.4051
  173SAPI  C21619619   5.282   1.273   9.427  0.1212 -0.2476 -0.1392
  173SAPI  H16R19620   5.278   1.202   9.512  2.6445 -1.8219 -1.2293
  173SAPI  H16S19621   5.232   1.214   9.347  0.5295 -1.5406  0.5389
  173SAPI  C21719622   5.208   1.403   9.465  0.0080 -0.3588 -0.3395
  173SAPI  H17R19623   5.262   1.446   9.553 -0.4176 -0.0060 -0.2462
  173SAPI  H17S19624   5.111   1.371   9.506  0.7760 -2.4222 -0.0211
  173SAPI  C21819625   5.193   1.519   9.359 -0.0337 -0.0738 -0.0974
  173SAPI  H18R19626   5.299   1.529   9.326  0.2919 -1.1044  0.5813
  173SAPI  H18S19627   5.163   1.611   9.413  2.8499  1.5449 -1.0042
  173SAPI  C21919628   5.092   1.490   9.255  0.5440 -1.2715  0.3747
  173SAPI  H19R19629   4.999   1.538   9.291 -0.0145 -1.2087 -1.0614
  173SAPI  H19S19630   5.063   1.383   9.257 -1.0654 -0.9305 -1.2612
  173SAPI  C22019631   5.130   1.556   9.118 -0.1577  0.8502  0.8373
  173SAPI  H20R19632   5.053   1.546   9.039  0.3165 -1.6020  0.5841
  173SAPI  H20S19633   5.224   1.510   9.081 -1.2951 -0.7443 -0.1972
  173SAPI  H20T19634   5.147   1.665   9.125  0.7953  0.7303  0.5467
  173SAPI   C3319635   5.563  -0.115  10.231 -0.2821  0.1751 -0.6442
  173SAPI   H3X19636   5.464  -0.065  10.219  0.0555  1.7017  2.1767
  173SAPI   H3Y19637   5.542  -0.220  10.260 -0.7763  0.2338 -0.7812
  173SAPI   C3419638   5.608  -0.124  10.088  0.6006  0.4215 -0.0394
  173SAPI   H4X19639   5.696  -0.191  10.075  0.2122  0.1201 -1.2710
  173SAPI   H4Y19640   5.643  -0.030  10.040  0.0982  0.2868 -0.6896
  173SAPI   C3519641   5.498  -0.185  10.000 -0.4496 -0.8369  0.2248
  173SAPI   H5X19642   5.417  -0.110  10.009 -0.5505 -0.7043 -1.5327
  173SAPI   H5Y19643   5.459  -0.280  10.042 -1.1165 -0.9629 -0.6494
  173SAPI   C3619644   5.539  -0.213   9.856  0.1656  0.1167  0.3332
  173SAPI   H6X19645   5.601  -0.301   9.828 -1.8332 -1.2754  0.0344
  173SAPI   H6Y19646   5.616  -0.140   9.824  0.8509 -1.3259 -1.5636
  173SAPI   C3719647   5.421  -0.207   9.758  0.6579 -0.0987 -0.1870
  173SAPI   H7X19648   5.377  -0.105   9.772  2.2846  0.7865 -1.2034
  173SAPI   H7Y19649   5.345  -0.283   9.786 -0.3009  0.4866 -1.0904
  173SAPI   C3819650   5.461  -0.227   9.614  0.1314 -0.0669  0.7025
  173SAPI   H8X19651   5.368  -0.208   9.556 -1.4573 -2.4338  2.3222
  173SAPI   H8Y19652   5.492  -0.333   9.602  1.1863  0.1850  1.0747
  173SAPI   C3919653   5.570  -0.138   9.561 -0.3644 -0.0052 -0.0982
  173SAPI   H9X19654   5.666  -0.173   9.604 -0.4030  1.0340  0.8943
  173SAPI   H9Y19655   5.562  -0.039   9.612  0.0491 -0.1469  0.2499
  173SAPI  C31019656   5.582  -0.128   9.414 -0.0809  0.0653  0.2405
  173SAPI  H10X19657   5.635  -0.034   9.389  1.0502 -1.0343 -1.7299
  173SAPI  H10Y19658   5.480  -0.107   9.376 -0.2227 -0.7795  0.1446
  173SAPI  C31119659   5.625  -0.262   9.345  0.3745  0.0120 -0.0227
  173SAPI  H11X19660   5.605  -0.260   9.235 -0.5009 -1.9006  0.0738
  173SAPI  H11Y19661   5.574  -0.353   9.382 -0.0742 -0.6702 -2.1489
  173SAPI  C31219662   5.774  -0.294   9.363 -0.0743  0.2416 -0.4185
  173SAPI  H12X19663   5.788  -0.339   9.464 -1.0770  1.0578  0.1032
  173SAPI  H12Y19664   5.839  -0.205   9.352  0.2549  0.3870  2.0029
  173SAPI  C31319665   5.821  -0.398   9.264 -0.0455  0.6522 -0.4328
  173SAPI  H13X19666   5.822  -0.366   9.158  1.7916  0.8471 -0.3780
  173SAPI  H13Y19667   5.747  -0.481   9.272 -0.2155  0.8876  0.7296
  173SAPI  C31419668   5.970  -0.440   9.295 -0.3512  0.4559  0.1836
  173SAPI  H14X19669   5.978  -0.475   9.400  0.2951  0.1491  0.0400
  173SAPI  H14Y19670   6.034  -0.350   9.292 -2.7034  2.2931  1.5723
  173SAPI  C31519671   6.021  -0.552   9.203  0.9653  0.8174  0.3017
  173SAPI  H15X19672   5.936  -0.620   9.181 -0.0540  1.4560  2.0520
  173SAPI  H15Y19673   6.105  -0.604   9.254  1.7317  1.5741 -0.1535
  173SAPI  C31619674   6.071  -0.501   9.064  0.3834 -0.1375  0.2771
  173SAPI  H16X19675   6.156  -0.430   9.074  0.5277 -0.3594  0.6367
  173SAPI  H16Y19676   5.980  -0.456   9.018 -0.1703 -1.4056  0.1091
  173SAPI  C31719677   6.114  -0.615   8.968 -0.0122 -0.4641 -0.3007
  173SAPI  H17X19678   6.060  -0.707   8.999 -0.0419  0.2331  1.9026
  173SAPI  H17Y19679   6.221  -0.634   8.988 -0.2788 -0.5368  1.1765
  173SAPI  C31819680   6.078  -0.584   8.821  0.4948  0.3472 -0.4248
  173SAPI  H18X19681   5.967  -0.580   8.817  0.5355  1.1327 -1.3906
  173SAPI  H18Y19682   6.105  -0.677   8.766 -0.1447 -1.3269  1.9364
  173SAPI  H18Z19683   6.135  -0.495   8.787 -0.3540  1.0529 -0.0284
  174SAPI   C1219684   0.080   4.481  10.988 -0.7100  0.1594 -0.2532
  174SAPI    H219685   0.138   4.460  10.895 -0.6754  0.5196 -0.3147
  174SAPI    O219686   0.073   4.368  11.071  0.2195  0.4000  0.0636
  174SAPI   HO219687   0.066   4.290  11.016 -0.0474 -1.1133  2.1462
  174SAPI   C1319688   0.145   4.600  11.060 -0.1337 -0.1709 -0.3791
  174SAPI    H319689   0.149   4.683  10.987  1.1249 -0.4652 -0.6582
  174SAPI    O319690   0.283   4.582  11.098 -0.6641  0.8661  0.0238
  174SAPI   HO319691   0.336   4.620  11.027  0.1798  1.4875  0.9608
  174SAPI   C1419692   0.059   4.647  11.176  0.4221  0.7273 -0.8935
  174SAPI    H419693   0.056   4.561  11.246 -1.1801  0.4837 -1.2322
  174SAPI    O419694   0.111   4.760  11.247 -0.0676  0.1793 -0.9367
  174SAPI   HO419695   0.178   4.727  11.307 -0.8558 -1.2139 -0.7782
  174SAPI   C1519696  -0.086   4.673  11.125  0.2018  0.1566 -0.1588
  174SAPI    H519697  -0.086   4.759  11.055  1.9291  0.7324  0.4845
  174SAPI    O519698  -0.167   4.722  11.231  0.4695  0.0053 -0.3914
  174SAPI   HO519699  -0.227   4.785  11.191 -1.9087 -1.7404  0.1917
  174SAPI   C1619700  -0.139   4.552  11.052 -0.0198 -0.5020  0.5533
  174SAPI    H619701  -0.150   4.466  11.121  0.0570 -1.8226 -1.0283
  174SAPI    O619702  -0.277   4.584  11.008  0.0162  0.4566  0.0049
  174SAPI   HO619703  -0.333   4.598  11.085 -0.4074 -3.4767  0.6386
  174SAPI   C1119704  -0.053   4.516  10.933  0.1027  0.4741 -0.4748
  174SAPI    H119705  -0.036   4.606  10.870 -0.7670  1.3255  0.4564
  174SAPI     P19706  -0.085   4.393  10.699  0.0505  0.2314  0.2516
  174SAPI   O1319707  -0.071   4.249  10.661 -0.4670  0.5037 -0.0842
  174SAPI   O1419708   0.027   4.482  10.667  0.0194  0.7540  0.3988
  174SAPI   O1219709  -0.111   4.398  10.858  0.0728  0.4168 -0.2201
  174SAPI   O1119710  -0.211   4.460  10.645 -0.0120 -0.2033  0.8116
  174SAPI    C119711  -0.326   4.372  10.613 -0.6177 -0.6495  0.0729
  174SAPI    HA19712  -0.342   4.289  10.686  1.5995 -1.1313  0.0916
  174SAPI    HB19713  -0.425   4.423  10.608 -0.0681  0.3472 -0.9030
  174SAPI    C219714  -0.319   4.285  10.485  0.8434  0.3488  0.9238
  174SAPI    HS19715  -0.249   4.200  10.503 -1.6034 -2.1440 -0.5138
  174SAPI   O2119716  -0.274   4.354  10.374 -0.0919 -0.5910  0.0562
  174SAPI   C2119717  -0.296   4.481  10.349  0.0399  0.3842 -0.0214
  174SAPI   O2219718  -0.384   4.552  10.399 -0.0386 -0.5461  0.1993
  174SAPI   C2219719  -0.203   4.530  10.236 -0.2544 -0.4387  0.3135
  174SAPI   H2R19720  -0.229   4.476  10.143  0.3777  3.6201 -2.4654
  174SAPI   H2S19721  -0.213   4.635  10.201  1.4630 -1.2319 -2.9923
  174SAPI    C319722  -0.464   4.214  10.456  0.4650  0.4969 -0.2037
  174SAPI    HX19723  -0.544   4.288  10.476 -0.6354 -0.6369 -0.2857
  174SAPI    HY19724  -0.476   4.139  10.538  1.3804 -1.8838 -2.1114
  174SAPI   O3119725  -0.485   4.154  10.327  0.1349 -0.3825  0.2128
  174SAPI   C3119726  -0.412   4.050  10.298  0.7797 -0.2767 -0.2722
  174SAPI   O3219727  -0.324   4.004  10.367 -0.3121 -0.1564  0.2075
  174SAPI   C3219728  -0.481   3.983  10.174 -0.0190 -0.2503 -0.1239
  174SAPI   H2X19729  -0.478   4.061  10.095 -0.3057 -0.4650 -0.3471
  174SAPI   H2Y19730  -0.588   3.958  10.195 -0.2774  1.1156  0.3042
  174SAPI   C2319731  -0.053   4.502  10.262 -0.2197 -0.4048 -0.2209
  174SAPI   H3R19732  -0.039   4.413  10.327 -0.2100 -0.9430 -0.9472
  174SAPI   H3S19733  -0.013   4.579  10.333 -3.2002 -0.6635  1.9220
  174SAPI   C2419734   0.027   4.482  10.136  0.4511 -0.2169  0.2432
  174SAPI   H4R19735  -0.017   4.399  10.075 -3.7857  2.4796 -0.7877
  174SAPI   H4S19736   0.133   4.459  10.162  1.5806  3.3543 -0.6152
  174SAPI   C2519737   0.032   4.607  10.066 -0.4930 -0.0895 -0.0832
  174SAPI   H5R19738   0.065   4.689  10.133 -1.2032 -0.4872  0.7707
  174SAPI   C2619739   0.019   4.631   9.939  0.3996  0.5806 -0.0222
  174SAPI   H6R19740   0.043   4.734   9.905  0.2104  0.4679 -0.5038
  174SAPI   C2719741  -0.009   4.534   9.824 -0.6057 -0.5453 -0.6013
  174SAPI   H7R19742  -0.105   4.577   9.790 -0.3045 -0.3863 -1.2740
  174SAPI   H7S19743  -0.026   4.430   9.860  3.0380 -0.6577  1.3068
  174SAPI   C2819744   0.091   4.524   9.711 -0.2542  0.3916  0.4909
  174SAPI   H8R19745   0.166   4.446   9.727  0.8065  1.5380  1.3284
  174SAPI   C2919746   0.096   4.603   9.600  0.3765 -1.0060 -0.1140
  174SAPI   H9R19747   0.176   4.591   9.525  0.0581  0.3620 -0.6926
  174SAPI  C21019748  -0.003   4.714   9.571 -0.1872  0.1097  0.4430
  174SAPI  H10R19749   0.049   4.811   9.561 -2.3928  1.2300 -0.9873
  174SAPI  H10S19750  -0.070   4.741   9.655  0.2413  1.4159  0.3726
  174SAPI  C21119751  -0.095   4.706   9.447 -0.1371 -0.3844  0.2960
  174SAPI  H11R19752  -0.176   4.631   9.453 -0.9640  0.5742  1.7039
  174SAPI  C21219753  -0.101   4.790   9.336  0.2401 -0.1585 -0.9309
  174SAPI  H12R19754  -0.179   4.765   9.263  0.8156 -5.4226 -0.1129
  174SAPI  C21319755  -0.013   4.907   9.308  0.0917 -0.2828 -0.1905
  174SAPI  H13R19756   0.064   4.883   9.231  0.6860  1.4441 -0.1749
  174SAPI  H13S19757   0.035   4.932   9.405 -0.4647 -0.0640  0.0325
  174SAPI  C21419758  -0.086   5.023   9.257 -0.1821  0.4465  0.7448
  174SAPI  H14R19759  -0.143   5.079   9.332 -2.0490  0.8728 -0.9014
  174SAPI  C21519760  -0.106   5.066   9.129  0.0677  0.0872 -0.5648
  174SAPI  H15R19761  -0.159   5.161   9.113  1.3659  1.0952  0.8926
  174SAPI  C21619762  -0.054   5.002   9.004  0.6346 -0.9016 -0.3362
  174SAPI  H16R19763  -0.140   4.998   8.933 -1.8465  2.3878  2.1596
  174SAPI  H16S19764  -0.018   4.899   9.022  1.7755 -0.3741  0.4597
  174SAPI  C21719765   0.056   5.073   8.918 -0.0769 -0.2948 -0.5869
  174SAPI  H17R19766   0.158   5.064   8.962 -0.9774  1.3626  2.1289
  174SAPI  H17S19767   0.039   5.183   8.920  1.6097  0.0084 -1.4511
  174SAPI  C21819768   0.054   5.018   8.776 -0.1605 -0.0595  0.2994
  174SAPI  H18R19769   0.125   5.083   8.720  0.0941  0.7706  1.5385
  174SAPI  H18S19770  -0.043   5.035   8.724  0.3232 -2.2093 -1.4858
  174SAPI  C21919771   0.092   4.872   8.770 -0.0788  0.1663 -0.1121
  174SAPI  H19R19772   0.010   4.816   8.820 -1.2438  1.2275 -0.7731
  174SAPI  H19S19773   0.184   4.849   8.828 -0.5626  0.5772  0.8469
  174SAPI  C22019774   0.110   4.809   8.630  0.0820  0.1331 -0.6396
  174SAPI  H20R19775   0.153   4.707   8.647  1.8702  0.5720 -2.1025
  174SAPI  H20S19776   0.182   4.872   8.573  2.1436 -0.1157  1.5318
  174SAPI  H20T19777   0.010   4.799   8.584 -0.3919 -1.0548  0.5796
  174SAPI   C3319778  -0.413   3.852  10.120 -0.4949 -0.5470  0.4116
  174SAPI   H3X19779  -0.423   3.777  10.202 -1.4887 -1.7104 -0.7087
  174SAPI   H3Y19780  -0.308   3.874  10.093 -1.1778  4.1531  0.7362
  174SAPI   C3419781  -0.486   3.807   9.993 -0.1339  0.7741  0.0112
  174SAPI   H4X19782  -0.597   3.821   9.999 -0.9520 -3.3330 -2.1343
  174SAPI   H4Y19783  -0.458   3.700   9.993 -0.1205  0.6651  3.2856
  174SAPI   C3519784  -0.435   3.875   9.869  0.7360  0.0019 -0.3665
  174SAPI   H5X19785  -0.327   3.858   9.850  1.3385  3.1287 -0.3364
  174SAPI   H5Y19786  -0.435   3.985   9.885  1.6712 -0.4554  3.8859
  174SAPI   C3619787  -0.519   3.831   9.752  0.3686 -0.4323 -0.2840
  174SAPI   H6X19788  -0.627   3.853   9.755  0.1646 -1.2493 -1.2181
  174SAPI   H6Y19789  -0.500   3.722   9.737  1.2366 -0.0531 -2.4087
  174SAPI   C3719790  -0.461   3.885   9.617  0.7495 -0.0037 -0.1248
  174SAPI   H7X19791  -0.353   3.859   9.615  1.3458  2.3307 -2.2534
  174SAPI   H7Y19792  -0.475   3.993   9.599 -1.2411 -0.3686 -0.9676
  174SAPI   C3819793  -0.523   3.823   9.492 -0.4831  0.0533  0.3352
  174SAPI   H8X19794  -0.631   3.848   9.505 -0.3523 -0.3453  2.3329
  174SAPI   H8Y19795  -0.528   3.713   9.482 -2.4202  0.0861  0.5245
  174SAPI   C3919796  -0.479   3.890   9.360 -0.1936  0.0442 -0.1001
  174SAPI   H9X19797  -0.374   3.870   9.332 -0.1566  1.6283 -1.2440
  174SAPI   H9Y19798  -0.483   4.001   9.367 -2.1105  0.2973 -3.2784
  174SAPI  C31019799  -0.567   3.850   9.243 -0.6415 -0.0240  0.4069
  174SAPI  H10X19800  -0.669   3.878   9.277 -1.4861 -0.8409 -1.3401
  174SAPI  H10Y19801  -0.555   3.740   9.233  1.7551  0.2126 -0.1270
  174SAPI  C31119802  -0.535   3.931   9.114 -0.2743 -0.0788  0.2778
  174SAPI  H11X19803  -0.536   4.039   9.141 -2.2192 -0.3190  1.3658
  174SAPI  H11Y19804  -0.614   3.914   9.038 -0.1017  0.6899 -0.0884
  174SAPI  C31219805  -0.401   3.898   9.051  0.0571  0.1363  0.5767
  174SAPI  H12X19806  -0.313   3.927   9.111 -1.2234  3.3916  1.0787
  174SAPI  H12Y19807  -0.401   3.960   8.959  0.1920  0.3189  0.6983
  174SAPI  C31319808  -0.385   3.762   9.001  0.6354  0.0267 -0.3631
  174SAPI  H13X19809  -0.381   3.685   9.081  2.5614  2.2603  1.8806
  174SAPI  H13Y19810  -0.283   3.758   8.956  0.5662 -0.5007 -0.4836
  174SAPI  C31419811  -0.493   3.719   8.900 -0.1614  0.0734  0.1003
  174SAPI  H14X19812  -0.497   3.800   8.824 -1.0546 -0.3733 -0.3531
  174SAPI  H14Y19813  -0.593   3.716   8.948  0.7370 -0.7247  1.9940
  174SAPI  C31519814  -0.457   3.586   8.826 -0.1053 -0.3753  0.3043
  174SAPI  H15X19815  -0.480   3.504   8.898 -0.8282 -0.4747 -0.0367
  174SAPI  H15Y19816  -0.347   3.595   8.815 -0.3177  0.6878 -1.2107
  174SAPI  C31619817  -0.518   3.555   8.694  0.1054  0.0597 -0.3284
  174SAPI  H16X19818  -0.629   3.560   8.705 -0.0379 -0.5185 -1.3504
  174SAPI  H16Y19819  -0.499   3.450   8.663 -0.5454  0.3598 -1.8398
  174SAPI  C31719820  -0.475   3.641   8.569 -0.4947 -0.3361  0.1010
  174SAPI  H17X19821  -0.386   3.594   8.521 -1.4585 -0.7272 -1.3584
  174SAPI  H17Y19822  -0.456   3.747   8.597  0.4441 -0.6009  0.5143
  174SAPI  C31819823  -0.580   3.644   8.453 -0.5669 -0.2870  0.0806
  174SAPI  H18X19824  -0.587   3.546   8.401  0.2593  0.8191 -2.2100
  174SAPI  H18Y19825  -0.555   3.714   8.371 -1.5282  1.1609  0.9817
  174SAPI  H18Z19826  -0.681   3.666   8.495 -1.1480 -2.0139 -0.3434
  175SAPI   C1219827   3.808   3.974   6.463  1.0317 -0.1228 -0.2782
  175SAPI    H219828   3.917   3.992   6.453  1.7821 -4.0566 -1.1371
  175SAPI    O219829   3.748   3.919   6.350  0.0261 -0.2501 -0.0656
  175SAPI   HO219830   3.766   3.982   6.280  0.6763  0.1823  0.4896
  175SAPI   C1319831   3.801   3.883   6.581  1.0915 -0.0874 -0.1672
  175SAPI    H319832   3.858   3.923   6.668  0.8420  3.1735 -1.3772
  175SAPI    O319833   3.850   3.755   6.552  0.1810  0.2644  0.4839
  175SAPI   HO319834   3.943   3.767   6.573 -0.0937  1.8805  0.9113
  175SAPI   C1419835   3.653   3.895   6.630  0.1691  0.5567  0.7595
  175SAPI    H419836   3.605   3.833   6.551  1.5678 -0.2899  0.5243
  175SAPI    O419837   3.639   3.822   6.754 -0.2525  0.3634  0.2984
  175SAPI   HO419838   3.550   3.790   6.764 -0.0015 -1.5524 -2.6165
  175SAPI   C1519839   3.590   4.033   6.643  0.4138 -0.4903  0.2021
  175SAPI    H519840   3.633   4.081   6.734  2.3077 -4.6247  1.7660
  175SAPI    O519841   3.449   4.015   6.653  0.2053  0.9690 -0.1467
  175SAPI   HO519842   3.405   4.086   6.699 -1.9124  0.5179 -1.3530
  175SAPI   C1619843   3.613   4.115   6.521  1.0769 -0.3407 -0.1825
  175SAPI    H619844   3.549   4.076   6.439 -2.4410  2.8060  0.7864
  175SAPI    O619845   3.571   4.247   6.550  0.4354  0.3991 -0.2056
  175SAPI   HO619846   3.584   4.294   6.467  0.9337  1.3867  0.4206
  175SAPI   C1119847   3.754   4.116   6.485  0.6837  0.0916  0.8023
  175SAPI    H119848   3.806   4.160   6.573 -0.1869  1.4789  0.6509
  175SAPI     P19849   3.900   4.305   6.356  0.2133 -0.3553  0.0385
  175SAPI   O1319850   3.874   4.388   6.239 -0.1209  0.8242  0.5525
  175SAPI   O1419851   4.031   4.241   6.367 -0.1905 -0.0980 -0.1036
  175SAPI   O1219852   3.783   4.194   6.365  0.1754  0.1473 -0.1213
  175SAPI   O1119853   3.879   4.382   6.494  0.2758  0.0695  0.2750
  175SAPI    C119854   3.979   4.476   6.532  0.6499  0.6483  0.5434
  175SAPI    HA19855   4.064   4.483   6.460  0.1422  1.7086  0.0332
  175SAPI    HB19856   3.937   4.579   6.538  1.3042  0.9034  0.8521
  175SAPI    C219857   4.039   4.436   6.669 -0.4935  0.0432  0.3702
  175SAPI    HS19858   4.089   4.338   6.653 -0.0875  0.2654  0.2541
  175SAPI   O2119859   3.935   4.439   6.763  0.4657  0.1849 -0.5095
  175SAPI   C2119860   3.881   4.327   6.807 -0.0417  0.2775  0.2612
  175SAPI   O2219861   3.933   4.214   6.792 -1.0203  0.1872  0.5026
  175SAPI   C2219862   3.751   4.351   6.882  0.5742  0.1239  0.3413
  175SAPI   H2R19863   3.740   4.459   6.907  2.1630  0.5127 -0.5132
  175SAPI   H2S19864   3.675   4.325   6.806  1.8027  1.1651 -1.3064
  175SAPI    C319865   4.157   4.528   6.715  0.1175 -0.0184  0.1711
  175SAPI    HX19866   4.123   4.624   6.759 -0.9593 -0.8570  1.2616
  175SAPI    HY19867   4.201   4.548   6.615  0.5479  0.1410  0.3911
  175SAPI   O3119868   4.253   4.449   6.801 -0.0113  0.4393 -0.3807
  175SAPI   C3119869   4.234   4.469   6.924 -0.0993 -0.3035 -0.3617
  175SAPI   O3219870   4.170   4.562   6.968  0.0621  0.4166 -0.5368
  175SAPI   C3219871   4.314   4.372   7.011  0.3585  0.1128  0.0010
  175SAPI   H2X19872   4.423   4.394   7.000 -0.0236  1.1464 -2.0315
  175SAPI   H2Y19873   4.297   4.268   6.978 -0.9974  0.3209 -0.0152
  175SAPI   C2319874   3.731   4.259   7.005  0.8293  0.8742  0.4539
  175SAPI   H3R19875   3.734   4.154   6.970 -1.6245  0.0203  2.4604
  175SAPI   H3S19876   3.626   4.268   7.040  0.0179 -0.2492 -1.4757
  175SAPI   C2419877   3.839   4.289   7.114  0.6921  0.5042  0.0883
  175SAPI   H4R19878   3.821   4.391   7.154 -0.4084  0.0539  0.8113
  175SAPI   H4S19879   3.932   4.272   7.057  0.9085 -4.1921  1.3728
  175SAPI   C2519880   3.821   4.181   7.221  0.3288 -0.3243 -0.9292
  175SAPI   H5R19881   3.889   4.095   7.213  2.7912  1.3597  0.2724
  175SAPI   C2619882   3.735   4.183   7.324 -0.1089 -0.4980 -0.1557
  175SAPI   H6R19883   3.741   4.102   7.398 -1.2724  1.4526  2.2018
  175SAPI   C2719884   3.636   4.293   7.361  0.5215 -0.7916 -0.0902
  175SAPI   H7R19885   3.546   4.252   7.413 -0.0275  0.0718 -0.3300
  175SAPI   H7S19886   3.588   4.338   7.271 -0.4436 -0.1974  0.6969
  175SAPI   C2819887   3.700   4.392   7.453 -0.3836 -0.0792  0.1694
  175SAPI   H8R19888   3.793   4.435   7.413 -0.0375 -1.1039 -0.1470
  175SAPI   C2919889   3.657   4.425   7.574 -0.3048 -1.0812 -0.2900
  175SAPI   H9R19890   3.713   4.501   7.630 -2.2248 -2.2859  3.5769
  175SAPI  C21019891   3.531   4.385   7.647 -0.1763 -0.3843 -1.0065
  175SAPI  H10R19892   3.454   4.340   7.580 -1.6611  1.5460 -0.6827
  175SAPI  H10S19893   3.473   4.474   7.680  0.4676 -0.3955  0.2071
  175SAPI  C21119894   3.545   4.283   7.761 -0.0866  0.1524 -0.5134
  175SAPI  H11R19895   3.511   4.181   7.735  0.5183 -0.3978  0.7418
  175SAPI  C21219896   3.612   4.306   7.880  0.1858 -0.5552  0.8118
  175SAPI  H12R19897   3.612   4.222   7.952  1.0488 -0.0053  1.4701
  175SAPI  C21319898   3.681   4.437   7.911  0.4439 -0.4367 -0.8801
  175SAPI  H13R19899   3.673   4.511   7.828 -0.8889 -1.5984 -1.8463
  175SAPI  H13S19900   3.790   4.419   7.918  0.6537  1.3320  1.7277
  175SAPI  C21419901   3.630   4.470   8.051 -0.4778  0.2161  0.4619
  175SAPI  H14R19902   3.522   4.456   8.069 -0.7415 -1.9524 -2.1725
  175SAPI  C21519903   3.703   4.518   8.156  0.6874  0.4521  0.1349
  175SAPI  H15R19904   3.650   4.534   8.251 -0.7788 -0.8519 -0.4218
  175SAPI  C21619905   3.850   4.563   8.165  1.3112 -0.1864  0.5171
  175SAPI  H16R19906   3.875   4.647   8.097  1.1086  1.1205  2.0032
  175SAPI  H16S19907   3.919   4.480   8.138  0.6098 -0.6594  0.1511
  175SAPI  C21719908   3.898   4.596   8.306 -0.0418  0.1990 -0.4292
  175SAPI  H17R19909   3.835   4.674   8.355  1.4503  1.9399 -1.1869
  175SAPI  H17S19910   3.997   4.643   8.287 -0.6159  2.4948  1.7212
  175SAPI  C21819911   3.917   4.472   8.389  0.0265 -0.6739 -0.2240
  175SAPI  H18R19912   3.982   4.405   8.328 -0.7893  0.1165 -2.0541
  175SAPI  H18S19913   3.820   4.417   8.396 -2.5859  3.2727 -1.8637
  175SAPI  C21919914   3.979   4.488   8.529 -0.1355 -0.3611 -0.1811
  175SAPI  H19R19915   3.909   4.552   8.587  1.1633 -0.2662  1.3536
  175SAPI  H19S19916   4.077   4.542   8.531  0.0707 -0.7500  0.2884
  175SAPI  C22019917   3.985   4.353   8.607 -0.8863 -0.1688 -0.2410
  175SAPI  H20R19918   4.071   4.294   8.566  0.6993  0.4246  2.0443
  175SAPI  H20S19919   3.890   4.298   8.593 -0.8229  0.2362 -2.7955
  175SAPI  H20T19920   4.005   4.383   8.712  0.6189 -1.0107 -0.2435
  175SAPI   C3319921   4.262   4.376   7.161 -0.2478  0.8874 -0.0092
  175SAPI   H3X19922   4.152   4.367   7.169 -0.0472 -0.3321  2.1691
  175SAPI   H3Y19923   4.272   4.476   7.208  2.1445  1.0744 -0.7744
  175SAPI   C3419924   4.297   4.244   7.234 -0.4162 -0.5752 -0.2296
  175SAPI   H4X19925   4.402   4.238   7.269 -0.6549 -1.5386  0.3628
  175SAPI   H4Y19926   4.289   4.152   7.173  1.8983 -0.5450 -0.6652
  175SAPI   C3519927   4.208   4.227   7.361 -0.2185  0.0559  0.4664
  175SAPI   H5X19928   4.213   4.120   7.391  0.8226 -0.8255 -2.4974
  175SAPI   H5Y19929   4.101   4.242   7.334 -0.8256  0.4305  2.8628
  175SAPI   C3619930   4.257   4.312   7.484  0.2831  0.0845  0.5304
  175SAPI   H6X19931   4.246   4.420   7.461  0.4783 -0.0661 -0.3284
  175SAPI   H6Y19932   4.363   4.282   7.496  0.1477 -1.4276 -1.4092
  175SAPI   C3719933   4.161   4.288   7.604 -0.0151 -0.3052 -0.1537
  175SAPI   H7X19934   4.115   4.188   7.594 -1.9283  0.5877 -0.6643
  175SAPI   H7Y19935   4.076   4.358   7.589  0.8715  0.8270 -0.1086
  175SAPI   C3819936   4.219   4.322   7.746 -0.3103 -0.0561  0.0536
  175SAPI   H8X19937   4.226   4.430   7.770  1.3683 -0.5513  2.1743
  175SAPI   H8Y19938   4.328   4.298   7.741  0.4743  3.0717  0.0305
  175SAPI   C3919939   4.156   4.245   7.857 -1.1763 -0.0630 -0.4795
  175SAPI   H9X19940   4.173   4.136   7.855  1.4124  0.2525  0.5318
  175SAPI   H9Y19941   4.047   4.254   7.837 -0.7122  0.1121 -3.3746
  175SAPI  C31019942   4.200   4.299   7.997 -0.8404 -0.8787  0.5014
  175SAPI  H10X19943   4.159   4.402   7.995 -1.7986 -1.2087  1.7107
  175SAPI  H10Y19944   4.308   4.300   8.023 -0.1587 -5.1229 -1.4234
  175SAPI  C31119945   4.132   4.231   8.114  0.5026 -0.7118 -0.2537
  175SAPI  H11X19946   4.025   4.221   8.083  0.2478  2.5933 -0.8931
  175SAPI  H11Y19947   4.139   4.299   8.202 -1.4355  0.2851 -0.8033
  175SAPI  C31219948   4.190   4.097   8.148 -0.6008 -0.1861 -0.0958
  175SAPI  H12X19949   4.297   4.098   8.117 -0.6348  0.2532 -0.2093
  175SAPI  H12Y19950   4.129   4.025   8.090 -1.0915  0.6398 -0.6263
  175SAPI  C31319951   4.206   4.066   8.298 -0.5925 -0.1796  0.2295
  175SAPI  H13X19952   4.249   4.155   8.349  0.2400 -1.2991  1.5765
  175SAPI  H13Y19953   4.280   3.983   8.297 -1.0996 -0.7278 -3.0015
  175SAPI  C31419954   4.075   4.019   8.368 -0.1198 -0.1360 -0.2105
  175SAPI  H14X19955   4.016   3.938   8.321  1.1320 -0.2532 -1.7035
  175SAPI  H14Y19956   4.013   4.111   8.368  1.4282  0.9455 -0.3581
  175SAPI  C31519957   4.108   3.985   8.514 -0.4441 -0.3878 -0.3018
  175SAPI  H15X19958   4.160   4.070   8.563  1.3790 -1.8391  0.4240
  175SAPI  H15Y19959   4.181   3.901   8.522  0.1065  0.2421  2.0367
  175SAPI  C31619960   3.987   3.939   8.601  0.1303 -0.0810  0.0854
  175SAPI  H16X19961   3.934   3.849   8.563 -0.1588 -0.1533  0.6493
  175SAPI  H16Y19962   3.908   4.016   8.617 -0.6222 -1.1580  1.8032
  175SAPI  C31719963   4.033   3.898   8.743 -0.5792 -0.1978  0.4061
  175SAPI  H17X19964   3.942   3.877   8.802 -0.0268 -1.9464  0.6707
  175SAPI  H17Y19965   4.080   3.982   8.799 -0.2750  0.6187 -0.9968
  175SAPI  C31819966   4.129   3.772   8.747 -0.4855  0.3087 -0.5043
  175SAPI  H18X19967   4.227   3.790   8.697 -0.0882  1.3524  0.5978
  175SAPI  H18Y19968   4.079   3.683   8.703  0.3487 -0.1186 -0.5935
  175SAPI  H18Z19969   4.153   3.741   8.850  1.0910  0.4593 -0.8041
  176SAPI   C1219970   3.760   6.784   6.494  0.7064 -0.1366  0.0261
  176SAPI    H219971   3.733   6.833   6.590 -0.9939 -0.4288 -0.2706
  176SAPI    O219972   3.812   6.654   6.535  0.3719 -0.5335  0.5115
  176SAPI   HO219973   3.878   6.673   6.602  0.5669  3.2874 -0.5438
  176SAPI   C1319974   3.633   6.765   6.404 -0.2741 -0.2104 -0.4703
  176SAPI    H319975   3.606   6.863   6.359  1.5891 -0.5242 -2.3925
  176SAPI    O319976   3.529   6.700   6.475 -0.0634  0.7126 -0.5343
  176SAPI   HO319977   3.536   6.606   6.456 -1.4509 -0.1194  2.3820
  176SAPI   C1419978   3.677   6.691   6.285  0.2601  0.1682 -0.6360
  176SAPI    H419979   3.722   6.593   6.311  1.4556  0.3772 -1.7901
  176SAPI    O419980   3.565   6.652   6.209 -0.4660  0.1537  0.3790
  176SAPI   HO419981   3.488   6.624   6.259 -0.3978  1.8540  1.5116
  176SAPI   C1519982   3.770   6.773   6.204 -0.6220  0.1089 -1.1436
  176SAPI    H519983   3.731   6.874   6.181 -1.4731  0.4266  1.3637
  176SAPI    O519984   3.794   6.714   6.075  0.1242  0.4058  0.5092
  176SAPI   HO519985   3.738   6.754   6.008 -0.3706  1.7536  1.6829
  176SAPI   C1619986   3.894   6.788   6.292 -0.1187 -0.1765  0.1900
  176SAPI    H619987   3.940   6.689   6.308  0.9894  0.0087 -1.5351
  176SAPI    O619988   3.991   6.867   6.218 -0.1444  0.3186 -0.0444
  176SAPI   HO619989   3.959   6.957   6.208  0.5097  0.6543  0.7160
  176SAPI   C1119990   3.863   6.861   6.421  0.0383 -0.3568  0.6002
  176SAPI    H119991   3.811   6.954   6.389  2.1127 -0.4924 -3.8251
  176SAPI     P19992   4.041   7.041   6.533  0.0458 -0.4307  0.0182
  176SAPI   O1319993   4.027   7.116   6.414 -0.3939 -0.0569  0.1272
  176SAPI   O1419994   4.178   7.017   6.573 -0.4616 -0.2861 -0.4487
  176SAPI   O1219995   3.970   6.892   6.513 -0.2461  0.1875  0.3099
  176SAPI   O1119996   3.953   7.113   6.641  0.8834  0.5040 -0.0934
  176SAPI    C119997   3.994   7.235   6.709  0.0519  0.9509 -0.1511
  176SAPI    HA19998   4.101   7.253   6.685  0.4692 -0.1166  0.7964
  176SAPI    HB19999   3.937   7.330   6.699  1.6225  1.9411 -0.0376
  176SAPI    C220000   3.987   7.211   6.863 -0.5923  0.2090  0.4272
  176SAPI    HS20001   4.020   7.301   6.919 -0.6004  0.8387 -0.5651
  176SAPI   O2120002   4.068   7.097   6.902 -0.5098  0.6714 -0.3413
  176SAPI   C2120003   4.197   7.109   6.871  0.2945 -0.2983  0.2715
  176SAPI   O2220004   4.250   7.220   6.853 -0.1464 -0.2421 -0.0961
  176SAPI   C2220005   4.271   6.976   6.870 -0.3646 -0.0891  0.1564
  176SAPI   H2R20006   4.239   6.923   6.963  0.5041  0.6024  0.8605
  176SAPI   H2S20007   4.238   6.921   6.779  1.1788  0.2687 -0.6536
  176SAPI    C320008   3.834   7.187   6.902 -0.4105  0.4472 -0.3534
  176SAPI    HX20009   3.811   7.088   6.858  1.9184 -1.3365  2.1827
  176SAPI    HY20010   3.775   7.275   6.868  0.2156  1.4336  1.0124
  176SAPI   O3120011   3.819   7.188   7.041 -0.1599 -0.0074 -0.3094
  176SAPI   C3120012   3.815   7.069   7.111 -0.4609  0.9200  0.1229
  176SAPI   O3220013   3.828   6.960   7.059  0.6599 -0.9071 -0.4701
  176SAPI   C3220014   3.813   7.095   7.261 -0.6944 -0.1883  0.1418
  176SAPI   H2X20015   3.823   7.204   7.281  1.8090 -0.2399 -0.4648
  176SAPI   H2Y20016   3.898   7.035   7.299 -0.0882 -0.4178 -1.4858
  176SAPI   C2320017   4.424   6.995   6.869 -0.0973 -0.0152 -0.4572
  176SAPI   H3R20018   4.452   7.051   6.777 -2.3518  0.2811 -1.0075
  176SAPI   H3S20019   4.467   6.894   6.850 -1.9980 -1.0928  0.7677
  176SAPI   C2420020   4.486   7.045   6.999 -0.2900  0.0014 -0.2677
  176SAPI   H4R20021   4.460   7.151   7.024  1.5807  0.6161 -0.7682
  176SAPI   H4S20022   4.592   7.053   6.967  0.1043 -0.9637  0.7324
  176SAPI   C2520023   4.480   6.967   7.125 -0.1752  0.7281  0.6935
  176SAPI   H5R20024   4.532   6.871   7.111 -0.0305  0.6430  1.7165
  176SAPI   C2620025   4.425   6.999   7.242 -0.2677 -0.5235 -0.6321
  176SAPI   H6R20026   4.428   6.928   7.325 -0.6796  1.2706  0.9982
  176SAPI   C2720027   4.351   7.131   7.272 -0.6860  0.1739 -0.4319
  176SAPI   H7R20028   4.358   7.206   7.191 -2.3032  0.0786 -0.6955
  176SAPI   H7S20029   4.422   7.169   7.349  0.5818 -1.2580 -0.8352
  176SAPI   C2820030   4.210   7.130   7.313  0.8577 -0.3880  0.9523
  176SAPI   H8R20031   4.137   7.157   7.234  0.4931  0.4207  1.5487
  176SAPI   C2920032   4.158   7.094   7.428  0.6360 -0.3694 -0.9950
  176SAPI   H9R20033   4.049   7.093   7.442  0.6016  0.6262 -1.0860
  176SAPI  C21020034   4.233   7.043   7.546 -0.9331 -0.0400 -0.1585
  176SAPI  H10R20035   4.339   7.027   7.517 -1.9694 -3.6893 -2.5273
  176SAPI  H10S20036   4.193   6.944   7.577 -1.9683  0.3714 -0.1404
  176SAPI  C21120037   4.223   7.135   7.665  0.5274  0.1985 -0.3762
  176SAPI  H11R20038   4.290   7.223   7.662 -2.0542  2.2366 -1.4355
  176SAPI  C21220039   4.155   7.117   7.781 -0.5364 -0.2682  0.5333
  176SAPI  H12R20040   4.142   7.203   7.849  0.4943  0.0732  0.3070
  176SAPI  C21320041   4.068   7.001   7.819  0.4232 -0.4296 -0.1249
  176SAPI  H13R20042   4.041   7.005   7.927 -0.4612 -2.4711 -0.2301
  176SAPI  H13S20043   4.115   6.903   7.797  0.4565  0.1045 -2.7326
  176SAPI  C21420044   3.939   7.013   7.743 -0.0165  0.1644 -0.2137
  176SAPI  H14R20045   3.950   6.989   7.636 -0.8194 -0.8776 -0.0749
  176SAPI  C21520046   3.817   7.033   7.795  0.4730 -0.3609  0.9603
  176SAPI  H15R20047   3.739   7.055   7.721 -0.1589  4.2760  2.6576
  176SAPI  C21620048   3.775   7.063   7.936 -0.2507  0.7567 -0.4553
  176SAPI  H16R20049   3.738   7.168   7.933  1.5318  1.4057 -0.9644
  176SAPI  H16S20050   3.867   7.068   7.998 -0.2629  2.5896 -0.5274
  176SAPI  C21720051   3.679   6.956   7.990  0.0954 -0.0044  0.4975
  176SAPI  H17R20052   3.729   6.857   7.985  0.6608  0.3402 -1.9930
  176SAPI  H17S20053   3.596   6.944   7.917  1.0594  0.9276 -0.7918
  176SAPI  C21820054   3.633   6.985   8.138  0.8077 -0.2031 -0.5854
  176SAPI  H18R20055   3.535   6.934   8.144 -0.3079  1.8345 -0.4325
  176SAPI  H18S20056   3.606   7.092   8.125 -1.9822 -0.9668 -1.8655
  176SAPI  C21920057   3.730   6.951   8.250  0.2261  0.0050 -0.7119
  176SAPI  H19R20058   3.813   7.024   8.244 -1.5812  2.0615 -2.4133
  176SAPI  H19S20059   3.768   6.848   8.229 -0.1721 -0.4083  0.5229
  176SAPI  C22020060   3.668   6.950   8.387  0.1570 -0.6781  0.7446
  176SAPI  H20R20061   3.735   6.908   8.465  1.8398  0.4824 -0.0212
  176SAPI  H20S20062   3.577   6.885   8.384  1.1797 -2.1605 -1.4950
  176SAPI  H20T20063   3.640   7.055   8.409  1.5304 -0.5542  2.0673
  176SAPI   C3320064   3.679   7.043   7.328 -0.4370 -0.3088 -0.1782
  176SAPI   H3X20065   3.708   7.049   7.435  2.5692 -1.1962 -0.8511
  176SAPI   H3Y20066   3.659   6.939   7.296  1.3477 -0.7665  0.0668
  176SAPI   C3420067   3.558   7.128   7.306 -0.4171 -0.8006 -0.6210
  176SAPI   H4X20068   3.515   7.100   7.207  1.5711 -1.4359 -1.3570
  176SAPI   H4Y20069   3.578   7.237   7.315  1.6253 -1.1282 -0.6282
  176SAPI   C3520070   3.447   7.104   7.404  0.0899  0.2685  0.1929
  176SAPI   H5X20071   3.403   7.002   7.411 -2.4118  1.3198  0.9356
  176SAPI   H5Y20072   3.366   7.164   7.358 -0.0444  0.1106  0.2243
  176SAPI   C3620073   3.484   7.154   7.548  0.0554 -0.5421 -0.2992
  176SAPI   H6X20074   3.489   7.265   7.538  3.7630 -0.7457 -2.5855
  176SAPI   H6Y20075   3.583   7.126   7.590 -0.3849 -0.6324  0.7072
  176SAPI   C3720076   3.380   7.112   7.652  0.3350  0.4961 -0.2630
  176SAPI   H7X20077   3.406   7.008   7.680 -1.8184 -0.3650 -1.2244
  176SAPI   H7Y20078   3.279   7.102   7.607 -0.2137 -1.1615  1.2161
  176SAPI   C3820079   3.351   7.199   7.772  0.7326  0.4145 -0.1824
  176SAPI   H8X20080   3.304   7.293   7.736  0.3258 -0.7124 -2.7971
  176SAPI   H8Y20081   3.438   7.228   7.834  0.3828  0.2607  0.4032
  176SAPI   C3920082   3.247   7.124   7.865 -0.3418 -0.4657  0.2703
  176SAPI   H9X20083   3.294   7.028   7.896  2.1564  0.1541 -1.2773
  176SAPI   H9Y20084   3.148   7.107   7.818  0.6464 -3.5723 -0.8922
  176SAPI  C31020085   3.232   7.191   8.002 -0.5125  0.4366  0.3913
  176SAPI  H10X20086   3.331   7.203   8.051 -1.4581 -0.4504  2.6846
  176SAPI  H10Y20087   3.177   7.115   8.062  0.9758 -0.3151  0.8542
  176SAPI  C31120088   3.163   7.326   8.003 -0.3733  0.0614  0.2336
  176SAPI  H11X20089   3.198   7.412   7.941  1.5326 -0.3563  0.6620
  176SAPI  H11Y20090   3.168   7.367   8.106  2.7960 -1.0702  0.6591
  176SAPI  C31220091   3.015   7.309   7.960  0.5919 -0.0590  0.6958
  176SAPI  H12X20092   2.962   7.258   8.044 -0.6468  1.4489  0.8878
  176SAPI  H12Y20093   2.996   7.257   7.864 -1.6651 -0.0357  1.0595
  176SAPI  C31320094   2.948   7.448   7.958 -0.0780 -0.3550 -0.3799
  176SAPI  H13X20095   2.992   7.508   7.876 -0.9068  0.9516  0.0989
  176SAPI  H13Y20096   2.975   7.505   8.049 -0.2351 -0.1695 -0.4475
  176SAPI  C31420097   2.799   7.450   7.944  0.1197 -0.4768  0.4566
  176SAPI  H14X20098   2.747   7.378   8.012 -0.1244 -1.2276 -0.5000
  176SAPI  H14Y20099   2.763   7.434   7.840 -1.7002  1.7100  0.6624
  176SAPI  C31520100   2.733   7.586   7.974  0.0849  0.2605  0.0630
  176SAPI  H15X20101   2.741   7.647   7.882  0.1387 -0.7352 -0.6088
  176SAPI  H15Y20102   2.797   7.618   8.059  1.5173 -3.3447  0.5363
  176SAPI  C31620103   2.585   7.583   8.017 -0.0973  0.2071 -0.3140
  176SAPI  H16X20104   2.541   7.679   8.052 -0.9130 -0.8127  1.6385
  176SAPI  H16Y20105   2.590   7.521   8.109 -1.8379  0.5849  0.0774
  176SAPI  C31720106   2.478   7.531   7.928 -0.1346  0.0898 -0.0905
  176SAPI  H17X20107   2.520   7.504   7.829  0.3981  1.8063 -0.3688
  176SAPI  H17Y20108   2.405   7.599   7.881 -0.9400 -1.6295 -1.4374
  176SAPI  C31820109   2.425   7.400   7.979 -0.3040 -0.8619  0.0236
  176SAPI  H18X20110   2.417   7.401   8.090 -1.1374  0.8023 -0.0233
  176SAPI  H18Y20111   2.496   7.316   7.960  0.7442 -0.5525  2.2269
  176SAPI  H18Z20112   2.325   7.383   7.935 -2.2212  4.9378  1.2679
  177SLPC     N20113   3.212   4.116  11.089 -0.1374 -0.4180 -0.7828
  177SLPC   C1320114   3.294   4.091  10.967 -0.3361 -0.0456 -0.1939
  177SLPC  H13A20115   3.253   4.001  10.922  1.5538 -0.8414 -0.4144
  177SLPC  H13B20116   3.287   4.167  10.891 -1.1016  2.1105  1.9169
  177SLPC  H13C20117   3.399   4.079  10.987 -0.0608 -0.9269 -1.9269
  177SLPC   C1420118   3.226   4.002  11.183 -0.1957  0.0510 -0.6862
  177SLPC  H14A20119   3.175   3.917  11.141 -1.4590  0.8917 -0.9343
  177SLPC  H14B20120   3.328   3.977  11.205  0.4615  1.2251 -2.2290
  177SLPC  H14C20121   3.179   4.029  11.277 -0.2064  0.9681 -0.9459
  177SLPC   C1520122   3.067   4.112  11.051  0.3207 -0.5099  0.1672
  177SLPC  H15A20123   3.041   4.177  10.969  0.2115 -2.5545 -1.4854
  177SLPC  H15B20124   3.040   4.013  11.017 -0.1554  0.3602 -2.1547
  177SLPC  H15C20125   3.006   4.128  11.139  0.3893 -0.1137  0.1452
  177SLPC   C1220126   3.238   4.248  11.156  0.1739 -0.7834 -0.0593
  177SLPC  H12A20127   3.338   4.229  11.192  0.9525 -0.6237 -2.0488
  177SLPC  H12B20128   3.175   4.249  11.244  0.2743 -2.5308  0.0829
  177SLPC   C1120129   3.223   4.377  11.082  0.0159  0.1632 -0.9769
  177SLPC  H11A20130   3.303   4.357  11.008  0.0179  0.1120 -0.9609
  177SLPC  H11B20131   3.250   4.463  11.147 -0.8445  0.0626 -0.4707
  177SLPC     P20132   3.065   4.411  10.871  0.0001  0.0260  0.3674
  177SLPC   O1320133   3.117   4.280  10.815  0.5965 -0.3528 -0.0112
  177SLPC   O1420134   2.922   4.450  10.854 -0.6809 -0.7024 -0.8965
  177SLPC   O1220135   3.095   4.398  11.022  0.4155 -0.7645  0.2813
  177SLPC   O1120136   3.157   4.532  10.833  0.0559  0.2066 -0.5332
  177SLPC    C120137   3.154   4.610  10.710  0.4550  0.1906 -0.0418
  177SLPC    HA20138   3.065   4.585  10.649 -1.4219  1.1113  2.1559
  177SLPC    HB20139   3.149   4.720  10.725  1.2915  0.3448 -0.7796
  177SLPC    C220140   3.285   4.591  10.622  0.0811 -0.2280 -0.1288
  177SLPC    HS20141   3.271   4.655  10.532 -1.6777  4.0702  2.8559
  177SLPC   O2120142   3.308   4.454  10.593  0.4947 -0.1913  0.5061
  177SLPC   C2120143   3.232   4.403  10.498 -0.2473 -0.4870 -0.3991
  177SLPC   O2220144   3.133   4.455  10.444 -0.2658  0.5860 -0.2727
  177SLPC   C2220145   3.292   4.264  10.468  0.3689  1.0299  0.0002
  177SLPC   H2R20146   3.395   4.288  10.435  0.7666  2.5842  2.1824
  177SLPC   H2S20147   3.302   4.217  10.568 -2.1614  0.9721  0.2925
  177SLPC    C320148   3.415   4.647  10.691  0.0929 -0.6185  0.2918
  177SLPC    HX20149   3.441   4.578  10.774 -0.3278 -0.6523  0.3948
  177SLPC    HY20150   3.399   4.742  10.746  0.9964 -0.5333  0.4286
  177SLPC   O3120151   3.530   4.651  10.599  0.5341  0.3999  0.5823
  177SLPC   C3120152   3.534   4.765  10.529  0.6778  0.6079  0.0238
  177SLPC   O3220153   3.451   4.851  10.525  0.7988  0.0732 -0.3335
  177SLPC   C3220154   3.661   4.769  10.449 -0.0324  1.0318  0.0747
  177SLPC   H2X20155   3.734   4.689  10.474 -1.6749 -0.7068 -0.4831
  177SLPC   H2Y20156   3.695   4.875  10.457 -1.4086  1.5981 -1.1769
  177SLPC   C2320157   3.202   4.175  10.374  0.0657 -0.2885 -0.2386
  177SLPC   H3R20158   3.101   4.174  10.419  0.7529 -1.6146  1.3984
  177SLPC   H3S20159   3.243   4.072  10.371  1.6441  0.3245 -1.1203
  177SLPC   C2420160   3.211   4.220  10.231 -0.6494  0.0803 -0.3037
  177SLPC   H4R20161   3.316   4.238  10.199 -0.3772  0.2769  0.6434
  177SLPC   H4S20162   3.164   4.320  10.217 -0.2630  0.7543  2.5706
  177SLPC   C2520163   3.158   4.118  10.130 -0.1952 -0.3157 -0.3285
  177SLPC   H5R20164   3.049   4.107  10.149 -0.7697 -0.7088 -3.4257
  177SLPC   H5S20165   3.218   4.024  10.134 -1.1497 -0.9165  0.2124
  177SLPC   C2620166   3.172   4.157   9.985 -0.3987 -0.1430 -0.3728
  177SLPC   H6R20167   3.114   4.252   9.991 -0.9771 -0.3895 -1.6358
  177SLPC   H6S20168   3.106   4.089   9.926 -0.9076  0.1382 -0.1377
  177SLPC   C2720169   3.321   4.154   9.936  0.4412  0.4924 -0.2136
  177SLPC   H7R20170   3.370   4.063   9.975 -1.4512 -1.5098 -2.2184
  177SLPC   H7S20171   3.370   4.239   9.988 -0.6109  0.6280  0.5862
  177SLPC   C2820172   3.336   4.169   9.784 -0.5399 -0.0114  0.1957
  177SLPC   H8R20173   3.445   4.174   9.765 -0.6281 -1.4171 -0.8325
  177SLPC   H8S20174   3.284   4.263   9.753 -1.5613 -0.7320 -0.3575
  177SLPC   C2920175   3.279   4.059   9.701  0.4262  0.3280  0.5468
  177SLPC   H9R20176   3.189   4.021   9.751  1.1085 -0.6790  1.0498
  177SLPC  C21020177   3.319   4.021   9.578 -0.2313  1.2188  0.4122
  177SLPC  H10R20178   3.258   3.948   9.523  0.3582  1.3072 -0.3877
  177SLPC  C21120179   3.429   4.074   9.488 -0.5616 -0.5157  0.0855
  177SLPC  H11R20180   3.522   4.039   9.537 -0.9292  2.7963  3.5549
  177SLPC  H11S20181   3.418   4.024   9.389 -2.3770  3.5833 -2.0158
  177SLPC  C21220182   3.435   4.222   9.463  0.1910  0.1789 -0.3187
  177SLPC  H12R20183   3.494   4.283   9.532 -2.1745 -0.0407  2.0551
  177SLPC  C21320184   3.357   4.283   9.374  0.0818 -0.3837 -0.6227
  177SLPC  H13R20185   3.376   4.390   9.354  1.4236 -0.5531 -0.3657
  177SLPC  C21420186   3.248   4.213   9.298  0.4916  0.5368  0.7977
  177SLPC  H14R20187   3.227   4.109   9.327 -0.0143  0.9380  1.9151
  177SLPC  H14S20188   3.279   4.206   9.191 -2.3504 -0.0884 -0.0537
  177SLPC  C21520189   3.117   4.293   9.304  0.2523  0.0542  0.3904
  177SLPC  H15R20190   3.115   4.372   9.226 -1.3009  0.0228  0.3841
  177SLPC  H15S20191   3.096   4.341   9.402 -0.5701  1.4111 -0.4224
  177SLPC  C21620192   3.004   4.193   9.262 -0.0767  0.8498  0.5704
  177SLPC  H16R20193   3.008   4.114   9.340 -2.0639  1.1923  1.0787
  177SLPC  H16S20194   3.022   4.154   9.159  3.1272  0.9333  0.9868
  177SLPC  C21720195   2.855   4.240   9.257  0.3018 -0.3575 -0.2546
  177SLPC  H17R20196   2.831   4.326   9.192  1.8662 -0.7946 -1.4511
  177SLPC  H17S20197   2.833   4.274   9.361 -0.0379 -3.8178  0.9199
  177SLPC  C21820198   2.764   4.130   9.224 -0.5510  0.1223 -0.0892
  177SLPC  H18R20199   2.656   4.154   9.228 -0.6575 -0.2416 -0.6866
  177SLPC  H18S20200   2.787   4.049   9.296 -0.1147 -0.4693 -0.8696
  177SLPC  H18T20201   2.769   4.097   9.118  1.1190  1.9374 -0.6545
  177SLPC   C3320202   3.633   4.759  10.302  0.9246  0.9172 -0.0100
  177SLPC   H3X20203   3.561   4.840  10.279 -0.9386  0.9044  4.7207
  177SLPC   H3Y20204   3.572   4.669  10.281 -1.3092  1.8967  1.8706
  177SLPC   C3420205   3.763   4.779  10.228  0.5772  0.5222 -0.5309
  177SLPC   H4X20206   3.843   4.707  10.257 -1.2852 -1.4465  0.0157
  177SLPC   H4Y20207   3.800   4.882  10.246 -1.0317  1.0792 -0.2907
  177SLPC   C3520208   3.735   4.772  10.075  0.1706  0.5317 -0.3325
  177SLPC   H5X20209   3.709   4.876  10.047 -0.6643  1.1340  2.4085
  177SLPC   H5Y20210   3.648   4.706  10.058 -0.7652 -0.2871  5.5119
  177SLPC   C3620211   3.853   4.710  10.001 -1.0748  0.1938 -0.4241
  177SLPC   H6X20212   3.892   4.611  10.034 -0.7207  0.2654 -0.6294
  177SLPC   H6Y20213   3.937   4.782  10.001  0.6441 -1.6583 -3.0367
  177SLPC   C3720214   3.824   4.696   9.851  1.3504  0.0903  0.3068
  177SLPC   H7X20215   3.797   4.794   9.806 -0.8666 -0.0643  1.1979
  177SLPC   H7Y20216   3.734   4.639   9.820  0.8442  1.0788 -0.0749
  177SLPC   C3820217   3.941   4.641   9.770 -0.7564  0.0965 -0.4497
  177SLPC   H8X20218   3.953   4.533   9.792 -2.8129 -0.1569 -0.4266
  177SLPC   H8Y20219   4.035   4.696   9.794 -1.0933  1.8286 -2.7005
  177SLPC   C3920220   3.918   4.658   9.622 -0.5772  0.2362 -0.1539
  177SLPC   H9X20221   3.894   4.765   9.602 -1.8222 -0.0877 -0.4915
  177SLPC   H9Y20222   3.829   4.596   9.597 -0.4832  0.1021 -0.1586
  177SLPC  C31020223   4.043   4.617   9.540 -0.1344  0.0908 -0.3017
  177SLPC  H10X20224   4.071   4.510   9.555  0.6827  0.1952 -1.0191
  177SLPC  H10Y20225   4.126   4.684   9.569 -1.9907  2.6127 -0.4387
  177SLPC  C31120226   4.008   4.636   9.395 -0.6299 -0.5878  0.3233
  177SLPC  H11X20227   3.995   4.741   9.361  0.2345 -0.0625  1.5060
  177SLPC  H11Y20228   3.911   4.583   9.386  0.4886 -2.8933  0.9104
  177SLPC  C31220229   4.126   4.583   9.309 -0.3763 -0.0340  0.4039
  177SLPC  H12X20230   4.154   4.479   9.336  1.0890  0.1308 -0.4020
  177SLPC  H12Y20231   4.222   4.634   9.331 -0.1194  0.1595 -1.0791
  177SLPC  C31320232   4.094   4.608   9.162  0.4300  0.3190  0.0244
  177SLPC  H13X20233   4.083   4.718   9.150  2.3896  0.5899  0.2830
  177SLPC  H13Y20234   3.999   4.563   9.128 -0.0551  1.1003  0.3043
  177SLPC  C31420235   4.207   4.555   9.073  0.2249  0.1071 -0.4957
  177SLPC  H14X20236   4.290   4.510   9.131  0.1307 -0.7128 -0.9744
  177SLPC  H14Y20237   4.255   4.640   9.019 -0.2812  0.0140 -1.0998
  177SLPC  C31520238   4.150   4.441   8.977 -0.6838  0.9333  0.0350
  177SLPC  H15X20239   4.062   4.473   8.918 -1.3849 -2.1117 -0.7593
  177SLPC  H15Y20240   4.113   4.352   9.033 -0.6318 -1.0381 -2.8588
  177SLPC  C31620241   4.253   4.392   8.875 -0.2200  0.9005  0.4697
  177SLPC  H16X20242   4.288   4.477   8.812 -1.7486  0.8022 -0.5587
  177SLPC  H16Y20243   4.198   4.317   8.814  0.7803  1.0972 -0.7228
  177SLPC  C31720244   4.373   4.326   8.940  0.3063 -0.6231  0.6954
  177SLPC  H17X20245   4.332   4.259   9.019 -1.3657 -0.8604 -0.3081
  177SLPC  H17Y20246   4.437   4.405   8.984 -0.0042  1.0741 -1.6617
  177SLPC  C31820247   4.466   4.256   8.847 -0.1141 -0.0443 -0.0361
  177SLPC  H18X20248   4.428   4.155   8.820 -0.2147 -0.0310  0.0562
  177SLPC  H18Y20249   4.574   4.246   8.871  0.2447 -2.4220 -2.2748
  177SLPC  H18Z20250   4.471   4.313   8.752  0.1978  0.1126  0.0740
  178SLPC     N20251   4.607   5.616  11.136  0.4154  0.3477  0.1060
  178SLPC   C1320252   4.625   5.752  11.070 -0.2533  0.4523 -0.6040
  178SLPC  H13A20253   4.709   5.749  11.002 -0.3210 -1.3065 -0.6726
  178SLPC  H13B20254   4.536   5.784  11.018 -0.2109  0.7700 -0.4838
  178SLPC  H13C20255   4.638   5.824  11.149 -1.3942  0.5741 -0.5177
  178SLPC   C1420256   4.486   5.617  11.227 -0.7958  0.6506 -0.2471
  178SLPC  H14A20257   4.500   5.525  11.281  0.2140  0.3934 -0.9086
  178SLPC  H14B20258   4.480   5.696  11.301  1.3247 -0.9311  1.7618
  178SLPC  H14C20259   4.399   5.603  11.164 -1.0251 -1.2224  0.4476
  178SLPC   C1520260   4.721   5.601  11.226 -0.3322 -0.0418 -1.0191
  178SLPC  H15A20261   4.724   5.512  11.287  0.5534 -1.5305 -3.1378
  178SLPC  H15B20262   4.819   5.623  11.187  0.5200 -0.1253  0.9743
  178SLPC  H15C20263   4.717   5.686  11.292  0.2958  0.8224 -2.0581
  178SLPC   C1220264   4.598   5.510  11.032  0.1902  0.6061 -0.2511
  178SLPC  H12A20265   4.685   5.512  10.968  0.1169  0.8210 -0.3443
  178SLPC  H12B20266   4.522   5.535  10.959  0.3829 -1.1964 -1.1267
  178SLPC   C1120267   4.570   5.360  11.063  0.1665  0.2845 -0.3893
  178SLPC  H11A20268   4.657   5.329  11.125  0.6241 -2.1281 -2.0804
  178SLPC  H11B20269   4.580   5.301  10.970  0.7626  2.8918 -2.0665
  178SLPC     P20270   4.314   5.359  11.036  0.2836  0.2193  0.6226
  178SLPC   O1320271   4.198   5.302  11.109  0.1841 -0.5876  0.0003
  178SLPC   O1420272   4.297   5.499  10.989  0.8549  0.9119  0.5226
  178SLPC   O1220273   4.443   5.341  11.125  0.3927 -0.0095  0.5482
  178SLPC   O1120274   4.348   5.267  10.917  0.0058  0.3525  0.1029
  178SLPC    C120275   4.349   5.320  10.786 -0.7340 -0.1300  1.0327
  178SLPC    HA20276   4.414   5.409  10.773  0.6334 -0.7119  3.2926
  178SLPC    HB20277   4.391   5.246  10.714  0.9600 -0.1747  2.0204
  178SLPC    C220278   4.220   5.362  10.715  0.1981 -0.2400  0.0751
  178SLPC    HS20279   4.161   5.417  10.792  0.0857 -0.5172  0.1889
  178SLPC   O2120280   4.148   5.240  10.687 -0.2624 -0.0246  0.3277
  178SLPC   C2120281   4.023   5.247  10.662  0.0660  0.3831 -0.1320
  178SLPC   O2220282   3.953   5.342  10.696  0.3610 -0.1649  0.1485
  178SLPC   C2220283   3.974   5.115  10.604 -0.1421 -0.3013 -0.4045
  178SLPC   H2R20284   4.050   5.036  10.621 -0.1226  0.0438  1.3052
  178SLPC   H2S20285   3.886   5.092  10.668  0.1275 -0.3941 -0.0598
  178SLPC    C320286   4.234   5.462  10.597 -0.1912  0.5630 -0.2437
  178SLPC    HX20287   4.282   5.555  10.633  1.8295 -0.6199  0.2159
  178SLPC    HY20288   4.132   5.488  10.560 -0.2031 -1.5297 -1.8036
  178SLPC   O3120289   4.312   5.399  10.498  0.2643 -0.9554 -0.1575
  178SLPC   C3120290   4.365   5.473  10.412  0.2234  0.5485 -0.5959
  178SLPC   O3220291   4.354   5.595  10.404  0.1187  1.3712  0.6803
  178SLPC   C3220292   4.457   5.386  10.323 -0.0142 -0.1242 -0.1170
  178SLPC   H2X20293   4.402   5.299  10.282  1.3886 -0.9148 -0.4081
  178SLPC   H2Y20294   4.545   5.353  10.383  1.7967 -0.0472 -2.5405
  178SLPC   C2320295   3.954   5.142  10.453  0.3654 -0.1152 -0.0327
  178SLPC   H3R20296   3.896   5.236  10.440  1.0222  0.2761 -0.2020
  178SLPC   H3S20297   3.877   5.075  10.409 -2.6321  3.5390 -0.8482
  178SLPC   C2420298   4.083   5.142  10.375  0.4966 -0.0809  0.1850
  178SLPC   H4R20299   4.157   5.067  10.410 -0.6949 -1.5297 -0.2792
  178SLPC   H4S20300   4.114   5.248  10.381 -1.3011  0.4362  0.8691
  178SLPC   C2520301   4.052   5.120  10.229  0.4167 -0.1582 -0.0113
  178SLPC   H5R20302   3.984   5.193  10.181 -1.8365 -2.5764 -0.6837
  178SLPC   H5S20303   4.007   5.019  10.230 -0.4352  0.1999 -0.9260
  178SLPC   C2620304   4.174   5.114  10.147 -0.7605 -0.2421  0.2100
  178SLPC   H6R20305   4.251   5.042  10.180  0.7159  1.8890  1.6849
  178SLPC   H6S20306   4.227   5.211  10.163  0.8415 -1.5726  3.9002
  178SLPC   C2720307   4.150   5.083   9.997  0.4548 -0.3759  0.3651
  178SLPC   H7R20308   4.043   5.102   9.974  0.7956 -0.0672 -1.0432
  178SLPC   H7S20309   4.175   4.976   9.982 -0.5381 -0.6348  0.5022
  178SLPC   C2820310   4.224   5.170   9.891  0.0263 -0.5735 -0.5181
  178SLPC   H8R20311   4.224   5.272   9.934  4.0171 -0.9286  0.7344
  178SLPC   H8S20312   4.165   5.171   9.797  0.7994 -0.8228 -1.0233
  178SLPC   C2920313   4.363   5.121   9.862  0.1911 -0.1985 -0.1599
  178SLPC   H9R20314   4.429   5.121   9.950  0.7350  0.4130 -0.5591
  178SLPC  C21020315   4.404   5.083   9.743 -0.2558  0.2465 -0.0137
  178SLPC  H10R20316   4.507   5.051   9.723 -0.6192 -0.8085 -0.2941
  178SLPC  C21120317   4.327   5.089   9.612 -0.4809 -0.3504  0.6672
  178SLPC  H11R20318   4.403   5.091   9.531 -1.0811 -1.4794  0.0386
  178SLPC  H11S20319   4.282   5.190   9.600  1.8798  0.6640 -0.1577
  178SLPC  C21220320   4.224   4.985   9.591 -0.3738  0.1924  0.3329
  178SLPC  H12R20321   4.200   4.906   9.664 -4.8983  0.7875 -0.1961
  178SLPC  C21320322   4.133   4.985   9.493  0.6663  0.1550 -0.5507
  178SLPC  H13R20323   4.067   4.897   9.487  0.7408 -0.0853  1.5893
  178SLPC  C21420324   4.113   5.087   9.392 -0.2577 -0.0547  0.3009
  178SLPC  H14R20325   4.206   5.141   9.363 -0.5540 -0.3212 -1.2151
  178SLPC  H14S20326   4.025   5.150   9.416 -2.1026 -2.8662  1.4280
  178SLPC  C21520327   4.071   5.002   9.267  0.2639 -0.1775  0.0921
  178SLPC  H15R20328   3.970   4.960   9.282 -0.4409  1.6439  0.7131
  178SLPC  H15S20329   4.149   4.923   9.259  0.3547 -0.0689 -0.1107
  178SLPC  C21620330   4.077   5.079   9.138  0.7488  0.1646  0.0110
  178SLPC  H16R20331   4.180   5.115   9.120  0.2239  0.4794 -2.7845
  178SLPC  H16S20332   4.008   5.166   9.149  1.1421  0.4180  0.5063
  178SLPC  C21720333   4.038   4.997   9.013  0.2290 -0.6645 -0.8213
  178SLPC  H17R20334   3.941   4.944   9.022  0.0472 -0.0774  0.9105
  178SLPC  H17S20335   4.108   4.911   9.012  0.0180 -0.8351 -1.1553
  178SLPC  C21820336   4.049   5.065   8.879  0.3576  0.3624 -0.3180
  178SLPC  H18R20337   4.158   5.084   8.866  0.1946  2.7941  1.2042
  178SLPC  H18S20338   4.003   5.166   8.884 -0.8496 -0.1164 -1.3212
  178SLPC  H18T20339   4.007   5.014   8.790 -0.5257  2.2438 -1.0122
  178SLPC   C3320340   4.517   5.471  10.201  0.9069  0.5065  0.4214
  178SLPC   H3X20341   4.607   5.425  10.156  0.2195  0.7092 -1.2603
  178SLPC   H3Y20342   4.551   5.569  10.241 -1.9052  0.6513  2.8270
  178SLPC   C3420343   4.407   5.501  10.086  0.6554 -0.3331 -0.5394
  178SLPC   H4X20344   4.338   5.565  10.144  0.2213 -1.1916 -0.0901
  178SLPC   H4Y20345   4.360   5.404  10.060 -0.0619 -0.8164  2.2528
  178SLPC   C3520346   4.474   5.579   9.975  0.3463 -0.2016  0.0150
  178SLPC   H5X20347   4.560   5.646   9.996  1.0398 -1.1055  0.0833
  178SLPC   H5Y20348   4.394   5.651   9.946  0.9508  0.1636 -0.7905
  178SLPC   C3620349   4.508   5.490   9.855  0.0035 -0.2280  0.2073
  178SLPC   H6X20350   4.418   5.433   9.826  0.7600  0.5835 -4.6578
  178SLPC   H6Y20351   4.594   5.431   9.892  0.1143 -0.3354 -0.2136
  178SLPC   C3720352   4.561   5.577   9.736 -0.6184  0.7871  0.0608
  178SLPC   H7X20353   4.646   5.636   9.777  1.9852 -1.5672 -1.6014
  178SLPC   H7Y20354   4.474   5.639   9.705 -3.1000 -2.6541 -0.4852
  178SLPC   C3820355   4.616   5.497   9.620 -0.1839 -0.6405 -0.1991
  178SLPC   H8X20356   4.695   5.427   9.654  1.3910  2.1885  2.4295
  178SLPC   H8Y20357   4.667   5.557   9.541 -1.6127 -0.6415 -1.1636
  178SLPC   C3920358   4.503   5.428   9.545  0.0579  0.1960  0.7825
  178SLPC   H9X20359   4.429   5.502   9.507 -0.4968 -0.8282 -0.2127
  178SLPC   H9Y20360   4.442   5.361   9.609  0.0245 -0.1385  0.4047
  178SLPC  C31020361   4.547   5.347   9.416  0.3251 -0.1906  0.5575
  178SLPC  H10X20362   4.462   5.310   9.355 -1.1290  4.3686 -0.5874
  178SLPC  H10Y20363   4.601   5.252   9.440 -0.4831 -0.9221 -0.4210
  178SLPC  C31120364   4.626   5.426   9.312 -0.3220  0.6451 -0.2960
  178SLPC  H11X20365   4.733   5.433   9.340 -0.7233  1.6560  1.1228
  178SLPC  H11Y20366   4.592   5.532   9.301  0.8322  1.0648  0.1181
  178SLPC  C31220367   4.633   5.360   9.165  0.5635 -0.1247  0.1736
  178SLPC  H12X20368   4.530   5.321   9.148 -0.7251  3.2858 -0.8108
  178SLPC  H12Y20369   4.701   5.273   9.170 -1.4641 -1.6890  2.0918
  178SLPC  C31320370   4.670   5.461   9.056 -1.2404  0.2744 -0.5279
  178SLPC  H13X20371   4.664   5.399   8.964 -0.7314 -0.8332  0.1668
  178SLPC  H13Y20372   4.774   5.493   9.076 -0.4196 -0.7536 -2.8093
  178SLPC  C31420373   4.580   5.586   9.034  0.2267  0.7024  0.2189
  178SLPC  H14X20374   4.569   5.664   9.113  2.6735 -0.5087  1.8694
  178SLPC  H14Y20375   4.478   5.549   9.011 -0.3532  2.1054  0.4231
  178SLPC  C31520376   4.632   5.671   8.912  0.1128  0.0501  0.2628
  178SLPC  H15X20377   4.650   5.776   8.944  3.4295 -0.5626  0.7708
  178SLPC  H15Y20378   4.736   5.640   8.890 -0.1135  1.4350 -3.4807
  178SLPC  C31620379   4.535   5.658   8.796  0.4027 -0.8995 -0.3236
  178SLPC  H16X20380   4.433   5.695   8.821  1.5708  1.4969  1.2107
  178SLPC  H16Y20381   4.528   5.551   8.768 -0.2703 -0.6424 -1.1684
  178SLPC  C31720382   4.579   5.715   8.664 -0.3182 -0.2347  0.5803
  178SLPC  H17X20383   4.489   5.688   8.604  0.6494 -2.9378  0.1925
  178SLPC  H17Y20384   4.664   5.656   8.622 -2.0146 -1.4981 -1.3083
  178SLPC  C31820385   4.606   5.863   8.658  0.4153  0.0613 -0.2688
  178SLPC  H18X20386   4.511   5.920   8.669  0.6664  0.2015  1.4380
  178SLPC  H18Y20387   4.656   5.893   8.564 -0.1004  1.0705 -0.2339
  178SLPC  H18Z20388   4.670   5.884   8.746 -0.2828 -2.9916  1.0827
  179SLPC     N20389   5.078   2.598  10.699 -0.8341  0.0364  1.0491
  179SLPC   C1320390   4.931   2.576  10.695  0.3563 -0.6403 -0.0777
  179SLPC  H13A20391   4.921   2.487  10.635  1.6246 -1.0251  0.2308
  179SLPC  H13B20392   4.893   2.546  10.792  0.7357  0.4376  0.4329
  179SLPC  H13C20393   4.868   2.661  10.673 -0.2678 -1.5861 -2.1315
  179SLPC   C1420394   5.126   2.695  10.806 -0.2089  0.8024  1.1862
  179SLPC  H14A20395   5.233   2.706  10.796  0.1799 -2.7725 -0.0027
  179SLPC  H14B20396   5.078   2.791  10.799 -2.7186 -0.4961 -1.3961
  179SLPC  H14C20397   5.095   2.663  10.905 -1.4034  2.3678  1.3595
  179SLPC   C1520398   5.123   2.659  10.570 -0.7847  0.5975  0.1312
  179SLPC  H15A20399   5.229   2.678  10.560 -0.3813 -1.0072  0.9996
  179SLPC  H15B20400   5.100   2.589  10.492  0.9399  0.1502 -0.0271
  179SLPC  H15C20401   5.076   2.752  10.541  2.0746  1.9641 -0.5602
  179SLPC   C1220402   5.159   2.468  10.718  0.0169 -0.4720 -0.1651
  179SLPC  H12A20403   5.110   2.406  10.792  0.8295  0.7475  1.4426
  179SLPC  H12B20404   5.256   2.490  10.759  0.3135 -1.0240 -0.5504
  179SLPC   C1120405   5.186   2.385  10.594  0.1800 -0.5036 -0.1445
  179SLPC  H11A20406   5.253   2.300  10.618  0.9717  0.5725  1.6433
  179SLPC  H11B20407   5.251   2.447  10.528 -1.2697  1.7957  0.4567
  179SLPC     P20408   5.045   2.343  10.379  0.3806  0.4009  0.1353
  179SLPC   O1320409   4.899   2.337  10.343  0.0405  0.3680  0.2824
  179SLPC   O1420410   5.124   2.449  10.317  0.1984 -0.4034 -0.0022
  179SLPC   O1220411   5.065   2.336  10.532 -0.0425 -0.2879 -0.2992
  179SLPC   O1120412   5.102   2.203  10.342 -0.0926  0.2783  0.0457
  179SLPC    C120413   5.206   2.211  10.243 -0.6048 -0.0871 -0.1498
  179SLPC    HA20414   5.286   2.280  10.276  0.4981 -1.4902  0.2418
  179SLPC    HB20415   5.254   2.111  10.252 -2.2744 -0.8435  1.0840
  179SLPC    C220416   5.151   2.223  10.095 -0.2978  0.1073  0.3666
  179SLPC    HS20417   5.105   2.323  10.098 -0.4652  0.0139  3.3419
  179SLPC   O2120418   5.062   2.117  10.067  0.8378  0.3702  0.5184
  179SLPC   C2120419   4.966   2.138   9.976  0.4461  0.1837 -0.2556
  179SLPC   O2220420   4.947   2.248   9.925 -0.5796  0.0813  0.3089
  179SLPC   C2220421   4.904   2.003   9.938  0.6853 -0.6395  0.9743
  179SLPC   H2R20422   4.986   1.929   9.944  2.2825  0.8129 -1.3653
  179SLPC   H2S20423   4.834   1.972  10.019  0.2168 -1.4466  0.2786
  179SLPC    C320424   5.281   2.219   9.999  0.8315  0.6312 -0.0490
  179SLPC    HX20425   5.323   2.119  10.024  0.0310  0.8827  2.6567
  179SLPC    HY20426   5.360   2.286  10.040 -0.2373  2.4267 -0.7956
  179SLPC   O3120427   5.243   2.235   9.859  0.0635  0.0776 -0.9371
  179SLPC   C3120428   5.218   2.362   9.832 -0.4954 -0.0333 -0.4171
  179SLPC   O3220429   5.246   2.456   9.903 -0.2579  0.1700 -0.1525
  179SLPC   C3220430   5.158   2.368   9.695  0.1073 -0.2662  0.8646
  179SLPC   H2X20431   5.048   2.348   9.703  0.0818 -2.9327 -3.3735
  179SLPC   H2Y20432   5.208   2.302   9.622 -0.4822  1.5067 -1.2232
  179SLPC   C2320433   4.831   2.006   9.805  0.9949  0.0046 -0.6333
  179SLPC   H3R20434   4.759   2.091   9.810  1.8850  0.7344  0.2309
  179SLPC   H3S20435   4.777   1.914   9.775  0.2604  0.5837 -1.1375
  179SLPC   C2420436   4.936   2.026   9.697  0.0406  0.1673 -0.1933
  179SLPC   H4R20437   4.987   1.928   9.693  0.9148  0.5941  0.2213
  179SLPC   H4S20438   5.021   2.092   9.724  0.1183 -1.0620  2.8845
  179SLPC   C2520439   4.882   2.052   9.550  0.5216  0.1225 -0.2588
  179SLPC   H5R20440   4.818   1.967   9.518  0.2721 -0.0109  0.5807
  179SLPC   H5S20441   4.965   2.063   9.476  1.3539  1.6848  0.8580
  179SLPC   C2620442   4.811   2.188   9.526  0.2530 -0.1880  0.3916
  179SLPC   H6R20443   4.873   2.278   9.549  0.3153  0.1766 -1.0693
  179SLPC   H6S20444   4.718   2.178   9.585  0.4245  1.1442  0.9373
  179SLPC   C2720445   4.778   2.197   9.372 -0.2331  0.8137 -1.0188
  179SLPC   H7R20446   4.717   2.110   9.339  0.4461  0.3675 -1.1276
  179SLPC   H7S20447   4.875   2.212   9.321  0.0887  1.5098 -0.2351
  179SLPC   C2820448   4.682   2.316   9.340 -0.9935 -0.2036 -0.9646
  179SLPC   H8R20449   4.596   2.316   9.410 -0.6319  0.6634 -0.5090
  179SLPC   H8S20450   4.636   2.299   9.240 -1.0349  0.4623 -1.0639
  179SLPC   C2920451   4.763   2.445   9.327  0.4004 -0.1866  0.2289
  179SLPC   H9R20452   4.792   2.486   9.425 -0.1170 -0.0525  0.3261
  179SLPC  C21020453   4.784   2.510   9.210  0.5493  0.6615  0.2927
  179SLPC  H10R20454   4.834   2.608   9.219  1.1535  0.2284  1.9887
  179SLPC  C21120455   4.754   2.448   9.072  0.7389 -0.3555  0.2083
  179SLPC  H11R20456   4.644   2.440   9.060  0.5769  0.6176  0.8690
  179SLPC  H11S20457   4.793   2.345   9.085 -0.7814 -0.8278  1.3214
  179SLPC  C21220458   4.819   2.515   8.960  0.2449 -0.0293  0.3373
  179SLPC  H12R20459   4.882   2.602   8.985 -1.2894  1.1735  0.1278
  179SLPC  C21320460   4.816   2.467   8.837 -0.3690 -0.7704 -0.1258
  179SLPC  H13R20461   4.870   2.530   8.766 -1.8567  1.9084  0.9904
  179SLPC  C21420462   4.740   2.345   8.783  1.0652  0.0261 -0.0664
  179SLPC  H14R20463   4.676   2.373   8.696  0.1502 -1.9588 -0.0754
  179SLPC  H14S20464   4.654   2.308   8.843 -1.7557  1.2874 -2.9974
  179SLPC  C21520465   4.828   2.222   8.752 -0.3567  0.2833 -0.0334
  179SLPC  H15R20466   4.884   2.205   8.847 -1.9939 -1.7223  0.6507
  179SLPC  H15S20467   4.901   2.233   8.670 -0.2277 -0.7330 -0.0687
  179SLPC  C21620468   4.751   2.090   8.731  0.2918 -0.1290  0.1029
  179SLPC  H16R20469   4.770   2.054   8.627  0.2910  1.8724 -0.6358
  179SLPC  H16S20470   4.644   2.121   8.725  0.6259  0.9644 -0.4853
  179SLPC  C21720471   4.792   1.984   8.832 -0.0223 -0.0131 -0.1969
  179SLPC  H17R20472   4.899   2.001   8.859 -0.7718  0.8635  2.4494
  179SLPC  H17S20473   4.791   1.880   8.792  2.1278 -0.7721  1.5346
  179SLPC  C21820474   4.710   1.993   8.961  0.2750  0.3214 -0.2940
  179SLPC  H18R20475   4.721   1.917   9.041 -0.5406  3.4602  3.0609
  179SLPC  H18S20476   4.601   2.002   8.940  0.5044  1.9438 -0.9148
  179SLPC  H18T20477   4.731   2.086   9.019  0.3898 -1.5243  2.8286
  179SLPC   C3320478   5.192   2.504   9.635 -0.2957 -0.0495  0.6313
  179SLPC   H3X20479   5.299   2.533   9.639  0.3340 -2.1669  0.1955
  179SLPC   H3Y20480   5.135   2.581   9.691 -0.8542 -0.1375  0.1979
  179SLPC   C3420481   5.147   2.518   9.490  0.5298 -0.0745  0.2580
  179SLPC   H4X20482   5.112   2.622   9.474 -0.5074 -0.0355  2.5450
  179SLPC   H4Y20483   5.059   2.454   9.470  0.3472 -0.2237  1.4771
  179SLPC   C3520484   5.255   2.478   9.386 -0.4424 -0.5209  0.5553
  179SLPC   H5X20485   5.301   2.378   9.401  0.6035 -0.3724 -1.3655
  179SLPC   H5Y20486   5.337   2.550   9.406  0.3084 -0.9280 -0.8925
  179SLPC   C3620487   5.195   2.497   9.243  0.4282  1.0416  0.2666
  179SLPC   H6X20488   5.155   2.600   9.257  1.1611  1.3716 -0.0578
  179SLPC   H6Y20489   5.105   2.433   9.231  3.2766 -3.5322  0.8519
  179SLPC   C3720490   5.286   2.509   9.129 -0.2312  0.1012 -0.3517
  179SLPC   H7X20491   5.373   2.569   9.163  0.6192 -2.4093  2.3179
  179SLPC   H7Y20492   5.232   2.548   9.040 -0.7262 -0.0487 -0.1219
  179SLPC   C3820493   5.354   2.376   9.093 -0.4047  0.6829  0.0957
  179SLPC   H8X20494   5.419   2.346   9.178  0.1751  0.8700 -0.2827
  179SLPC   H8Y20495   5.416   2.379   9.001  1.9394 -1.6453  1.4710
  179SLPC   C3920496   5.266   2.250   9.085 -0.2202  0.8297 -0.5079
  179SLPC   H9X20497   5.179   2.264   9.017 -1.5424 -2.8525  0.2127
  179SLPC   H9Y20498   5.223   2.231   9.186 -0.1024 -1.1263 -0.8018
  179SLPC  C31020499   5.336   2.123   9.039  0.0820  0.4045  0.0789
  179SLPC  H10X20500   5.378   2.076   9.130 -0.6964  0.3991  0.4398
  179SLPC  H10Y20501   5.414   2.158   8.967 -1.3593 -2.2474 -3.0024
  179SLPC  C31120502   5.245   2.013   8.974  0.5001  0.1359  0.6638
  179SLPC  H11X20503   5.192   2.067   8.894  2.9853  2.8496  0.6829
  179SLPC  H11Y20504   5.165   1.983   9.045 -0.0532 -0.4623 -0.1990
  179SLPC  C31220505   5.324   1.896   8.922 -0.2694 -0.3310 -0.1122
  179SLPC  H12X20506   5.362   1.840   9.010  1.4419  0.0889 -0.5287
  179SLPC  H12Y20507   5.419   1.935   8.879 -0.1967  1.4867  1.5567
  179SLPC  C31320508   5.252   1.804   8.824 -0.0194  0.4811  1.1050
  179SLPC  H13X20509   5.183   1.869   8.766  1.1723 -1.4070 -2.7917
  179SLPC  H13Y20510   5.184   1.734   8.878 -1.9204  1.2633 -0.1683
  179SLPC  C31420511   5.332   1.724   8.722  0.7584  0.1397  0.2964
  179SLPC  H14X20512   5.362   1.800   8.646  1.0972  0.4410  0.7287
  179SLPC  H14Y20513   5.257   1.654   8.679  0.5562  0.8634 -0.5803
  179SLPC  C31520514   5.459   1.653   8.774  0.5500 -0.1040 -0.4442
  179SLPC  H15X20515   5.411   1.573   8.834 -2.8537  0.4641 -2.1573
  179SLPC  H15Y20516   5.522   1.723   8.833  0.8163  0.4487 -1.3739
  179SLPC  C31620517   5.548   1.592   8.666  0.1488 -0.2170  0.3555
  179SLPC  H16X20518   5.566   1.676   8.595  1.3665 -3.4229 -3.5069
  179SLPC  H16Y20519   5.487   1.517   8.612 -1.1717 -0.6584  2.3386
  179SLPC  C31720520   5.672   1.526   8.704 -0.3976 -0.3293 -0.0618
  179SLPC  H17X20521   5.740   1.606   8.741  1.3228 -1.1736 -1.2496
  179SLPC  H17Y20522   5.727   1.484   8.617 -1.1100  1.6008 -1.5146
  179SLPC  C31820523   5.659   1.418   8.806 -0.3387  0.2018 -0.8292
  179SLPC  H18X20524   5.575   1.353   8.772  0.6219  0.6738 -4.4789
  179SLPC  H18Y20525   5.636   1.461   8.906 -1.1553  1.2103 -1.4329
  179SLPC  H18Z20526   5.755   1.366   8.823 -0.8827 -1.0616 -1.4475
  180SLPC     N20527   1.993   1.029  11.244 -0.3162  0.0563  0.6493
  180SLPC   C1320528   1.956   0.942  11.364  0.3929 -0.4852 -0.0418
  180SLPC  H13A20529   1.948   0.836  11.344 -1.3455 -0.4471  0.2865
  180SLPC  H13B20530   2.037   0.953  11.435  0.7207 -2.6197 -0.0199
  180SLPC  H13C20531   1.859   0.966  11.405 -0.5095 -2.3365 -0.9928
  180SLPC   C1420532   2.138   1.000  11.216  0.1407  0.1358 -0.8576
  180SLPC  H14A20533   2.207   1.020  11.296 -0.9365 -1.0908  0.4146
  180SLPC  H14B20534   2.163   0.896  11.198 -0.5033 -0.1956  0.0979
  180SLPC  H14C20535   2.166   1.065  11.134 -1.4612  1.2943 -0.5440
  180SLPC   C1520536   1.967   1.171  11.289  0.0098 -0.2496  0.0441
  180SLPC  H15A20537   2.020   1.193  11.380 -1.7110 -0.3283  1.0891
  180SLPC  H15B20538   2.007   1.237  11.213 -0.9371  0.6047  0.2705
  180SLPC  H15C20539   1.863   1.196  11.295 -0.1327 -0.9591  0.6915
  180SLPC   C1220540   1.904   0.989  11.130 -0.2510 -0.7060  0.3100
  180SLPC  H12A20541   1.813   0.946  11.169 -1.8572  1.5438 -0.7840
  180SLPC  H12B20542   1.952   0.914  11.069  0.6599  0.0496  0.0883
  180SLPC   C1120543   1.865   1.099  11.029  0.2268  0.1440 -0.5268
  180SLPC  H11A20544   1.817   1.189  11.072  0.7523  0.4616 -0.5837
  180SLPC  H11B20545   1.782   1.064  10.964 -1.6737  2.9013  0.2481
  180SLPC     P20546   2.045   1.040  10.850 -0.3030 -0.0031 -0.3804
  180SLPC   O1320547   2.171   1.100  10.808 -0.0812 -0.0993 -0.5678
  180SLPC   O1420548   2.053   0.900  10.895  0.0434 -0.0232  0.2714
  180SLPC   O1220549   1.981   1.147  10.952 -0.4216  0.4029  0.0446
  180SLPC   O1120550   1.949   1.047  10.730 -0.3632  0.7105  0.8945
  180SLPC    C120551   1.882   1.163  10.691  0.7916 -0.1071  0.1487
  180SLPC    HA20552   1.772   1.147  10.688  0.8668 -0.4954 -0.4943
  180SLPC    HB20553   1.892   1.246  10.765 -0.4053 -0.7885  1.1155
  180SLPC    C220554   1.929   1.216  10.556  0.4725 -0.0635  0.9215
  180SLPC    HS20555   1.888   1.318  10.540  0.8986 -0.1254 -0.7711
  180SLPC   O2120556   1.886   1.122  10.463  0.5336 -0.0055 -0.0167
  180SLPC   C2120557   1.759   1.138  10.416 -0.6426  0.1692 -0.0303
  180SLPC   O2220558   1.678   1.227  10.456 -0.4029  0.0212  0.1349
  180SLPC   C2220559   1.736   1.027  10.312  0.5487 -0.2360 -0.3782
  180SLPC   H2R20560   1.767   0.927  10.348  0.2751  0.2557  1.2859
  180SLPC   H2S20561   1.628   1.021  10.286  0.1541  0.1237  1.1036
  180SLPC    C320562   2.082   1.246  10.538 -0.2000  0.4105  0.8371
  180SLPC    HX20563   2.156   1.166  10.555  0.8358  1.1296 -0.1263
  180SLPC    HY20564   2.111   1.329  10.606 -0.8800  0.8506  0.6056
  180SLPC   O3120565   2.099   1.298  10.407  0.1570  0.2701  0.2242
  180SLPC   C3120566   2.121   1.203  10.317 -0.7566  0.0693  0.4401
  180SLPC   O3220567   2.129   1.084  10.336  0.1343 -0.1112 -0.7006
  180SLPC   C3220568   2.123   1.271  10.181 -0.0083  0.1250  0.5121
  180SLPC   H2X20569   2.191   1.358  10.196  1.1368 -1.0031  2.1545
  180SLPC   H2Y20570   2.020   1.310  10.161  0.7112  1.0445 -1.6379
  180SLPC   C2320571   1.816   1.061  10.188  0.1476 -0.0736  1.1725
  180SLPC   H3R20572   1.912   1.005  10.180  0.4442  0.6298 -0.9447
  180SLPC   H3S20573   1.843   1.168  10.172  1.1637 -0.6462 -1.5968
  180SLPC   C2420574   1.734   1.030  10.066  0.4145  0.4708 -0.0248
  180SLPC   H4R20575   1.634   1.078  10.066 -0.9551 -2.1170  1.6144
  180SLPC   H4S20576   1.703   0.924  10.080 -3.1353  1.3186 -0.5351
  180SLPC   C2520577   1.809   1.050   9.930  0.0282 -0.4734 -0.2024
  180SLPC   H5R20578   1.891   0.977   9.916 -0.3088 -1.2142  1.4514
  180SLPC   H5S20579   1.862   1.147   9.935 -1.5339  0.3660  3.6857
  180SLPC   C2620580   1.704   1.036   9.812 -1.2247 -0.1728 -0.5664
  180SLPC   H6R20581   1.672   1.138   9.784 -1.5789 -0.4964 -1.3832
  180SLPC   H6S20582   1.609   0.984   9.836 -0.4190 -0.3393  2.7704
  180SLPC   C2720583   1.775   0.987   9.681  0.1786  0.4340  0.3732
  180SLPC   H7R20584   1.867   1.048   9.673  1.4631 -1.5433 -1.0678
  180SLPC   H7S20585   1.718   1.012   9.589  0.3400  0.7177  0.3532
  180SLPC   C2820586   1.816   0.831   9.673 -0.5800  0.0627 -0.7623
  180SLPC   H8R20587   1.857   0.798   9.771 -1.3613  0.6781 -0.2167
  180SLPC   H8S20588   1.901   0.812   9.604 -2.0755 -0.3636 -2.5726
  180SLPC   C2920589   1.697   0.746   9.639  0.4399 -0.7403  0.5717
  180SLPC   H9R20590   1.626   0.705   9.713  0.1984 -2.7929 -0.7347
  180SLPC  C21020591   1.670   0.717   9.510  0.2598  0.1694  0.2051
  180SLPC  H10R20592   1.587   0.648   9.489  1.6464 -2.2413  2.0477
  180SLPC  C21120593   1.755   0.767   9.392  0.3421  0.0222  1.0141
  180SLPC  H11R20594   1.860   0.754   9.424  1.3682  0.6259 -1.7867
  180SLPC  H11S20595   1.736   0.874   9.368  1.7067  0.4799  1.8569
  180SLPC  C21220596   1.741   0.675   9.269  0.5696  0.3071 -0.9447
  180SLPC  H12R20597   1.774   0.571   9.282  1.5869  0.3759 -2.7329
  180SLPC  C21320598   1.687   0.701   9.152  0.5672  0.1008  0.0911
  180SLPC  H13R20599   1.681   0.619   9.079  1.1124 -0.2209  0.4074
  180SLPC  C21420600   1.622   0.831   9.107  0.2171 -0.5742  0.4736
  180SLPC  H14R20601   1.691   0.886   9.041  0.2548 -0.0529  0.9395
  180SLPC  H14S20602   1.611   0.895   9.197  2.7935  1.4198 -0.5069
  180SLPC  C21520603   1.488   0.791   9.047  0.2394 -0.0978  0.9227
  180SLPC  H15R20604   1.438   0.704   9.095  1.7495 -2.0308 -0.8159
  180SLPC  H15S20605   1.501   0.754   8.944 -1.4698  1.3237  0.1421
  180SLPC  C21620606   1.378   0.897   9.036 -0.6878 -0.6937 -0.5213
  180SLPC  H16R20607   1.352   0.914   9.143  0.2802 -1.0797 -0.2076
  180SLPC  H16S20608   1.294   0.858   8.976  1.3200 -1.6351 -2.8801
  180SLPC  C21720609   1.417   1.036   8.971 -0.5357 -0.0270  0.0543
  180SLPC  H17R20610   1.500   1.065   9.039  0.2301 -0.4706 -0.6717
  180SLPC  H17S20611   1.326   1.099   8.973 -0.4472  0.0699  1.8982
  180SLPC  C21820612   1.469   1.032   8.833  0.3222  0.2290  0.2631
  180SLPC  H18R20613   1.392   0.982   8.770  0.3411  0.7717 -0.1995
  180SLPC  H18S20614   1.560   0.968   8.837 -0.0485 -0.2725  4.0494
  180SLPC  H18T20615   1.491   1.128   8.781 -1.2402 -0.7601 -2.4667
  180SLPC   C3320616   2.170   1.181  10.067 -0.7175 -0.4140  0.4150
  180SLPC   H3X20617   2.129   1.078  10.063 -1.4529 -0.4064  4.3697
  180SLPC   H3Y20618   2.274   1.152  10.090 -0.0054  1.4618 -0.1856
  180SLPC   C3420619   2.162   1.258   9.932 -0.0554  0.4371 -0.4361
  180SLPC   H4X20620   2.243   1.334   9.931 -0.8636  1.3330  0.5189
  180SLPC   H4Y20621   2.064   1.310   9.932  0.5338  1.6771  1.9284
  180SLPC   C3520622   2.164   1.163   9.810 -0.4138 -0.0777 -0.3590
  180SLPC   H5X20623   2.080   1.092   9.803  0.9218 -1.9283  1.2216
  180SLPC   H5Y20624   2.259   1.104   9.812 -1.4322 -1.8980 -1.8514
  180SLPC   C3620625   2.153   1.244   9.681  0.6994  0.4778 -0.3924
  180SLPC   H6X20626   2.238   1.316   9.688  1.6067 -0.7008  2.8750
  180SLPC   H6Y20627   2.055   1.296   9.674  0.2260 -0.2907  0.3445
  180SLPC   C3720628   2.154   1.148   9.560 -0.6330  0.0167 -0.1041
  180SLPC   H7X20629   2.075   1.074   9.583  0.8985 -1.1221  1.7440
  180SLPC   H7Y20630   2.259   1.119   9.539 -0.0151  0.5754  1.9309
  180SLPC   C3820631   2.105   1.215   9.436  0.2202  0.0137 -0.2307
  180SLPC   H8X20632   2.167   1.304   9.414 -1.6344  0.9645 -1.8934
  180SLPC   H8Y20633   2.001   1.253   9.448  0.1617 -0.4179  0.7517
  180SLPC   C3920634   2.112   1.123   9.309  0.6617 -0.4390 -0.2783
  180SLPC   H9X20635   2.207   1.067   9.311 -0.1838 -1.9150  1.3066
  180SLPC   H9Y20636   2.120   1.192   9.222 -2.4509  0.2817 -0.1270
  180SLPC  C31020637   1.985   1.039   9.292 -0.2636  0.0542 -0.1793
  180SLPC  H10X20638   1.890   1.097   9.293  0.3045  1.1298 -2.4588
  180SLPC  H10Y20639   1.976   0.966   9.375  2.2349 -1.2903 -1.0002
  180SLPC  C31120640   1.986   0.941   9.175 -0.5521 -0.0425 -0.4604
  180SLPC  H11X20641   1.897   0.875   9.169  1.0944 -2.2853 -1.6812
  180SLPC  H11Y20642   2.066   0.868   9.199 -1.2613 -0.6242  0.2164
  180SLPC  C31220643   1.984   1.013   9.042 -0.2958 -0.2711 -0.6994
  180SLPC  H12X20644   2.074   1.076   9.026 -0.6986  0.0817 -1.6937
  180SLPC  H12Y20645   1.896   1.081   9.045 -0.1829 -0.1623  0.9816
  180SLPC  C31320646   1.976   0.905   8.925 -0.6626 -0.2128  0.4541
  180SLPC  H13X20647   1.905   0.828   8.960 -1.4109 -0.4224 -1.4140
  180SLPC  H13Y20648   2.072   0.852   8.905 -0.9578  0.1039 -2.2425
  180SLPC  C31420649   1.922   0.969   8.791  0.6422  0.9913  0.1936
  180SLPC  H14X20650   1.817   0.998   8.814 -0.0384 -0.7463 -0.5619
  180SLPC  H14Y20651   1.928   0.879   8.726  0.2409  2.2940 -1.7170
  180SLPC  C31520652   2.008   1.089   8.738 -0.0624 -0.5594  0.4922
  180SLPC  H15X20653   2.115   1.060   8.728 -0.4765 -1.3958 -2.4655
  180SLPC  H15Y20654   2.008   1.178   8.805 -0.2252  0.0327 -0.2780
  180SLPC  C31620655   1.961   1.142   8.598 -0.1630  0.0709  1.1086
  180SLPC  H16X20656   1.934   1.050   8.542  1.0199  0.0883  0.4698
  180SLPC  H16Y20657   2.050   1.195   8.557 -1.0791  3.3302  2.9361
  180SLPC  C31720658   1.842   1.254   8.601 -0.6033  0.6897  0.3272
  180SLPC  H17X20659   1.825   1.267   8.492  2.3846 -0.9448 -0.4478
  180SLPC  H17Y20660   1.872   1.348   8.653 -0.6857  2.3055 -2.3276
  180SLPC  C31820661   1.714   1.211   8.668  0.1647  0.3001  0.3902
  180SLPC  H18X20662   1.716   1.192   8.777 -1.9111 -2.8500  0.0096
  180SLPC  H18Y20663   1.666   1.126   8.615 -0.4601  0.7118  0.2830
  180SLPC  H18Z20664   1.628   1.278   8.647  0.9722  0.7252 -1.8961
  181SLPC     N20665   4.999   3.599  11.139 -0.3641 -0.4081 -0.0631
  181SLPC   C1320666   4.915   3.490  11.098  0.0780  0.5119  0.0698
  181SLPC  H13A20667   4.817   3.506  11.054  0.9020 -2.0566 -3.0911
  181SLPC  H13B20668   4.973   3.426  11.034 -1.1083 -0.4488 -0.0957
  181SLPC  H13C20669   4.890   3.425  11.181  0.8547 -0.0368 -0.1221
  181SLPC   C1420670   5.130   3.534  11.194 -0.0376 -0.4347  0.3522
  181SLPC  H14A20671   5.206   3.602  11.230 -1.0535 -0.0808  1.9336
  181SLPC  H14B20672   5.108   3.475  11.282 -0.8212  0.4100  0.7426
  181SLPC  H14C20673   5.173   3.470  11.119 -0.6959  0.1688 -0.5576
  181SLPC   C1520674   4.926   3.672  11.242  0.1939 -0.6307 -0.7528
  181SLPC  H15A20675   4.965   3.772  11.251  0.7639 -0.8531 -0.7156
  181SLPC  H15B20676   4.828   3.686  11.197 -1.3240 -1.1868  2.1097
  181SLPC  H15C20677   4.910   3.628  11.340 -2.2090 -0.0496 -0.8116
  181SLPC   C1220678   5.034   3.683  11.021  0.2102 -0.4917 -0.0851
  181SLPC  H12A20679   5.088   3.625  10.948  1.5398 -1.5445  1.6553
  181SLPC  H12B20680   5.101   3.765  11.047 -1.7559  0.7272  1.4601
  181SLPC   C1120681   4.920   3.748  10.938  0.9954  0.1029 -0.0924
  181SLPC  H11A20682   4.846   3.672  10.905 -0.3318  0.7152  1.3567
  181SLPC  H11B20683   4.962   3.794  10.846  0.5193  0.6004 -0.0698
  181SLPC     P20684   4.917   3.976  11.054  0.3819 -0.2191 -0.3667
  181SLPC   O1320685   4.885   3.990  11.199  0.8468  0.3388  0.6581
  181SLPC   O1420686   5.060   3.965  11.011  0.1881  0.1475 -0.0584
  181SLPC   O1220687   4.847   3.844  11.012 -0.3166 -0.0944 -0.3159
  181SLPC   O1120688   4.840   4.078  10.975  0.2222 -0.5288 -0.1944
  181SLPC    C120689   4.722   4.053  10.905  0.4790  0.0366 -0.3868
  181SLPC    HA20690   4.667   3.961  10.934  1.0301 -0.7603 -1.8279
  181SLPC    HB20691   4.653   4.138  10.925 -1.2956 -0.6043 -3.1969
  181SLPC    C220692   4.735   4.059  10.752  0.3888 -0.2648 -0.5705
  181SLPC    HS20693   4.787   3.964  10.725  2.6589  0.8412 -0.3270
  181SLPC   O2120694   4.811   4.176  10.714 -0.2514 -0.0222 -0.5119
  181SLPC   C2120695   4.927   4.150  10.655  0.1142 -0.2390 -0.3987
  181SLPC   O2220696   4.975   4.046  10.620  0.0069  0.1708 -0.1545
  181SLPC   C2220697   4.993   4.283  10.626  0.0639  0.4839  0.4920
  181SLPC   H2R20698   4.916   4.362  10.611  0.9069  0.9970 -1.5222
  181SLPC   H2S20699   5.052   4.322  10.712 -1.3021  2.1769  0.7027
  181SLPC    C320700   4.592   4.062  10.696 -0.0615 -0.2501 -0.4771
  181SLPC    HX20701   4.570   4.166  10.727  0.4911 -0.4774  0.7607
  181SLPC    HY20702   4.522   3.993  10.749  0.5298 -2.1550 -2.0378
  181SLPC   O3120703   4.583   4.060  10.551 -0.0461 -0.7785  0.2789
  181SLPC   C3120704   4.566   3.947  10.493  0.8964 -0.1163  0.3957
  181SLPC   O3220705   4.534   3.844  10.548 -0.5957 -0.2005 -0.2957
  181SLPC   C3220706   4.579   3.978  10.341 -0.0973  0.2599 -0.3620
  181SLPC   H2X20707   4.562   4.087  10.324 -0.1857 -0.0361 -2.5672
  181SLPC   H2Y20708   4.505   3.914  10.288  1.9954 -1.6846 -1.1318
  181SLPC   C2320709   5.084   4.278  10.498 -0.3959  0.6918  0.2923
  181SLPC   H3R20710   5.167   4.206  10.510  0.7602  1.7599 -1.0108
  181SLPC   H3S20711   5.134   4.376  10.491 -2.3444  1.6780 -0.8587
  181SLPC   C2420712   5.001   4.250  10.370 -1.2542 -0.0457 -0.3813
  181SLPC   H4R20713   4.912   4.315  10.357 -1.4050 -0.1558  0.0840
  181SLPC   H4S20714   4.959   4.149  10.387  1.4526 -0.9115  1.9358
  181SLPC   C2520715   5.089   4.265  10.240 -0.0732 -0.4927 -0.1205
  181SLPC   H5R20716   5.101   4.374  10.222 -0.0016 -0.8155 -2.2792
  181SLPC   H5S20717   5.036   4.232  10.148  2.3517  0.6838 -2.0512
  181SLPC   C2620718   5.216   4.178  10.241  0.1365  0.5711  0.4455
  181SLPC   H6R20719   5.206   4.075  10.282  0.3037  0.7671  0.9772
  181SLPC   H6S20720   5.288   4.230  10.307  1.0271  1.1033 -0.9041
  181SLPC   C2720721   5.295   4.164  10.109 -0.5671 -0.2400 -1.1650
  181SLPC   H7R20722   5.249   4.077  10.057  0.0399 -1.9805  1.0520
  181SLPC   H7S20723   5.398   4.129  10.130 -0.5966 -0.1529 -0.8804
  181SLPC   C2820724   5.309   4.296  10.021  0.0525  0.1618 -0.6388
  181SLPC   H8R20725   5.209   4.344  10.025 -0.6976 -1.2802  3.9811
  181SLPC   H8S20726   5.346   4.267   9.921 -0.5048  1.0430 -1.1189
  181SLPC   C2920727   5.414   4.389  10.084 -0.1384  0.4029 -0.9183
  181SLPC   H9R20728   5.415   4.411  10.192  2.6634 -0.7580 -0.6113
  181SLPC  C21020729   5.524   4.446  10.014  0.6883 -0.4880 -0.0762
  181SLPC  H10R20730   5.588   4.521  10.063  0.7425 -1.3816  1.2973
  181SLPC  C21120731   5.555   4.435   9.867 -0.5136 -0.0611  0.0279
  181SLPC  H11R20732   5.535   4.535   9.823 -1.3107 -0.6838 -1.0867
  181SLPC  H11S20733   5.492   4.362   9.810  0.4024  0.9452 -2.4114
  181SLPC  C21220734   5.700   4.405   9.833 -0.2734 -0.4547 -0.0127
  181SLPC  H12R20735   5.770   4.432   9.912  0.0318 -1.3448  0.0351
  181SLPC  C21320736   5.746   4.360   9.708 -0.1434  0.2730 -0.2418
  181SLPC  H13R20737   5.850   4.325   9.696 -0.8374 -1.2953 -2.3314
  181SLPC  C21420738   5.665   4.324   9.585 -0.1640  0.0720  0.2609
  181SLPC  H14R20739   5.581   4.395   9.569  0.8848  1.0852 -0.9184
  181SLPC  H14S20740   5.629   4.220   9.605 -0.4384  0.5683  2.7650
  181SLPC  C21520741   5.759   4.331   9.466  0.1419 -0.5358 -0.3246
  181SLPC  H15R20742   5.839   4.256   9.485  0.4894  0.1677  1.0919
  181SLPC  H15S20743   5.800   4.434   9.458 -1.5663  0.1227 -0.9970
  181SLPC  C21620744   5.687   4.291   9.339  0.0164  0.3381  0.0388
  181SLPC  H16R20745   5.590   4.340   9.316  0.3301  1.2577  0.5946
  181SLPC  H16S20746   5.675   4.181   9.343  0.0432  0.2425 -1.8992
  181SLPC  C21720747   5.775   4.320   9.213 -0.2672 -0.1237 -0.3601
  181SLPC  H17R20748   5.872   4.270   9.231 -0.6195 -1.1789 -1.2416
  181SLPC  H17S20749   5.797   4.428   9.221  0.3325 -0.3283  1.0335
  181SLPC  C21820750   5.710   4.294   9.081  0.6818  1.0864  0.5542
  181SLPC  H18R20751   5.785   4.321   9.004 -0.0353 -2.9304 -1.8831
  181SLPC  H18S20752   5.612   4.339   9.056  0.8355  0.4179 -1.4135
  181SLPC  H18T20753   5.685   4.188   9.057  0.3340  1.1805  0.4959
  181SLPC   C3320754   4.720   3.949  10.277  0.2545 -0.0383 -0.4722
  181SLPC   H3X20755   4.727   3.841  10.253  2.2208  0.1922 -1.0615
  181SLPC   H3Y20756   4.806   3.975  10.342  0.4149 -2.3022  0.2993
  181SLPC   C3420757   4.728   4.011  10.133 -0.6447 -0.0786  0.2534
  181SLPC   H4X20758   4.723   4.122  10.132 -0.4481  0.0388 -3.4447
  181SLPC   H4Y20759   4.642   3.973  10.074 -1.0361  0.1351  0.6828
  181SLPC   C3520760   4.853   3.975  10.048  0.0949  0.5550  0.0657
  181SLPC   H5X20761   4.851   3.864  10.051 -1.3114  0.5833  1.2849
  181SLPC   H5Y20762   4.943   4.023  10.091  0.5173 -1.2201  1.2559
  181SLPC   C3620763   4.832   4.020   9.907  0.5052  0.0295 -0.4075
  181SLPC   H6X20764   4.829   4.131   9.913 -0.9267 -0.0602  1.2094
  181SLPC   H6Y20765   4.738   3.970   9.877  1.4382 -1.2382 -1.3255
  181SLPC   C3720766   4.939   3.969   9.811 -0.4424 -0.3261 -0.2389
  181SLPC   H7X20767   4.916   3.864   9.781 -0.2818 -0.1173 -1.1419
  181SLPC   H7Y20768   5.036   3.967   9.865 -1.9173  0.9930  2.6763
  181SLPC   C3820769   4.939   4.053   9.673  0.3233 -0.2577 -0.3735
  181SLPC   H8X20770   4.943   4.160   9.704  1.0947 -0.1430 -0.8278
  181SLPC   H8Y20771   4.846   4.030   9.616 -1.1428 -0.6232  2.0167
  181SLPC   C3920772   5.048   4.003   9.583 -0.1701  0.2089 -0.1312
  181SLPC   H9X20773   5.032   4.048   9.482 -1.3183  1.2198  0.4611
  181SLPC   H9Y20774   5.045   3.893   9.572  1.5307  0.2646 -1.5123
  181SLPC  C31020775   5.196   4.044   9.614  0.6320 -0.4479  0.2148
  181SLPC  H10X20776   5.224   4.021   9.719 -2.2286  1.4442  1.5330
  181SLPC  H10Y20777   5.199   4.154   9.602 -1.0718 -0.4163 -0.3050
  181SLPC  C31120778   5.305   3.982   9.524  0.1928  0.5884  1.1447
  181SLPC  H11X20779   5.297   3.872   9.538 -0.2693  0.5143  0.3731
  181SLPC  H11Y20780   5.409   4.018   9.541  1.2949 -0.4639 -2.5207
  181SLPC  C31220781   5.283   3.996   9.367 -1.2602 -0.4614 -0.5743
  181SLPC  H12X20782   5.183   3.953   9.344 -0.8571 -1.0456 -1.2696
  181SLPC  H12Y20783   5.365   3.934   9.324 -0.3984  1.9519 -2.6469
  181SLPC  C31320784   5.286   4.144   9.314 -1.1629  0.1667  0.7962
  181SLPC  H13X20785   5.376   4.188   9.361  0.0765  0.4109 -1.6702
  181SLPC  H13Y20786   5.202   4.188   9.373  1.4116 -0.0874  5.0510
  181SLPC  C31420787   5.259   4.155   9.165  0.1721 -0.6718  0.1799
  181SLPC  H14X20788   5.269   4.263   9.140  0.5788 -0.1661  2.2860
  181SLPC  H14Y20789   5.155   4.127   9.141 -1.0548  2.6017  1.1745
  181SLPC  C31520790   5.360   4.087   9.072  0.9956  0.1054 -0.0831
  181SLPC  H15X20791   5.336   3.978   9.070  1.4620 -0.0883  2.2043
  181SLPC  H15Y20792   5.465   4.110   9.099  1.6476  0.7901 -2.9308
  181SLPC  C31620793   5.361   4.148   8.932  0.2673 -0.1234 -0.2634
  181SLPC  H16X20794   5.385   4.257   8.938  0.7001 -0.0898 -2.0340
  181SLPC  H16Y20795   5.257   4.139   8.895 -0.7813  5.0854  0.5327
  181SLPC  C31720796   5.472   4.102   8.840  0.2277  0.4048 -0.2040
  181SLPC  H17X20797   5.479   3.992   8.821  2.5058  0.4378  0.0998
  181SLPC  H17Y20798   5.574   4.119   8.881  1.8368 -3.1768 -2.1631
  181SLPC  C31820799   5.465   4.172   8.705  0.1692 -0.0450 -0.1181
  181SLPC  H18X20800   5.481   4.282   8.713  0.4936 -0.2268  2.3069
  181SLPC  H18Y20801   5.366   4.149   8.660  0.8943 -2.5506 -0.6270
  181SLPC  H18Z20802   5.553   4.131   8.652  1.8990  1.0880  1.7454
  182SLPC     N20803   2.372   5.207  11.164 -0.4405  0.3180 -0.1810
  182SLPC   C1320804   2.279   5.320  11.196 -0.2211  0.1996 -0.2408
  182SLPC  H13A20805   2.276   5.347  11.300 -1.6525 -1.7419  0.2870
  182SLPC  H13B20806   2.310   5.406  11.138  0.1414 -0.6974 -1.3978
  182SLPC  H13C20807   2.180   5.291  11.162 -0.2625  0.3930 -0.2889
  182SLPC   C1420808   2.327   5.096  11.262  0.2619  0.5716  0.2491
  182SLPC  H14A20809   2.223   5.077  11.242  0.4203 -0.5230  0.3968
  182SLPC  H14B20810   2.373   5.000  11.241 -1.8865 -1.8384  5.0632
  182SLPC  H14C20811   2.342   5.126  11.365  0.3251  1.0295  0.1074
  182SLPC   C1520812   2.511   5.245  11.196  0.1364 -0.0054 -0.1782
  182SLPC  H15A20813   2.526   5.235  11.302  0.3043 -2.0123 -0.3510
  182SLPC  H15B20814   2.564   5.166  11.145 -0.9786 -0.6683 -0.3308
  182SLPC  H15C20815   2.529   5.346  11.161 -0.2298  1.1303  2.6665
  182SLPC   C1220816   2.355   5.160  11.017 -0.1234 -0.0308  0.2291
  182SLPC  H12A20817   2.430   5.086  10.991  0.6926  0.9796 -0.3917
  182SLPC  H12B20818   2.393   5.234  10.947 -1.9098  0.4588 -0.2598
  182SLPC   C1120819   2.209   5.127  10.974 -0.2630 -0.3518  0.7834
  182SLPC  H11A20820   2.158   5.057  11.043  0.1300 -2.2109 -0.7304
  182SLPC  H11B20821   2.221   5.063  10.884  2.5198 -2.2237  2.3119
  182SLPC     P20822   2.184   5.338  10.819 -0.1347 -0.4382  0.3196
  182SLPC   O1320823   2.067   5.406  10.762 -0.0406 -0.0680  0.0019
  182SLPC   O1420824   2.304   5.413  10.845 -0.0367 -0.1416  0.5263
  182SLPC   O1220825   2.142   5.260  10.950 -0.1817  0.2572  0.5823
  182SLPC   O1120826   2.213   5.226  10.714 -0.0669 -0.0558 -0.1181
  182SLPC    C120827   2.347   5.194  10.674 -0.1010  0.0544  0.2489
  182SLPC    HA20828   2.420   5.215  10.755 -1.7404  2.1958  1.2737
  182SLPC    HB20829   2.351   5.085  10.654 -0.2952  0.0218  0.3841
  182SLPC    C220830   2.387   5.266  10.542 -0.8705 -0.4728  0.2132
  182SLPC    HS20831   2.438   5.358  10.577 -2.1271  1.2378 -2.1374
  182SLPC   O2120832   2.278   5.290  10.449  0.3550 -0.1138 -0.4556
  182SLPC   C2120833   2.221   5.414  10.454 -0.4506  0.1654  0.0640
  182SLPC   O2220834   2.273   5.508  10.509  0.2382 -0.0979 -1.0702
  182SLPC   C2220835   2.103   5.425  10.351  0.6349 -0.1910 -0.1814
  182SLPC   H2R20836   2.039   5.337  10.372  0.0558 -0.0983 -1.4647
  182SLPC   H2S20837   2.037   5.510  10.378  0.6615 -0.4259  0.6523
  182SLPC    C320838   2.492   5.185  10.457  0.3126 -0.3272  0.3850
  182SLPC    HX20839   2.466   5.077  10.453  2.1661 -0.8570  1.4896
  182SLPC    HY20840   2.592   5.183  10.505  0.7567  0.6961 -0.4714
  182SLPC   O3120841   2.515   5.237  10.322 -0.7140  0.3636 -0.6753
  182SLPC   C3120842   2.579   5.362  10.319 -0.6223  0.0524  0.4146
  182SLPC   O3220843   2.636   5.408  10.410  0.0387  0.2912  0.6334
  182SLPC   C3220844   2.584   5.441  10.187  0.5086 -0.3677 -0.4983
  182SLPC   H2X20845   2.632   5.540  10.201  0.3504 -0.2022 -1.1258
  182SLPC   H2Y20846   2.481   5.456  10.151 -0.1241 -0.7620  1.0686
  182SLPC   C2320847   2.140   5.430  10.202 -0.0627 -0.5255 -0.0222
  182SLPC   H3R20848   2.212   5.349  10.178  1.2729  0.1179  1.5707
  182SLPC   H3S20849   2.194   5.526  10.182 -0.9244  0.2629  1.2777
  182SLPC   C2420850   2.013   5.422  10.115  0.4111 -0.0925  0.1512
  182SLPC   H4R20851   1.936   5.480  10.169  1.7400  1.7649  0.1525
  182SLPC   H4S20852   1.980   5.316  10.118 -0.5156  0.1804 -0.1309
  182SLPC   C2520853   2.029   5.449   9.961  0.8938 -0.1319 -0.9265
  182SLPC   H5R20854   2.028   5.559   9.948  0.5761 -0.1759 -1.2904
  182SLPC   H5S20855   1.938   5.410   9.910  0.6159 -0.5909 -0.1012
  182SLPC   C2620856   2.152   5.382   9.908 -0.4777  0.3948 -0.2027
  182SLPC   H6R20857   2.156   5.277   9.945 -0.8116  0.4217 -0.0883
  182SLPC   H6S20858   2.241   5.436   9.949 -0.7985 -0.0620  1.1613
  182SLPC   C2720859   2.166   5.383   9.757 -0.2145 -0.3911  0.1846
  182SLPC   H7R20860   2.080   5.330   9.711 -0.8625  3.3288 -3.5395
  182SLPC   H7S20861   2.261   5.338   9.723 -0.0291  0.1603 -0.0494
  182SLPC   C2820862   2.163   5.530   9.694  0.1235 -0.2233 -0.4522
  182SLPC   H8R20863   2.079   5.585   9.742  0.2675  0.8272 -1.3589
  182SLPC   H8S20864   2.130   5.512   9.589 -0.5816  0.9649 -0.4584
  182SLPC   C2920865   2.292   5.616   9.682  0.9916 -0.0206 -0.1470
  182SLPC   H9R20866   2.348   5.626   9.777  0.9515 -2.9596  0.2936
  182SLPC  C21020867   2.353   5.664   9.570 -0.2949  0.3531  0.0729
  182SLPC  H10R20868   2.447   5.719   9.583  0.4528 -0.6981 -0.7373
  182SLPC  C21120869   2.313   5.647   9.421 -0.2293  0.1523  0.4928
  182SLPC  H11R20870   2.224   5.584   9.398  0.2887  0.0155 -1.2544
  182SLPC  H11S20871   2.393   5.597   9.363 -0.9908 -0.6929  0.1435
  182SLPC  C21220872   2.293   5.778   9.351 -0.0653  0.0180 -0.8572
  182SLPC  H12R20873   2.207   5.837   9.384 -0.7384  0.1966 -2.8016
  182SLPC  C21320874   2.358   5.834   9.240  0.5288  0.0335 -0.5567
  182SLPC  H13R20875   2.347   5.940   9.215  1.9126  0.4203  0.3598
  182SLPC  C21420876   2.477   5.770   9.173  0.6929  0.0947  0.4286
  182SLPC  H14R20877   2.471   5.659   9.182 -3.1326  0.0127 -1.1729
  182SLPC  H14S20878   2.566   5.815   9.221  1.1603 -0.6561  0.2807
  182SLPC  C21520879   2.483   5.789   9.021 -0.0033  0.2692 -0.1263
  182SLPC  H15R20880   2.393   5.755   8.964 -0.0813 -1.3889  0.9251
  182SLPC  H15S20881   2.564   5.725   8.982 -0.5883 -0.6838  0.1892
  182SLPC  C21620882   2.508   5.935   8.977  0.3666  0.3983 -0.6908
  182SLPC  H16R20883   2.579   5.982   9.048  3.2594 -1.9616 -1.8177
  182SLPC  H16S20884   2.402   5.968   8.984 -0.3491 -2.0105  2.2943
  182SLPC  C21720885   2.551   5.959   8.829 -0.3052 -0.0641 -0.7929
  182SLPC  H17R20886   2.472   5.918   8.763 -0.4585 -0.0425 -0.6250
  182SLPC  H17S20887   2.646   5.903   8.820  0.5069  0.8537  1.3869
  182SLPC  C21820888   2.572   6.105   8.805 -0.6839 -0.4586  0.2103
  182SLPC  H18R20889   2.500   6.170   8.859  1.6469  1.9926  0.5938
  182SLPC  H18S20890   2.561   6.133   8.698  0.1473  1.6700  0.6289
  182SLPC  H18T20891   2.673   6.137   8.838 -1.5470  1.5337  1.0684
  182SLPC   C3320892   2.660   5.371  10.071  0.2841  0.0645  0.1678
  182SLPC   H3X20893   2.651   5.261  10.080  0.5226  0.0699  0.4784
  182SLPC   H3Y20894   2.767   5.399  10.073  0.5284 -0.8756  0.7702
  182SLPC   C3420895   2.592   5.421   9.945 -0.1236 -0.3276  0.1521
  182SLPC   H4X20896   2.577   5.531   9.948  2.7266  0.1594 -0.5055
  182SLPC   H4Y20897   2.484   5.393   9.952 -0.8822  2.2898  0.1593
  182SLPC   C3520898   2.664   5.370   9.821  0.1391  0.8528 -0.0526
  182SLPC   H5X20899   2.697   5.265   9.830  2.3174  1.4477 -0.6446
  182SLPC   H5Y20900   2.758   5.425   9.799 -0.2716  1.5583 -0.0859
  182SLPC   C3620901   2.567   5.386   9.697 -0.3888  0.4275  0.2979
  182SLPC   H6X20902   2.513   5.484   9.698 -1.0716  0.1145 -1.3523
  182SLPC   H6Y20903   2.489   5.307   9.699  1.4161 -1.6794 -3.3270
  182SLPC   C3720904   2.641   5.363   9.554 -0.0836  0.6051 -0.2191
  182SLPC   H7X20905   2.724   5.292   9.572 -0.7860 -0.0058  0.7144
  182SLPC   H7Y20906   2.696   5.458   9.538 -0.1270  1.0152  1.7763
  182SLPC   C3820907   2.551   5.318   9.439 -0.2330 -0.3554 -0.2519
  182SLPC   H8X20908   2.490   5.408   9.418  2.0957  1.8983  1.8741
  182SLPC   H8Y20909   2.497   5.223   9.457 -0.0641 -0.2070  1.1584
  182SLPC   C3920910   2.635   5.289   9.313 -0.0106  0.0423 -0.2474
  182SLPC   H9X20911   2.734   5.242   9.332  0.9144  0.9801 -2.5071
  182SLPC   H9Y20912   2.651   5.387   9.264  0.5157 -0.2338 -0.6293
  182SLPC  C31020913   2.554   5.203   9.214 -1.5251  0.4700 -0.1161
  182SLPC  H10X20914   2.454   5.250   9.201 -1.9272 -0.1305  0.7543
  182SLPC  H10Y20915   2.533   5.099   9.248 -0.9837 -0.0384 -1.2998
  182SLPC  C31120916   2.644   5.179   9.090  0.2553  0.2899 -0.7776
  182SLPC  H11X20917   2.748   5.165   9.124 -0.0804  0.5186  0.3769
  182SLPC  H11Y20918   2.640   5.275   9.033 -1.9657  0.7015 -0.0359
  182SLPC  C31220919   2.607   5.067   8.996 -0.0732 -0.3753  0.7457
  182SLPC  H12X20920   2.501   5.079   8.963 -0.1142 -0.6570  0.7761
  182SLPC  H12Y20921   2.625   4.971   9.048  0.9015  0.3667  1.8410
  182SLPC  C31320922   2.678   5.088   8.858 -0.7019 -0.3544  0.1876
  182SLPC  H13X20923   2.677   5.195   8.830  0.1755 -0.4599 -0.2808
  182SLPC  H13Y20924   2.622   5.040   8.775 -0.9317  0.7838 -0.3235
  182SLPC  C31420925   2.813   5.028   8.861 -0.2936 -0.1930  0.2337
  182SLPC  H14X20926   2.801   4.918   8.869 -1.2681 -0.0623  0.7476
  182SLPC  H14Y20927   2.875   5.057   8.949  0.6942  0.8534 -0.7692
  182SLPC  C31520928   2.894   5.063   8.735  1.1197  0.8942 -0.1887
  182SLPC  H15X20929   2.999   5.027   8.738  1.0566  0.6294 -0.9340
  182SLPC  H15Y20930   2.909   5.173   8.730  1.5677  0.7973 -1.2885
  182SLPC  C31620931   2.842   5.005   8.605  0.8206  0.4439  0.1071
  182SLPC  H16X20932   2.746   5.056   8.584  0.3815  0.0046  1.0054
  182SLPC  H16Y20933   2.807   4.900   8.619 -0.0539  0.7984  0.6653
  182SLPC  C31720934   2.925   5.016   8.475 -0.0257  0.3977 -0.9792
  182SLPC  H17X20935   3.023   4.972   8.506  0.1925 -0.3042 -2.5698
  182SLPC  H17Y20936   2.942   5.126   8.467 -2.5703  1.0271  0.9021
  182SLPC  C31820937   2.871   4.948   8.352 -0.2195 -0.3478 -0.1313
  182SLPC  H18X20938   2.778   4.999   8.318 -1.0517 -1.5398  0.3065
  182SLPC  H18Y20939   2.860   4.838   8.358  0.9996 -0.4774 -0.0334
  182SLPC  H18Z20940   2.950   4.961   8.275  1.0585  2.7111  1.5252
  183SLPC     N20941   4.031   0.929  10.754 -0.4572 -0.0309  0.0605
  183SLPC   C1320942   3.949   0.888  10.873  0.1389 -0.0183  0.5109
  183SLPC  H13A20943   3.874   0.824  10.829  0.1072  0.3090  0.0758
  183SLPC  H13B20944   3.996   0.820  10.942 -2.9235 -0.9900  1.8124
  183SLPC  H13C20945   3.905   0.976  10.919  0.3469  1.2279 -1.5386
  183SLPC   C1420946   4.119   1.041  10.794  0.3769  0.9092  0.2217
  183SLPC  H14A20947   4.178   1.076  10.711 -0.0977  1.7564  0.2331
  183SLPC  H14B20948   4.057   1.117  10.839 -1.4597  0.3809 -1.2861
  183SLPC  H14C20949   4.186   1.002  10.869  0.2388 -0.4394 -0.3270
  183SLPC   C1520950   3.948   0.978  10.649  0.5556  0.1861  0.3500
  183SLPC  H15A20951   3.888   1.055  10.695  1.6819  0.0310  2.1815
  183SLPC  H15B20952   3.999   1.012  10.560 -0.0482  0.6388  0.1693
  183SLPC  H15C20953   3.864   0.915  10.626 -1.0490  1.8986  1.2831
  183SLPC   C1220954   4.118   0.814  10.702 -0.3152 -0.4817 -0.0266
  183SLPC  H12A20955   4.194   0.784  10.773  0.8486 -1.6973 -1.6910
  183SLPC  H12B20956   4.171   0.853  10.616  1.6414 -1.6278  0.5895
  183SLPC   C1120957   4.040   0.690  10.659  0.9461 -0.3307  0.3702
  183SLPC  H11A20958   4.094   0.622  10.590  1.8849  0.0885  0.6729
  183SLPC  H11B20959   3.957   0.719  10.591  0.2726 -1.4580  0.6861
  183SLPC     P20960   3.856   0.532  10.797  0.0875  0.1793  0.1468
  183SLPC   O1320961   3.884   0.401  10.856 -0.0050 -0.1117 -0.2313
  183SLPC   O1420962   3.769   0.613  10.883 -0.1068 -0.8288  0.0123
  183SLPC   O1220963   3.987   0.611  10.772  0.5644  0.0243 -0.3694
  183SLPC   O1120964   3.801   0.512  10.650  0.3018 -0.1064 -0.2227
  183SLPC    C120965   3.808   0.370  10.600  0.4482 -0.9421 -0.5000
  183SLPC    HA20966   3.904   0.322  10.630  1.7852  1.3235 -0.8582
  183SLPC    HB20967   3.716   0.331  10.649  1.1064  1.3085  2.8980
  183SLPC    C220968   3.783   0.357  10.447 -0.9165 -0.3757 -0.2809
  183SLPC    HS20969   3.802   0.252  10.415  0.4089 -0.3829  0.4939
  183SLPC   O2120970   3.877   0.451  10.379  0.1055  0.1575 -0.1674
  183SLPC   C2120971   4.002   0.415  10.388 -0.3191  0.5457 -0.9878
  183SLPC   O2220972   4.041   0.313  10.435 -0.4596 -0.2010  0.0923
  183SLPC   C2220973   4.098   0.517  10.323  0.0542 -0.0776 -0.2591
  183SLPC   H2R20974   4.048   0.614  10.306 -2.1079 -0.8467  1.1814
  183SLPC   H2S20975   4.179   0.526  10.399  1.9782 -0.1271 -2.2312
  183SLPC    C320976   3.630   0.401  10.414 -0.6665  0.4962 -0.0322
  183SLPC    HX20977   3.628   0.511  10.397 -0.3680  0.4795 -0.1760
  183SLPC    HY20978   3.567   0.381  10.503 -1.3554  0.8216 -0.4427
  183SLPC   O3120979   3.584   0.328  10.297 -0.2241  0.4911 -0.4346
  183SLPC   C3120980   3.458   0.291  10.290 -0.5822 -0.5307 -0.8251
  183SLPC   O3220981   3.366   0.319  10.369  0.1083  0.3917 -0.4315
  183SLPC   C3220982   3.438   0.212  10.167 -0.0451 -0.4562 -0.5629
  183SLPC   H2X20983   3.487   0.114  10.184  1.8745 -0.0672 -3.0719
  183SLPC   H2Y20984   3.500   0.256  10.086  2.7543 -0.6652  1.3300
  183SLPC   C2320985   4.169   0.463  10.193  0.1370 -0.2816  0.3369
  183SLPC   H3R20986   4.200   0.357  10.205 -3.1248 -1.3875  0.0777
  183SLPC   H3S20987   4.253   0.530  10.166 -0.5016  0.8998  1.1908
  183SLPC   C2420988   4.071   0.460  10.072  0.3114 -0.0572 -0.7602
  183SLPC   H4R20989   4.012   0.554  10.062  3.4845  2.2003  0.0405
  183SLPC   H4S20990   4.001   0.378  10.095  1.4163 -0.5250  1.1358
  183SLPC   C2520991   4.137   0.432   9.937 -0.1755 -0.5971  0.1181
  183SLPC   H5R20992   4.163   0.324   9.935  1.7796 -0.1627  0.0656
  183SLPC   H5S20993   4.233   0.484   9.915  1.2785 -3.1103  0.1409
  183SLPC   C2620994   4.054   0.453   9.814  0.6074 -0.6829 -0.3706
  183SLPC   H6R20995   4.054   0.562   9.791 -2.8880 -0.2136  1.1359
  183SLPC   H6S20996   3.949   0.418   9.826  0.3980  0.0434  0.0110
  183SLPC   C2720997   4.117   0.381   9.691 -0.4975 -0.5579 -0.3219
  183SLPC   H7R20998   4.122   0.271   9.704 -1.8742 -0.6309 -0.2571
  183SLPC   H7S20999   4.223   0.414   9.686  0.0159 -0.5476  4.7418
  183SLPC   C2821000   4.031   0.403   9.567  0.0286  0.4763  0.8316
  183SLPC   H8R21001   4.100   0.385   9.482 -2.5337  0.9206 -1.5285
  183SLPC   H8S21002   4.002   0.510   9.557 -1.0607  0.2374  1.2297
  183SLPC   C2921003   3.912   0.312   9.559 -0.6984  0.1444 -0.0497
  183SLPC   H9R21004   3.838   0.323   9.639  1.2335  0.3419  1.8036
  183SLPC  C21021005   3.892   0.214   9.470  0.6376 -0.6866  0.3405
  183SLPC  H10R21006   3.802   0.152   9.484  0.6629 -1.0160 -0.9010
  183SLPC  C21121007   3.975   0.174   9.350  0.9474 -0.3120  0.3168
  183SLPC  H11R21008   4.042   0.256   9.317  1.0275 -0.5821 -0.2045
  183SLPC  H11S21009   3.912   0.159   9.260  0.9435  0.3408  0.2046
  183SLPC  C21221010   4.051   0.041   9.372  0.0570  0.1561  0.0969
  183SLPC  H12R21011   4.012  -0.038   9.437  1.2015 -0.9110 -0.4545
  183SLPC  C21321012   4.183   0.024   9.329  0.0273  1.0336 -0.2082
  183SLPC  H13R21013   4.222  -0.076   9.353 -1.2236  0.4135 -0.6758
  183SLPC  C21421014   4.266   0.118   9.241  0.4463 -0.5572  1.0391
  183SLPC  H14R21015   4.375   0.101   9.249  0.7925  1.2462  0.5224
  183SLPC  H14S21016   4.253   0.223   9.274  0.1568  0.1274 -1.1316
  183SLPC  C21521017   4.231   0.122   9.086 -0.6549 -0.3872  0.1579
  183SLPC  H15R21018   4.123   0.141   9.071 -1.0045 -1.9139  0.6058
  183SLPC  H15S21019   4.265   0.027   9.040  1.0342  0.1956  0.1249
  183SLPC  C21621020   4.315   0.230   9.008  0.3308  0.2708 -0.5167
  183SLPC  H16R21021   4.416   0.191   9.032  0.1040 -0.5925 -0.9173
  183SLPC  H16S21022   4.302   0.333   9.048 -0.1303 -0.0352  0.1326
  183SLPC  C21721023   4.276   0.239   8.857 -0.2120 -0.0686  0.1728
  183SLPC  H17R21024   4.166   0.251   8.848 -0.1194  0.9570  0.3327
  183SLPC  H17S21025   4.299   0.133   8.832  1.3423  0.0164  1.1570
  183SLPC  C21821026   4.356   0.336   8.778  0.2574 -1.3239 -0.2932
  183SLPC  H18R21027   4.356   0.296   8.674 -0.1871  0.1919 -0.9065
  183SLPC  H18S21028   4.464   0.336   8.802  0.8050  1.2318 -2.3046
  183SLPC  H18T21029   4.321   0.441   8.785  0.0056 -1.4134 -0.1869
  183SLPC   C3321030   3.291   0.186  10.119 -0.0569  0.8740  0.1791
  183SLPC   H3X21031   3.227   0.277  10.113 -0.7249  0.3296 -1.7641
  183SLPC   H3Y21032   3.244   0.124  10.198  0.5636  0.2174  0.0442
  183SLPC   C3421033   3.271   0.119   9.983 -0.3754  0.2135 -0.5569
  183SLPC   H4X21034   3.167   0.079   9.980 -0.0930 -0.7354  1.1236
  183SLPC   H4Y21035   3.328   0.025   9.971 -1.4659 -0.5556  0.0361
  183SLPC   C3521036   3.320   0.190   9.858 -0.3825  0.3536  0.1391
  183SLPC   H5X21037   3.416   0.239   9.883  0.5229 -2.1917  2.0752
  183SLPC   H5Y21038   3.238   0.262   9.836  0.8370  1.5707 -0.5457
  183SLPC   C3621039   3.339   0.110   9.729  0.7717  0.6248  0.4161
  183SLPC   H6X21040   3.325   0.168   9.636  0.8313 -1.5699 -1.0366
  183SLPC   H6Y21041   3.259   0.033   9.716  0.5227  0.7890  0.9336
  183SLPC   C3721042   3.480   0.033   9.719  0.6963  0.4221 -0.2126
  183SLPC   H7X21043   3.493  -0.031   9.808 -1.0444 -0.9648 -0.9170
  183SLPC   H7Y21044   3.563   0.107   9.727  0.2205  0.9068  0.3280
  183SLPC   C3821045   3.493  -0.046   9.588 -0.1234 -0.2890 -0.9645
  183SLPC   H8X21046   3.487   0.030   9.508  1.5691  0.4352 -0.4352
  183SLPC   H8Y21047   3.402  -0.111   9.584 -1.2091  0.9028  1.7561
  183SLPC   C3921048   3.628  -0.116   9.600  0.1014  0.2641 -0.1189
  183SLPC   H9X21049   3.620  -0.205   9.665 -1.5354  0.5973  0.1642
  183SLPC   H9Y21050   3.699  -0.041   9.641 -2.1582  0.4328  3.9625
  183SLPC  C31021051   3.683  -0.138   9.450 -0.2862 -0.3798 -0.7368
  183SLPC  H10X21052   3.786  -0.180   9.454 -0.0306  0.2464 -0.4665
  183SLPC  H10Y21053   3.685  -0.043   9.392 -0.7262 -1.6559 -2.9378
  183SLPC  C31121054   3.593  -0.235   9.367  0.0806 -0.2562  0.1044
  183SLPC  H11X21055   3.501  -0.182   9.337 -0.1335 -0.1877  0.8496
  183SLPC  H11Y21056   3.563  -0.316   9.437 -0.6627  1.0447  1.3627
  183SLPC  C31221057   3.655  -0.284   9.234 -0.1021 -0.1731  0.5105
  183SLPC  H12X21058   3.757  -0.315   9.263 -0.1603 -1.7223 -0.8439
  183SLPC  H12Y21059   3.664  -0.212   9.150 -2.8806 -0.5700 -0.2492
  183SLPC  C31321060   3.606  -0.417   9.168 -0.0018 -0.4212  0.0860
  183SLPC  H13X21061   3.497  -0.405   9.149  0.0770  0.8261  0.3541
  183SLPC  H13Y21062   3.629  -0.497   9.242  0.1651  0.5863  1.1596
  183SLPC  C31421063   3.681  -0.447   9.043  0.2431  0.0248  0.0893
  183SLPC  H14X21064   3.791  -0.454   9.058  0.3100 -0.9788 -0.7530
  183SLPC  H14Y21065   3.667  -0.373   8.961  2.5536 -1.0766 -1.4076
  183SLPC  C31521066   3.642  -0.587   8.991 -0.5806  0.0153 -0.2458
  183SLPC  H15X21067   3.532  -0.592   8.980 -0.4078  0.0576 -2.1952
  183SLPC  H15Y21068   3.684  -0.665   9.058  0.0392 -0.6227 -1.3620
  183SLPC  C31621069   3.700  -0.620   8.854 -0.6785  0.4468 -0.3400
  183SLPC  H16X21070   3.809  -0.599   8.863  0.1810 -1.4214 -4.2334
  183SLPC  H16Y21071   3.661  -0.541   8.786  2.0146  1.4006 -0.9100
  183SLPC  C31721072   3.648  -0.752   8.801  0.2481 -0.5459 -0.1213
  183SLPC  H17X21073   3.537  -0.750   8.793  0.3717 -0.3208 -2.9428
  183SLPC  H17Y21074   3.682  -0.840   8.860  0.0542 -2.0535 -2.1273
  183SLPC  C31821075   3.693  -0.782   8.654 -0.3204 -0.0172 -0.1983
  183SLPC  H18X21076   3.803  -0.793   8.660 -0.1965  0.7918 -0.7882
  183SLPC  H18Y21077   3.671  -0.693   8.591  0.2952 -0.8815 -1.6756
  183SLPC  H18Z21078   3.644  -0.870   8.606  1.2512  0.1350 -2.1718
  184SLPC     N21079   5.597   3.916  10.870 -0.4804 -0.4114  0.4533
  184SLPC   C1321080   5.541   4.054  10.898  0.0905  0.5108 -0.1133
  184SLPC  H13A21081   5.563   4.127  10.820 -3.2709  1.3865 -0.3959
  184SLPC  H13B21082   5.434   4.060  10.906 -0.1285  0.0945 -2.1912
  184SLPC  H13C21083   5.597   4.089  10.983 -0.4912 -0.8138  0.8361
  184SLPC   C1421084   5.539   3.822  10.971 -0.5840  0.0854  0.0716
  184SLPC  H14A21085   5.431   3.820  10.964 -0.4659 -0.1317 -3.0769
  184SLPC  H14B21086   5.582   3.725  10.952 -0.7716  0.0762 -0.3216
  184SLPC  H14C21087   5.563   3.862  11.068 -0.1800 -1.4746  0.6437
  184SLPC   C1521088   5.747   3.911  10.880  0.9051 -0.2165 -0.1367
  184SLPC  H15A21089   5.780   3.992  10.817 -0.9298 -0.3032 -1.2715
  184SLPC  H15B21090   5.776   3.930  10.983 -1.1221  0.2024  0.4101
  184SLPC  H15C21091   5.783   3.816  10.844  1.5409  0.7963 -2.2904
  184SLPC   C1221092   5.550   3.855  10.737  0.4535 -0.2114  0.0168
  184SLPC  H12A21093   5.598   3.908  10.656  1.4655 -1.5869 -0.3247
  184SLPC  H12B21094   5.443   3.865  10.734  0.3116 -1.5535 -0.1170
  184SLPC   C1121095   5.582   3.711  10.704 -0.0339  0.3976 -0.0342
  184SLPC  H11A21096   5.526   3.679  10.613 -0.2502 -4.6530  1.5286
  184SLPC  H11B21097   5.540   3.640  10.778  0.7998  1.5653  1.6080
  184SLPC     P21098   5.796   3.697  10.538 -0.3956 -0.3571  0.4608
  184SLPC   O1321099   5.909   3.797  10.540 -0.5209 -0.1865  0.2912
  184SLPC   O1421100   5.826   3.558  10.500  0.1236 -0.3095  0.3981
  184SLPC   O1221101   5.720   3.694  10.684  0.3914  0.6255 -0.2237
  184SLPC   O1121102   5.692   3.751  10.429 -0.0319 -0.4298  0.4255
  184SLPC    C121103   5.717   3.725  10.287 -0.4442  0.2309  0.0617
  184SLPC    HA21104   5.660   3.799  10.227 -3.0801 -2.0661 -0.4833
  184SLPC    HB21105   5.824   3.725  10.259 -0.8699  1.3192 -1.7372
  184SLPC    C221106   5.649   3.594  10.238 -0.0887 -0.1353 -0.7727
  184SLPC    HS21107   5.718   3.512  10.269  1.2848 -0.3011 -3.8970
  184SLPC   O2121108   5.659   3.592  10.095  1.2520 -0.3172  0.0271
  184SLPC   C2121109   5.625   3.497  10.015 -0.2638  0.4439 -0.2550
  184SLPC   O2221110   5.592   3.384  10.043 -0.7457  0.0573  0.1992
  184SLPC   C2221111   5.664   3.547   9.875  0.0537 -0.1545  0.0916
  184SLPC   H2R21112   5.629   3.652   9.867  0.1359 -0.0868  0.5667
  184SLPC   H2S21113   5.772   3.537   9.855 -0.3390  0.1086 -2.4644
  184SLPC    C321114   5.508   3.566  10.299  0.4172  0.1458  0.2012
  184SLPC    HX21115   5.519   3.561  10.409  2.2772  0.0400  0.0343
  184SLPC    HY21116   5.491   3.463  10.261  0.1018  1.1049 -2.4789
  184SLPC   O3121117   5.404   3.655  10.255 -0.0973 -0.1015 -0.2162
  184SLPC   C3121118   5.308   3.602  10.186  0.5190 -0.2784 -0.6037
  184SLPC   O3221119   5.294   3.480  10.170 -0.0332  0.9493 -0.1514
  184SLPC   C3221120   5.204   3.701  10.142 -0.3103 -0.2112 -0.4479
  184SLPC   H2X21121   5.260   3.793  10.114  2.7326 -1.1196  2.0904
  184SLPC   H2Y21122   5.146   3.715  10.235 -1.2244  1.4187 -1.2088
  184SLPC   C2321123   5.605   3.462   9.759 -0.2452 -0.2544 -0.6020
  184SLPC   H3R21124   5.496   3.451   9.774 -0.1471 -0.1070  0.2663
  184SLPC   H3S21125   5.662   3.367   9.752  0.1955 -0.0486  0.0946
  184SLPC   C2421126   5.623   3.526   9.620  1.1400 -0.3417  0.5696
  184SLPC   H4R21127   5.731   3.541   9.598  0.8226  0.1343 -0.7296
  184SLPC   H4S21128   5.569   3.623   9.618  0.0719 -0.8737 -3.1975
  184SLPC   C2521129   5.559   3.446   9.503  0.6073  0.0573  0.3882
  184SLPC   H5R21130   5.450   3.440   9.526  0.5216 -0.8566 -0.1915
  184SLPC   H5S21131   5.599   3.343   9.492 -0.3083 -0.1402 -1.5901
  184SLPC   C2621132   5.583   3.526   9.372 -0.4162 -0.2867  0.2142
  184SLPC   H6R21133   5.690   3.509   9.345 -0.3378  0.2765  0.1688
  184SLPC   H6S21134   5.568   3.635   9.388  0.3208 -0.1141 -0.2226
  184SLPC   C2721135   5.499   3.472   9.249 -0.9541 -0.3854  0.2862
  184SLPC   H7R21136   5.392   3.479   9.280 -1.8380 -1.3955 -2.3170
  184SLPC   H7S21137   5.524   3.367   9.222  0.6339 -0.3486  1.4483
  184SLPC   C2821138   5.522   3.551   9.127  0.7310  0.3295  0.5620
  184SLPC   H8R21139   5.628   3.573   9.104  0.8792 -1.0863 -0.2537
  184SLPC   H8S21140   5.476   3.650   9.145 -2.1426 -0.8315  0.2362
  184SLPC   C2921141   5.439   3.500   9.012 -0.7436 -0.3339  0.6738
  184SLPC   H9R21142   5.349   3.447   9.045 -0.9249  0.6523  1.8487
  184SLPC  C21021143   5.465   3.499   8.876 -0.2586 -0.6430 -0.3153
  184SLPC  H10R21144   5.401   3.446   8.804 -1.3692  2.0925 -1.4555
  184SLPC  C21121145   5.591   3.561   8.814 -0.3057 -0.4335  0.3576
  184SLPC  H11R21146   5.620   3.646   8.880 -2.0736  1.9706 -1.7744
  184SLPC  H11S21147   5.558   3.604   8.717  1.2270 -0.1950 -0.0899
  184SLPC  C21221148   5.691   3.456   8.792  0.7979  0.4541 -0.4805
  184SLPC  H12R21149   5.688   3.371   8.862  1.5402 -0.5270 -1.5939
  184SLPC  C21321150   5.778   3.457   8.693 -0.3013 -0.3436 -0.4221
  184SLPC  H13R21151   5.849   3.373   8.686 -0.1300 -0.3036  0.6566
  184SLPC  C21421152   5.804   3.574   8.600 -0.1882  0.1357  0.6669
  184SLPC  H14R21153   5.909   3.580   8.564 -0.7013  2.0503 -0.6789
  184SLPC  H14S21154   5.780   3.672   8.647  0.5253  0.8070 -0.3438
  184SLPC  C21521155   5.716   3.572   8.478  0.6079 -0.1835 -0.2340
  184SLPC  H15R21156   5.609   3.546   8.493  0.1490  1.1121 -1.1232
  184SLPC  H15S21157   5.754   3.489   8.416 -1.5826 -0.9061 -0.6901
  184SLPC  C21621158   5.735   3.706   8.400 -0.1657  0.1257 -0.0679
  184SLPC  H16R21159   5.723   3.689   8.291  1.0339 -0.4006 -0.1279
  184SLPC  H16S21160   5.835   3.748   8.424  0.1971 -1.0697  0.5677
  184SLPC  C21721161   5.616   3.806   8.436 -0.2702  0.2694  0.6074
  184SLPC  H17R21162   5.616   3.807   8.548  3.6167 -2.1394  0.8353
  184SLPC  H17S21163   5.525   3.754   8.399 -1.2471  2.4739 -0.2078
  184SLPC  C21821164   5.627   3.938   8.373 -0.1464  0.2046 -1.0844
  184SLPC  H18R21165   5.535   3.996   8.394 -1.0109 -1.2433 -0.7169
  184SLPC  H18S21166   5.661   3.927   8.268  0.6488  1.3798 -0.9675
  184SLPC  H18T21167   5.709   4.004   8.407 -0.7622  0.6944 -0.5154
  184SLPC   C3321168   5.125   3.635  10.033  0.9850  0.3344  0.6728
  184SLPC   H3X21169   5.035   3.700  10.025  1.2963  0.6793 -0.0705
  184SLPC   H3Y21170   5.082   3.535  10.059 -1.4553  1.6137  1.8714
  184SLPC   C3421171   5.197   3.625   9.894  0.0702 -0.1856  0.4666
  184SLPC   H4X21172   5.284   3.559   9.912 -0.0057  0.0614  1.9175
  184SLPC   H4Y21173   5.242   3.724   9.872  1.0706  0.0171  3.0118
  184SLPC   C3521174   5.101   3.598   9.778 -0.3789 -0.6699  0.0004
  184SLPC   H5X21175   5.041   3.690   9.757  0.5733 -0.4306 -1.8183
  184SLPC   H5Y21176   5.024   3.524   9.808 -0.5620  0.1795  1.7984
  184SLPC   C3621177   5.174   3.556   9.653 -0.2575 -0.1875 -0.0163
  184SLPC   H6X21178   5.205   3.450   9.656  0.7830  0.1107  0.4598
  184SLPC   H6Y21179   5.256   3.631   9.644 -1.2070  0.8485 -0.2491
  184SLPC   C3721180   5.081   3.582   9.532  0.1025 -0.5338 -0.3299
  184SLPC   H7X21181   5.077   3.690   9.506  0.5608 -0.4389 -0.0186
  184SLPC   H7Y21182   4.978   3.546   9.556 -1.2840  2.1305 -1.8299
  184SLPC   C3821183   5.121   3.498   9.401 -0.3966 -0.1390  0.0757
  184SLPC   H8X21184   5.126   3.388   9.415 -0.4712 -0.2255 -0.5532
  184SLPC   H8Y21185   5.220   3.539   9.372 -0.5579 -0.7463 -1.4375
  184SLPC   C3921186   5.028   3.533   9.287  0.1929 -0.4032 -0.1757
  184SLPC   H9X21187   5.015   3.643   9.272 -1.9788 -0.8272 -1.8651
  184SLPC   H9Y21188   4.925   3.503   9.314  0.3928 -1.0195 -0.0965
  184SLPC  C31021189   5.084   3.479   9.161  0.0449  0.1986  0.1936
  184SLPC  H10X21190   5.158   3.402   9.188 -0.7185 -0.6986 -0.2116
  184SLPC  H10Y21191   5.134   3.553   9.095 -0.8720  0.0782 -0.6672
  184SLPC  C31121192   4.973   3.413   9.080  0.6769 -0.5046 -0.1781
  184SLPC  H11X21193   4.893   3.489   9.068  2.2000  1.5417  1.8663
  184SLPC  H11Y21194   4.931   3.330   9.142  2.1226 -0.7415  0.5175
  184SLPC  C31221195   5.023   3.365   8.941  0.2002 -0.1939 -0.2704
  184SLPC  H12X21196   5.114   3.303   8.953 -0.0392 -0.5280 -0.1600
  184SLPC  H12Y21197   5.057   3.447   8.875  0.0964  0.5370  0.5699
  184SLPC  C31321198   4.913   3.277   8.871 -0.0359  0.1037  0.1444
  184SLPC  H13X21199   4.827   3.329   8.823  0.6622 -0.8578 -2.3587
  184SLPC  H13Y21200   4.870   3.207   8.945 -3.6056 -1.8032 -3.3206
  184SLPC  C31421201   4.985   3.199   8.760 -0.4352  0.4340  0.4903
  184SLPC  H14X21202   4.929   3.111   8.722  1.9895 -0.5501 -1.0805
  184SLPC  H14Y21203   5.085   3.166   8.796 -0.1671 -0.2795 -0.8195
  184SLPC  C31521204   4.999   3.287   8.631 -0.0885  0.6070  0.1555
  184SLPC  H15X21205   5.067   3.372   8.656  1.1308  0.5052 -2.4725
  184SLPC  H15Y21206   4.901   3.327   8.598  0.5017  1.3843 -0.6831
  184SLPC  C31621207   5.063   3.208   8.510 -1.1534 -0.2371  0.0334
  184SLPC  H16X21208   4.995   3.122   8.490 -0.3274 -1.4553  2.1679
  184SLPC  H16Y21209   5.165   3.187   8.549 -1.7912 -0.8800  1.4371
  184SLPC  C31721210   5.080   3.294   8.383  0.8741 -0.1853 -0.9360
  184SLPC  H17X21211   5.139   3.385   8.406  2.5580 -1.8362  1.8551
  184SLPC  H17Y21212   4.975   3.329   8.368  0.0763 -2.0359 -0.0058
  184SLPC  C31821213   5.139   3.213   8.264  0.3709  0.5535  0.0968
  184SLPC  H18X21214   5.069   3.135   8.229 -0.5658  0.9645  0.9668
  184SLPC  H18Y21215   5.229   3.158   8.298 -0.7211 -0.6052  1.2618
  184SLPC  H18Z21216   5.163   3.289   8.186  0.2114  0.6245  0.1148
  185SLPC     N21217   3.892   1.423   6.163  0.3609  0.2728 -0.3115
  185SLPC   C1321218   4.005   1.495   6.103  0.0137  0.2537 -0.2695
  185SLPC  H13A21219   4.078   1.497   6.182 -0.8071 -1.8558  0.6303
  185SLPC  H13B21220   4.052   1.450   6.017  0.8781 -0.7310  0.6799
  185SLPC  H13C21221   3.989   1.597   6.070  1.4416  0.6973  0.3384
  185SLPC   C1421222   3.923   1.279   6.180  0.0933  0.5257  0.4828
  185SLPC  H14A21223   4.007   1.274   6.246  0.6997  1.4118 -0.1976
  185SLPC  H14B21224   3.836   1.232   6.225 -1.0864  2.0664 -0.0896
  185SLPC  H14C21225   3.942   1.231   6.085  2.2211  0.4813  0.8859
  185SLPC   C1521226   3.778   1.439   6.066  0.3711 -0.2383 -0.0472
  185SLPC  H15A21227   3.772   1.540   6.029 -0.8478 -0.2594  0.0675
  185SLPC  H15B21228   3.783   1.370   5.982 -0.0689  0.3320 -0.5451
  185SLPC  H15C21229   3.681   1.423   6.110  0.1525  1.9360  0.3674
  185SLPC   C1221230   3.863   1.493   6.301  0.7998 -0.2452 -0.1771
  185SLPC  H12A21231   3.859   1.600   6.285 -0.4114 -0.6832 -3.6873
  185SLPC  H12B21232   3.953   1.490   6.361  0.6067  1.4294  0.2326
  185SLPC   C1121233   3.740   1.445   6.383  0.6738  0.1150 -0.0903
  185SLPC  H11A21234   3.727   1.514   6.469 -1.4192  0.5960 -0.7281
  185SLPC  H11B21235   3.754   1.342   6.421  1.6929  0.8536  1.6625
  185SLPC     P21236   3.480   1.391   6.344 -0.0374 -0.4103 -0.3860
  185SLPC   O1321237   3.382   1.431   6.245  0.0756  0.5176  0.1207
  185SLPC   O1421238   3.508   1.249   6.340 -0.2851  0.3705 -0.6145
  185SLPC   O1221239   3.614   1.466   6.319 -0.8774 -0.0139  0.6284
  185SLPC   O1121240   3.429   1.434   6.491  0.0051  0.1114  0.1413
  185SLPC    C121241   3.367   1.559   6.506 -0.2327 -0.4224 -0.3109
  185SLPC    HA21242   3.426   1.637   6.558 -1.2889  1.3701 -1.6477
  185SLPC    HB21243   3.325   1.598   6.411 -1.1437  0.4765  0.4393
  185SLPC    C221244   3.233   1.540   6.582 -0.2101 -0.4995 -0.2483
  185SLPC    HS21245   3.186   1.639   6.602  1.0345 -0.1848  1.2484
  185SLPC   O2121246   3.258   1.499   6.718 -0.3887 -0.3976 -0.1552
  185SLPC   C2121247   3.326   1.586   6.802  0.1233  0.0450 -0.8330
  185SLPC   O2221248   3.376   1.692   6.775  0.4227 -0.1808  0.2527
  185SLPC   C2221249   3.328   1.526   6.943 -0.3013  0.1643  0.3711
  185SLPC   H2R21250   3.228   1.481   6.962  0.5000 -2.5630 -1.4014
  185SLPC   H2S21251   3.402   1.443   6.945  1.4718  1.6522 -0.4676
  185SLPC    C321252   3.138   1.446   6.500 -0.3653 -0.0615 -0.0981
  185SLPC    HX21253   3.175   1.343   6.519  0.7708  0.3553  0.0258
  185SLPC    HY21254   3.146   1.468   6.392 -0.9983 -0.4458 -0.2266
  185SLPC   O3121255   2.999   1.454   6.540 -0.9368 -0.6031 -0.1735
  185SLPC   C3121256   2.929   1.348   6.493  0.1060 -0.0030 -0.5367
  185SLPC   O3221257   2.973   1.240   6.460  0.1022 -0.4918  0.3375
  185SLPC   C3221258   2.784   1.399   6.460 -0.2495  0.1289 -0.6230
  185SLPC   H2X21259   2.745   1.327   6.385 -1.3352 -1.6569  1.5229
  185SLPC   H2Y21260   2.786   1.502   6.418 -0.9978 -0.7795 -3.0560
  185SLPC   C2321261   3.371   1.637   7.045  0.0232 -0.2632  0.1510
  185SLPC   H3R21262   3.307   1.726   7.028  1.6780  0.4234 -3.5322
  185SLPC   H3S21263   3.468   1.683   7.017 -1.3440  3.8371  1.4816
  185SLPC   C2421264   3.371   1.601   7.190 -0.1374 -0.2263  0.1403
  185SLPC   H4R21265   3.433   1.509   7.203  0.6380  0.0892 -1.2108
  185SLPC   H4S21266   3.263   1.585   7.212 -0.7550  1.7064 -1.2694
  185SLPC   C2521267   3.433   1.711   7.282  0.0601 -0.6044  0.1781
  185SLPC   H5R21268   3.374   1.734   7.373 -1.7792  0.7870 -1.2695
  185SLPC   H5S21269   3.450   1.805   7.225 -1.8509 -0.8858 -0.9537
  185SLPC   C2621270   3.567   1.653   7.328 -0.7098  0.8166  0.4224
  185SLPC   H6R21271   3.628   1.641   7.236 -0.1395  0.9942  0.7770
  185SLPC   H6S21272   3.543   1.554   7.373 -0.2514  0.3936 -0.2458
  185SLPC   C2721273   3.645   1.754   7.414 -0.4646 -0.0066 -0.0892
  185SLPC   H7R21274   3.686   1.844   7.363  1.3834 -0.1327  1.0936
  185SLPC   H7S21275   3.733   1.696   7.448 -0.3212 -0.3671 -1.0298
  185SLPC   C2821276   3.579   1.798   7.546  0.3066 -0.8659  0.4385
  185SLPC   H8R21277   3.495   1.869   7.530  1.1568  0.3377  1.2023
  185SLPC   H8S21278   3.651   1.858   7.605 -1.1238 -0.0524  1.4252
  185SLPC   C2921279   3.527   1.688   7.628  0.2470  0.1364  0.0105
  185SLPC   H9R21280   3.446   1.634   7.576  0.0986 -0.3687  0.7506
  185SLPC  C21021281   3.573   1.652   7.748 -0.0745  0.2589  0.3899
  185SLPC  H10R21282   3.520   1.566   7.793  0.6355 -0.6398 -0.4470
  185SLPC  C21121283   3.685   1.718   7.827 -0.2200  0.4965 -0.4173
  185SLPC  H11R21284   3.753   1.774   7.760  1.3267 -1.2532 -0.3951
  185SLPC  H11S21285   3.745   1.634   7.870  1.5765  2.2936  0.7701
  185SLPC  C21221286   3.627   1.803   7.936 -0.4976 -0.1120  0.1205
  185SLPC  H12R21287   3.529   1.840   7.902 -1.4034 -2.4308 -0.0265
  185SLPC  C21321288   3.674   1.821   8.062  0.4601  1.1257  0.3143
  185SLPC  H13R21289   3.626   1.888   8.136  1.2795  2.3559 -0.2393
  185SLPC  C21421290   3.806   1.760   8.100 -0.0131 -1.4555  0.4160
  185SLPC  H14R21291   3.863   1.846   8.140 -0.6086  1.5938 -4.4981
  185SLPC  H14S21292   3.859   1.709   8.017  0.4542 -0.8744  0.3582
  185SLPC  C21521293   3.787   1.654   8.213  0.3192  0.1352 -0.4971
  185SLPC  H15R21294   3.879   1.592   8.208  0.0163 -0.4063  0.3648
  185SLPC  H15S21295   3.705   1.584   8.186  0.3491 -0.2241  0.3203
  185SLPC  C21621296   3.751   1.726   8.342  0.3722  0.1117  0.1610
  185SLPC  H16R21297   3.652   1.774   8.332 -0.6765 -1.8994  0.2596
  185SLPC  H16S21298   3.819   1.812   8.357  0.9885 -0.0513 -1.4613
  185SLPC  C21721299   3.745   1.617   8.458 -0.1894  0.1733  0.0681
  185SLPC  H17R21300   3.685   1.533   8.417 -0.2239 -0.2478  0.9643
  185SLPC  H17S21301   3.686   1.659   8.542 -0.3568 -0.8317  0.4683
  185SLPC  C21821302   3.874   1.567   8.510  0.4529 -0.2096 -0.5436
  185SLPC  H18R21303   3.943   1.541   8.427 -0.1812  0.6528 -1.3712
  185SLPC  H18S21304   3.860   1.472   8.565 -2.5328  1.3654  1.7346
  185SLPC  H18T21305   3.925   1.640   8.577 -1.4864 -0.0088  0.8024
  185SLPC   C3321306   2.678   1.398   6.580 -0.0832  0.5227  0.3046
  185SLPC   H3X21307   2.682   1.294   6.620 -1.1776  1.0783  1.9795
  185SLPC   H3Y21308   2.581   1.425   6.533  0.7313  1.9857 -0.6197
  185SLPC   C3421309   2.706   1.484   6.703 -0.1372  0.2945 -0.1050
  185SLPC   H4X21310   2.608   1.487   6.755 -1.0984 -1.4267 -1.6754
  185SLPC   H4Y21311   2.713   1.583   6.654 -0.1263  0.3494  0.0086
  185SLPC   C3521312   2.816   1.444   6.796  0.0047  0.1255 -0.0184
  185SLPC   H5X21313   2.909   1.495   6.762 -0.2756  1.6305  1.3673
  185SLPC   H5Y21314   2.831   1.334   6.802 -0.2660  0.1201  0.6465
  185SLPC   C3621315   2.771   1.482   6.940  0.2097  0.5391  0.1897
  185SLPC   H6X21316   2.676   1.427   6.951  0.8586 -0.5959  0.2912
  185SLPC   H6Y21317   2.763   1.592   6.954 -0.3933  0.6939 -1.2316
  185SLPC   C3721318   2.872   1.441   7.051  0.6530 -0.3773 -0.0975
  185SLPC   H7X21319   2.973   1.464   7.011 -0.5010  1.8228 -2.0738
  185SLPC   H7Y21320   2.874   1.330   7.059  1.0984 -0.3369  0.4081
  185SLPC   C3821321   2.846   1.511   7.187 -0.4295  0.2882 -0.2402
  185SLPC   H8X21322   2.759   1.455   7.228 -0.1995  0.6772  0.8225
  185SLPC   H8Y21323   2.822   1.617   7.164  0.1194  0.7397  1.1897
  185SLPC   C3921324   2.959   1.485   7.287 -0.0748  1.0266 -0.7144
  185SLPC   H9X21325   3.052   1.510   7.231  0.6585  0.8563  0.3768
  185SLPC   H9Y21326   2.953   1.376   7.308 -1.4423  0.9507 -1.4286
  185SLPC  C31021327   2.960   1.561   7.420  0.3474  0.5097  0.0723
  185SLPC  H10X21328   2.998   1.663   7.402  1.8508 -0.2570 -1.3154
  185SLPC  H10Y21329   3.035   1.516   7.489  0.0945  0.3448  0.2433
  185SLPC  C31121330   2.819   1.574   7.486  0.5729  0.4198  0.0023
  185SLPC  H11X21331   2.784   1.472   7.511  1.0934  0.3462  0.4535
  185SLPC  H11Y21332   2.743   1.619   7.419 -0.1417 -0.4073  0.2398
  185SLPC  C31221333   2.822   1.650   7.618  0.2745 -0.1954  0.1359
  185SLPC  H12X21334   2.838   1.751   7.574  2.5332 -0.8041 -0.5722
  185SLPC  H12Y21335   2.912   1.625   7.677  0.7176  1.2009  0.0789
  185SLPC  C31321336   2.696   1.636   7.706  0.5559  0.2002 -0.8722
  185SLPC  H13X21337   2.690   1.528   7.732  1.6777  0.2850 -0.1800
  185SLPC  H13Y21338   2.602   1.666   7.655  0.3421 -0.7929 -1.0709
  185SLPC  C31421339   2.695   1.710   7.843 -0.0152  0.2912 -0.0040
  185SLPC  H14X21340   2.672   1.818   7.830 -2.6263 -0.2082  0.0489
  185SLPC  H14Y21341   2.797   1.693   7.885 -0.5700 -0.0536  1.2499
  185SLPC  C31521342   2.591   1.644   7.940 -0.1880 -0.2424 -0.3566
  185SLPC  H15X21343   2.483   1.642   7.913  0.1627 -1.6165 -1.8577
  185SLPC  H15Y21344   2.587   1.708   8.030 -1.2761  1.1664 -1.3571
  185SLPC  C31621345   2.625   1.507   8.001 -0.5411  0.6923  0.0110
  185SLPC  H16X21346   2.729   1.479   7.975  0.0582 -0.2630  3.0275
  185SLPC  H16Y21347   2.553   1.437   7.953  0.7758 -0.4781 -0.3347
  185SLPC  C31721348   2.603   1.517   8.163  0.4068 -0.1698  0.3717
  185SLPC  H17X21349   2.686   1.582   8.199 -1.0742  1.5411  0.9283
  185SLPC  H17Y21350   2.628   1.419   8.208 -0.4836 -0.3489  0.5023
  185SLPC  C31821351   2.461   1.550   8.214 -0.5210 -0.1542 -0.1233
  185SLPC  H18X21352   2.388   1.468   8.200 -2.1245  0.1391  4.5907
  185SLPC  H18Y21353   2.423   1.633   8.152  0.6670 -0.3319 -1.1313
  185SLPC  H18Z21354   2.447   1.585   8.319 -1.8257 -1.1466  0.0613
  186SLPC     N21355   6.812   5.416   6.459  0.1098 -0.5277  0.3814
  186SLPC   C1321356   6.875   5.548   6.440 -1.1166 -0.0883 -0.2068
  186SLPC  H13A21357   6.871   5.582   6.338 -0.7602  1.6110  0.3122
  186SLPC  H13B21358   6.844   5.626   6.509  1.0398  1.0087 -0.3685
  186SLPC  H13C21359   6.982   5.549   6.454 -1.0561  2.3979 -0.2641
  186SLPC   C1421360   6.862   5.354   6.587 -0.2045 -0.3082  0.2400
  186SLPC  H14A21361   6.793   5.272   6.604 -2.5942  1.6802  0.7656
  186SLPC  H14B21362   6.958   5.306   6.581 -0.5706 -1.0261  0.0429
  186SLPC  H14C21363   6.849   5.420   6.672 -1.9568 -0.2950  0.0153
  186SLPC   C1521364   6.840   5.322   6.349 -0.0114 -0.6251 -0.4203
  186SLPC  H15A21365   6.945   5.299   6.351  0.4263  0.9054 -2.2069
  186SLPC  H15B21366   6.785   5.230   6.361 -1.3599 -0.0209 -1.5909
  186SLPC  H15C21367   6.813   5.359   6.251 -1.2333  0.1818  0.1854
  186SLPC   C1221368   6.659   5.432   6.471 -0.3043 -0.2785  0.1379
  186SLPC  H12A21369   6.623   5.477   6.380  0.6792  0.1109 -0.0754
  186SLPC  H12B21370   6.637   5.494   6.556 -0.7263  1.0444 -0.9084
  186SLPC   C1121371   6.573   5.305   6.472 -0.2120  0.2279 -0.5208
  186SLPC  H11A21372   6.472   5.347   6.492 -0.0569 -0.1710  1.2061
  186SLPC  H11B21373   6.604   5.249   6.562 -0.9203  3.5708  2.0265
  186SLPC     P21374   6.520   5.103   6.326  0.1026  0.3297 -0.0369
  186SLPC   O1321375   6.375   5.092   6.361  0.8938 -0.1223  0.7860
  186SLPC   O1421376   6.563   5.066   6.189  0.7678 -0.3341  0.1000
  186SLPC   O1221377   6.576   5.249   6.346  0.1335 -0.3115 -0.8748
  186SLPC   O1121378   6.606   5.019   6.427  0.5435  0.3533 -0.3064
  186SLPC    C121379   6.575   4.880   6.451  0.0047 -0.2121 -0.1592
  186SLPC    HA21380   6.562   4.810   6.366  0.7388 -2.2177  1.2942
  186SLPC    HB21381   6.662   4.834   6.503  1.1902  0.5234 -1.4103
  186SLPC    C221382   6.462   4.845   6.556 -0.5313 -0.4903 -0.0533
  186SLPC    HS21383   6.372   4.885   6.504 -0.4531 -1.2185 -0.7629
  186SLPC   O2121384   6.495   4.913   6.676 -0.6076 -0.0465  0.1549
  186SLPC   C2121385   6.390   4.959   6.736  0.1317  0.2996 -0.3894
  186SLPC   O2221386   6.276   4.971   6.697  0.0275 -0.0047  0.4352
  186SLPC   C2221387   6.427   5.006   6.876  0.0005  0.4885 -0.1147
  186SLPC   H2R21388   6.332   5.022   6.930 -1.0675 -1.1811 -1.4063
  186SLPC   H2S21389   6.498   4.933   6.921  0.1431 -0.6526 -2.0804
  186SLPC    C321390   6.451   4.694   6.583  0.3378 -0.2408 -0.3312
  186SLPC    HX21391   6.556   4.663   6.600  0.2034 -0.7048 -0.3271
  186SLPC    HY21392   6.419   4.645   6.489  0.0599  0.7649 -0.7735
  186SLPC   O3121393   6.357   4.667   6.694  0.2190  0.3719  0.1224
  186SLPC   C3121394   6.337   4.536   6.709  0.1295  0.2776  0.1892
  186SLPC   O3221395   6.401   4.450   6.647 -0.4702  0.6613 -0.0006
  186SLPC   C3221396   6.229   4.518   6.816  0.0454  0.0198  0.3283
  186SLPC   H2X21397   6.133   4.498   6.764  0.7256  0.8378 -1.3162
  186SLPC   H2Y21398   6.217   4.616   6.867  0.9093 -1.0787  2.8148
  186SLPC   C2321399   6.481   5.154   6.865 -0.6139 -0.1919 -0.0957
  186SLPC   H3R21400   6.406   5.217   6.812 -0.5250 -0.0092 -0.0049
  186SLPC   H3S21401   6.575   5.160   6.807  0.1026 -2.8449  0.6514
  186SLPC   C2421402   6.505   5.217   6.999 -0.0377 -0.4243 -0.1576
  186SLPC   H4R21403   6.414   5.232   7.060  0.6153 -2.4017  1.4034
  186SLPC   H4S21404   6.535   5.323   6.980 -1.3790  0.1504  0.7617
  186SLPC   C2521405   6.606   5.155   7.085 -0.7938 -0.1758 -0.0131
  186SLPC   H5R21406   6.700   5.134   7.030 -1.0696  0.4264 -0.7347
  186SLPC   H5S21407   6.564   5.056   7.114  0.0796 -0.1644  1.3504
  186SLPC   C2621408   6.616   5.229   7.220  0.3913  0.0897  0.5140
  186SLPC   H6R21409   6.508   5.230   7.244  0.7218  0.4600  2.1309
  186SLPC   H6S21410   6.654   5.333   7.208 -1.0492  0.4744 -1.2212
  186SLPC   C2721411   6.688   5.153   7.335 -0.0398 -0.1106 -0.4265
  186SLPC   H7R21412   6.792   5.191   7.339  0.2679 -1.0965  2.1429
  186SLPC   H7S21413   6.686   5.049   7.296  1.9971 -0.0553 -0.7578
  186SLPC   C2821414   6.621   5.150   7.469 -0.2940 -0.2638 -0.3040
  186SLPC   H8R21415   6.646   5.054   7.521 -2.6045 -1.7540 -1.7424
  186SLPC   H8S21416   6.513   5.134   7.445 -0.5859  0.3865  0.5430
  186SLPC   C2921417   6.624   5.283   7.541 -0.3263  0.4241 -0.2378
  186SLPC   H9R21418   6.535   5.339   7.510 -0.2835 -1.6690 -4.9058
  186SLPC  C21021419   6.713   5.320   7.633  0.8513  0.8120 -0.6763
  186SLPC  H10R21420   6.701   5.422   7.672  1.5484  0.7489 -0.2776
  186SLPC  C21121421   6.820   5.233   7.686  0.2815  0.3091 -0.2421
  186SLPC  H11R21422   6.915   5.257   7.635  0.6326 -0.1667  0.1732
  186SLPC  H11S21423   6.804   5.126   7.657 -1.7767  0.9574 -1.7298
  186SLPC  C21221424   6.856   5.246   7.832 -0.2305 -0.2737  0.2542
  186SLPC  H12R21425   6.944   5.310   7.849 -1.1498  0.6888  1.6218
  186SLPC  C21321426   6.780   5.202   7.934 -0.2887 -0.0452  0.1468
  186SLPC  H13R21427   6.814   5.230   8.034 -2.1633  0.5178  0.6742
  186SLPC  C21421428   6.642   5.135   7.915 -0.0958  0.4086 -0.0070
  186SLPC  H14R21429   6.632   5.053   7.990 -0.9615  1.6481  1.2883
  186SLPC  H14S21430   6.633   5.090   7.814  0.6467  0.3885 -0.0639
  186SLPC  C21521431   6.518   5.237   7.922 -0.1792  0.3203 -1.2387
  186SLPC  H15R21432   6.421   5.185   7.906  0.4021 -2.1671  2.1192
  186SLPC  H15S21433   6.524   5.318   7.846 -0.3083 -0.6360 -2.2973
  186SLPC  C21621434   6.499   5.284   8.072  0.3061  0.2662  0.1961
  186SLPC  H16R21435   6.598   5.329   8.094  1.3730 -1.2456 -1.2642
  186SLPC  H16S21436   6.463   5.195   8.127  0.5328  0.1523  0.1606
  186SLPC  C21721437   6.383   5.389   8.067 -0.0235  0.4138  0.0144
  186SLPC  H17R21438   6.294   5.335   8.030  1.5737 -1.6540 -1.0554
  186SLPC  H17S21439   6.419   5.471   8.002 -0.4307 -0.5101 -1.4136
  186SLPC  C21821440   6.354   5.457   8.201  0.4097 -0.0639  0.1753
  186SLPC  H18R21441   6.348   5.373   8.274  0.6920 -1.5077 -1.3832
  186SLPC  H18S21442   6.263   5.521   8.194  0.7570  0.6515  1.7527
  186SLPC  H18T21443   6.445   5.515   8.228  0.6701 -1.4504  2.5928
  186SLPC   C3321444   6.253   4.418   6.924  0.5142  0.2374  0.2998
  186SLPC   H3X21445   6.295   4.324   6.883  1.3396  0.5009  0.5314
  186SLPC   H3Y21446   6.156   4.388   6.971 -0.0707  0.7730 -0.5428
  186SLPC   C3421447   6.349   4.465   7.026 -0.4148  0.0520 -0.2039
  186SLPC   H4X21448   6.302   4.553   7.075  0.3187 -0.2322  1.0559
  186SLPC   H4Y21449   6.449   4.483   6.981 -0.6271  1.0481 -0.2960
  186SLPC   C3521450   6.363   4.372   7.147 -0.2538  0.3343  0.2846
  186SLPC   H5X21451   6.427   4.284   7.123 -0.8449  0.1856 -0.8077
  186SLPC   H5Y21452   6.262   4.334   7.172 -0.0145 -0.5335 -0.0251
  186SLPC   C3621453   6.426   4.445   7.264 -0.2083 -0.0546 -0.2419
  186SLPC   H6X21454   6.372   4.540   7.285 -1.9536 -0.7423 -1.4057
  186SLPC   H6Y21455   6.534   4.466   7.250  0.2112 -1.5863  0.5064
  186SLPC   C3721456   6.425   4.353   7.398 -0.7137  0.4134 -0.1851
  186SLPC   H7X21457   6.459   4.248   7.386  1.7326  0.8880  1.9481
  186SLPC   H7Y21458   6.320   4.363   7.435 -0.4277  1.0368  0.4631
  186SLPC   C3821459   6.513   4.405   7.510 -0.3667  0.0622  0.5033
  186SLPC   H8X21460   6.464   4.502   7.536  1.6565  0.9396  1.2885
  186SLPC   H8Y21461   6.614   4.435   7.475 -1.1553 -1.4115 -3.5050
  186SLPC   C3921462   6.519   4.316   7.633 -0.8408 -0.0344  0.1830
  186SLPC   H9X21463   6.584   4.231   7.604 -0.2923  0.3899  0.1407
  186SLPC   H9Y21464   6.418   4.288   7.670 -0.2110  0.8215  2.7661
  186SLPC  C31021465   6.575   4.395   7.751 -0.0321  0.2917 -0.2534
  186SLPC  H10X21466   6.519   4.491   7.752 -0.9930 -0.2509 -0.8439
  186SLPC  H10Y21467   6.682   4.418   7.729  0.2840  0.4799  1.3629
  186SLPC  C31121468   6.571   4.318   7.886 -0.1422  0.6248 -0.7253
  186SLPC  H11X21469   6.620   4.219   7.872 -0.1613  0.6159 -0.7297
  186SLPC  H11Y21470   6.462   4.299   7.901  0.4300 -1.5641  1.2349
  186SLPC  C31221471   6.625   4.395   8.010 -1.1334 -0.5049 -0.4752
  186SLPC  H12X21472   6.562   4.484   8.033 -1.0334 -0.3179 -0.9196
  186SLPC  H12Y21473   6.715   4.450   7.974 -1.9540  0.5614 -0.9493
  186SLPC  C31321474   6.655   4.321   8.138 -0.0634  0.6552  0.2857
  186SLPC  H13X21475   6.740   4.251   8.125 -0.6644 -0.0413  0.0501
  186SLPC  H13Y21476   6.556   4.277   8.164 -0.1624  0.0844 -1.0037
  186SLPC  C31421477   6.698   4.409   8.256 -0.0965  0.6540  0.2478
  186SLPC  H14X21478   6.625   4.489   8.279 -3.8681 -2.8308  1.6091
  186SLPC  H14Y21479   6.796   4.449   8.221 -0.0972 -0.9923 -1.8555
  186SLPC  C31521480   6.726   4.335   8.387 -0.0395 -0.2105  0.9464
  186SLPC  H15X21481   6.808   4.261   8.374 -0.5214 -0.9702  2.0393
  186SLPC  H15Y21482   6.638   4.278   8.426 -0.8198 -0.8740 -1.5986
  186SLPC  C31621483   6.764   4.445   8.492  1.0393  0.2426 -0.0712
  186SLPC  H16X21484   6.666   4.495   8.507  1.5913  1.0856  0.8362
  186SLPC  H16Y21485   6.825   4.524   8.443  0.5173  1.7815  1.6485
  186SLPC  C31721486   6.823   4.392   8.618 -0.4941  0.4620  0.4534
  186SLPC  H17X21487   6.839   4.482   8.680 -0.8848  0.3427  0.7313
  186SLPC  H17Y21488   6.922   4.345   8.601 -1.8465 -1.4011 -3.3711
  186SLPC  C31821489   6.725   4.304   8.693  0.2791 -0.0862 -0.1549
  186SLPC  H18X21490   6.692   4.214   8.638  2.4104 -1.5310  0.8192
  186SLPC  H18Y21491   6.638   4.369   8.718  1.4896  1.1302  1.1276
  186SLPC  H18Z21492   6.764   4.281   8.794  1.2191  1.1034 -0.2134
  187SLPC     N21493   5.146   0.784   6.203  0.4871 -0.1786  0.1214
  187SLPC   C1321494   5.247   0.759   6.312 -0.3206  0.3353  0.8584
  187SLPC  H13A21495   5.205   0.681   6.374 -0.3259 -0.9177 -0.6627
  187SLPC  H13B21496   5.341   0.724   6.273 -0.0774  0.9786  0.8597
  187SLPC  H13C21497   5.260   0.851   6.367 -2.0742 -0.1761  2.2340
  187SLPC   C1421498   5.114   0.655   6.133 -1.0974 -0.4743  0.1449
  187SLPC  H14A21499   5.071   0.576   6.192  0.0426 -1.0242  0.2595
  187SLPC  H14B21500   5.053   0.667   6.045 -1.1866 -2.2682 -0.0592
  187SLPC  H14C21501   5.209   0.619   6.095 -1.3883  0.6119 -1.7376
  187SLPC   C1521502   5.203   0.880   6.103 -0.4487 -0.1153 -0.2933
  187SLPC  H15A21503   5.270   0.829   6.036  0.1181 -0.1758  0.3005
  187SLPC  H15B21504   5.124   0.927   6.047 -0.2172  0.0866 -0.4496
  187SLPC  H15C21505   5.266   0.946   6.160 -1.2079  0.6913 -0.3725
  187SLPC   C1221506   5.025   0.847   6.264  0.0380 -0.1907 -0.1291
  187SLPC  H12A21507   4.940   0.832   6.200 -1.1334 -1.0437  1.5440
  187SLPC  H12B21508   5.043   0.954   6.262 -0.7742  0.0451  1.9759
  187SLPC   C1121509   4.992   0.818   6.416 -0.1001  0.4761  1.2833
  187SLPC  H11A21510   4.909   0.887   6.442 -0.9569  0.2794 -0.7864
  187SLPC  H11B21511   5.068   0.849   6.492  0.1328  0.5615  1.0170
  187SLPC     P21512   4.996   0.575   6.537 -0.1180  0.2463  0.4819
  187SLPC   O1321513   4.925   0.449   6.513  0.0933 -0.1938  0.1610
  187SLPC   O1421514   5.141   0.557   6.549 -0.2442  0.7215 -0.3211
  187SLPC   O1221515   4.954   0.678   6.426  0.2485  0.4207  0.3335
  187SLPC   O1121516   4.939   0.647   6.676  0.0941  0.0111  0.1129
  187SLPC    C121517   5.035   0.696   6.765 -0.6334  0.0598  0.4841
  187SLPC    HA21518   5.071   0.618   6.835 -0.4027 -0.4509 -0.1959
  187SLPC    HB21519   5.129   0.733   6.719 -1.4043  0.6957 -0.6230
  187SLPC    C221520   4.977   0.817   6.831  0.0365 -0.0745  0.3122
  187SLPC    HS21521   5.065   0.864   6.880  1.0736 -0.9892 -0.6190
  187SLPC   O2121522   4.877   0.780   6.932  0.1833 -0.4410 -0.0121
  187SLPC   C2121523   4.922   0.742   7.039  0.1592  0.5592  0.0507
  187SLPC   O2221524   5.041   0.712   7.064  0.0258  0.1931 -0.1807
  187SLPC   C2221525   4.813   0.713   7.144  0.3501 -0.6698  0.2476
  187SLPC   H2R21526   4.776   0.815   7.165  0.7329 -0.6606  0.9231
  187SLPC   H2S21527   4.733   0.656   7.092  0.2646 -0.4523  0.1423
  187SLPC    C321528   4.915   0.922   6.734 -0.0469  0.8700  0.0218
  187SLPC    HX21529   4.837   0.868   6.676  0.5549 -0.1595  0.1561
  187SLPC    HY21530   4.997   0.951   6.666  0.2250  1.6026  0.6429
  187SLPC   O3121531   4.863   1.043   6.801  0.3604 -0.4244  0.6839
  187SLPC   C3121532   4.727   1.055   6.812 -0.2819  0.2728 -0.0297
  187SLPC   O3221533   4.647   0.992   6.746 -0.2310 -0.4112  0.4568
  187SLPC   C3221534   4.702   1.181   6.898  0.6064 -0.1463  0.5044
  187SLPC   H2X21535   4.605   1.224   6.866 -0.0091 -1.6724  0.2081
  187SLPC   H2Y21536   4.781   1.252   6.866 -0.5343  0.2149 -1.6789
  187SLPC   C2321537   4.852   0.631   7.266  0.2391 -0.1487 -0.6747
  187SLPC   H3R21538   4.932   0.560   7.237 -0.3224 -2.1227  2.2318
  187SLPC   H3S21539   4.767   0.580   7.314 -0.4514  1.8494  0.3422
  187SLPC   C2421540   4.922   0.716   7.372  0.9186 -0.9823 -0.3377
  187SLPC   H4R21541   4.866   0.810   7.394  0.5470 -0.8945 -1.6173
  187SLPC   H4S21542   5.020   0.754   7.337  0.7590  0.7961  0.9646
  187SLPC   C2521543   4.962   0.641   7.497  0.4858 -0.4928 -0.2295
  187SLPC   H5R21544   5.039   0.568   7.467  0.8571  0.5163 -1.8309
  187SLPC   H5S21545   4.872   0.586   7.534  1.0313 -1.9748 -1.0133
  187SLPC   C2621546   5.026   0.719   7.606 -0.2151 -0.3525  0.0290
  187SLPC   H6R21547   4.959   0.802   7.639 -1.0012 -2.0258  2.9809
  187SLPC   H6S21548   5.125   0.749   7.565  0.3767 -2.6713 -0.3512
  187SLPC   C2721549   5.051   0.641   7.746  0.8424  0.5349  0.2309
  187SLPC   H7R21550   5.089   0.541   7.717 -1.1765 -0.3747  0.5336
  187SLPC   H7S21551   4.946   0.629   7.780  0.6859 -1.2118 -0.7983
  187SLPC   C2821552   5.145   0.712   7.844  0.5678 -0.8042  0.3039
  187SLPC   H8R21553   5.087   0.793   7.893 -1.0541 -1.7379  0.0076
  187SLPC   H8S21554   5.225   0.760   7.783  0.4640 -0.8058  0.1655
  187SLPC   C2921555   5.213   0.615   7.943 -0.2276 -0.0635  0.0048
  187SLPC   H9R21556   5.298   0.561   7.900  1.1075  1.0800  1.1332
  187SLPC  C21021557   5.157   0.578   8.061 -0.2941  0.6957  0.8069
  187SLPC  H10R21558   5.208   0.499   8.118 -1.1549 -1.3589 -1.1273
  187SLPC  C21121559   5.030   0.622   8.129  0.1022 -0.7808  0.2545
  187SLPC  H11R21560   4.943   0.559   8.099 -0.9028  1.0468 -0.8881
  187SLPC  H11S21561   4.998   0.719   8.084  1.5902  0.1977  1.2539
  187SLPC  C21221562   5.035   0.643   8.273  0.0439  0.5788 -0.3214
  187SLPC  H12R21563   5.118   0.713   8.296  0.4519  0.7956 -2.3106
  187SLPC  C21321564   4.953   0.592   8.369 -0.1426 -0.5924 -0.3002
  187SLPC  H13R21565   4.974   0.625   8.471 -0.3262 -1.6418  0.0931
  187SLPC  C21421566   4.842   0.493   8.354 -0.0243 -0.1748 -0.4266
  187SLPC  H14R21567   4.794   0.500   8.254 -2.9582  0.7126  0.9342
  187SLPC  H14S21568   4.769   0.529   8.429 -1.7556  0.0472 -2.1136
  187SLPC  C21521569   4.886   0.348   8.400 -0.6179  0.7014  0.1553
  187SLPC  H15R21570   4.916   0.353   8.507 -1.5984  1.4749  0.4061
  187SLPC  H15S21571   4.967   0.316   8.331  1.5043  3.2915  1.2428
  187SLPC  C21621572   4.764   0.257   8.391  0.7950  0.3638 -0.1380
  187SLPC  H16R21573   4.795   0.151   8.394  2.8222  0.9358  0.5872
  187SLPC  H16S21574   4.715   0.281   8.294  0.5950  1.2226  0.1677
  187SLPC  C21721575   4.663   0.265   8.509  0.4330 -0.0993 -0.0849
  187SLPC  H17R21576   4.639   0.370   8.538 -1.9564 -0.0378 -1.9413
  187SLPC  H17S21577   4.714   0.226   8.599  0.5269  2.0080  0.8281
  187SLPC  C21821578   4.533   0.179   8.492  0.4662  0.3124  0.0817
  187SLPC  H18R21579   4.461   0.250   8.446  0.5731  0.7584  0.5850
  187SLPC  H18S21580   4.498   0.145   8.592 -0.3386  0.4356 -0.1497
  187SLPC  H18T21581   4.563   0.091   8.432 -3.0605 -1.4715  0.7052
  187SLPC   C3321582   4.708   1.156   7.050 -0.0517  0.5170 -0.1425
  187SLPC   H3X21583   4.644   1.068   7.072  0.2594  0.4566  0.5395
  187SLPC   H3Y21584   4.662   1.232   7.117 -1.2060 -1.2660  1.1776
  187SLPC   C3421585   4.852   1.134   7.094  0.0011  0.2505  0.1280
  187SLPC   H4X21586   4.904   1.231   7.083 -2.9746  1.9263 -0.3807
  187SLPC   H4Y21587   4.919   1.056   7.051  1.1686  0.0342  2.2282
  187SLPC   C3521588   4.863   1.107   7.247 -0.4936  0.9301 -0.0914
  187SLPC   H5X21589   4.837   1.001   7.268 -1.3078  1.5738  2.6187
  187SLPC   H5Y21590   4.785   1.168   7.298 -1.2913 -0.4037  0.3427
  187SLPC   C3621591   5.005   1.122   7.312  0.4374 -0.4304  0.7394
  187SLPC   H6X21592   5.050   1.222   7.295 -0.4065 -0.1428  0.1633
  187SLPC   H6Y21593   5.063   1.051   7.249 -0.2086  0.1025 -0.4752
  187SLPC   C3721594   5.016   1.094   7.462  0.0973  0.7269  0.3393
  187SLPC   H7X21595   4.953   1.176   7.502 -0.8078  0.3076 -0.2058
  187SLPC   H7Y21596   4.974   1.002   7.508  0.1645  0.8586  0.6693
  187SLPC   C3821597   5.156   1.119   7.520 -0.3087  0.0443 -0.1353
  187SLPC   H8X21598   5.186   1.219   7.480  0.2692  0.0818  0.3798
  187SLPC   H8Y21599   5.222   1.038   7.482 -0.3925  0.1004 -0.4088
  187SLPC   C3921600   5.162   1.125   7.671  0.3627 -0.2727  0.3907
  187SLPC   H9X21601   5.262   1.163   7.700  0.4368 -0.9570  1.0558
  187SLPC   H9Y21602   5.163   1.023   7.716  0.9422  0.1283  1.3091
  187SLPC  C31021603   5.049   1.205   7.742  0.5955  0.0978  0.6618
  187SLPC  H10X21604   4.954   1.148   7.737  1.3023 -1.1508  0.9077
  187SLPC  H10Y21605   5.042   1.305   7.694 -0.6043 -0.5797 -0.6633
  187SLPC  C31121606   5.091   1.239   7.887 -0.3177 -0.0995 -1.2600
  187SLPC  H11X21607   5.031   1.328   7.915  0.3485  0.4778 -1.6079
  187SLPC  H11Y21608   5.197   1.272   7.878 -0.2019 -0.4972 -1.3598
  187SLPC  C31221609   5.075   1.122   7.979 -0.4806  0.7999 -0.5908
  187SLPC  H12X21610   5.129   1.028   7.952 -0.2864 -0.4424  3.4254
  187SLPC  H12Y21611   4.967   1.097   7.974 -0.3273  0.1620 -0.8465
  187SLPC  C31321612   5.121   1.149   8.124 -0.6429 -0.5364 -0.1458
  187SLPC  H13X21613   5.067   1.237   8.165  1.1927 -0.2858  1.9592
  187SLPC  H13Y21614   5.227   1.181   8.112 -0.5831 -0.9562 -0.8079
  187SLPC  C31421615   5.093   1.033   8.213 -0.4588  0.5152 -0.0778
  187SLPC  H14X21616   5.146   0.942   8.177  1.1913  1.7328 -0.8851
  187SLPC  H14Y21617   4.986   1.011   8.191 -0.1948 -2.1387  0.8525
  187SLPC  C31521618   5.130   1.047   8.361  0.3602 -0.6374 -0.2410
  187SLPC  H15X21619   5.076   0.962   8.407  1.5886 -0.5380  1.4831
  187SLPC  H15Y21620   5.087   1.139   8.408  1.5345  0.2296 -0.8020
  187SLPC  C31621621   5.273   1.023   8.401  0.4149  0.1961 -0.1720
  187SLPC  H16X21622   5.291   1.045   8.509  0.2288  2.1148 -0.5083
  187SLPC  H16Y21623   5.328   1.097   8.339  0.2709 -0.4314 -1.0684
  187SLPC  C31721624   5.300   0.871   8.389  0.9280  0.3228  1.0468
  187SLPC  H17X21625   5.306   0.837   8.284 -0.5580 -1.2661  1.4294
  187SLPC  H17Y21626   5.214   0.817   8.435  1.2078 -0.8579  0.1997
  187SLPC  C31821627   5.429   0.836   8.454 -0.6758 -0.1873 -0.7600
  187SLPC  H18X21628   5.506   0.901   8.408 -0.3328  1.6610  2.1534
  187SLPC  H18Y21629   5.465   0.732   8.452 -0.8563 -0.5916  4.1446
  187SLPC  H18Z21630   5.427   0.849   8.565  1.9135  2.5429 -0.9043
  188SLPC     N21631   6.116   1.340   6.117  0.4328  1.0321  0.5358
  188SLPC   C1321632   6.182   1.327   5.983 -0.2480  0.5287 -0.4301
  188SLPC  H13A21633   6.155   1.233   5.938 -1.1353 -0.7272  2.4881
  188SLPC  H13B21634   6.169   1.409   5.914  2.2344 -0.0090 -1.6158
  188SLPC  H13C21635   6.289   1.331   5.994 -0.1002  4.0164 -1.9751
  188SLPC   C1421636   6.173   1.248   6.220  0.3127  0.3936 -0.1529
  188SLPC  H14A21637   6.147   1.282   6.318 -1.4280  0.2774 -0.5434
  188SLPC  H14B21638   6.128   1.150   6.210  2.1258 -0.4991 -0.0045
  188SLPC  H14C21639   6.280   1.247   6.207  0.1080  1.0552 -2.3226
  188SLPC   C1521640   5.966   1.321   6.102  0.1223 -0.9252 -0.1555
  188SLPC  H15A21641   5.914   1.400   6.049  1.6989  0.0297 -0.3418
  188SLPC  H15B21642   5.942   1.236   6.041 -0.0846 -1.4661  0.6642
  188SLPC  H15C21643   5.922   1.303   6.199  0.6062 -0.6914  0.1111
  188SLPC   C1221644   6.135   1.482   6.159  0.0272 -0.4970  0.4268
  188SLPC  H12A21645   6.107   1.550   6.079  0.9774  0.0782  0.5733
  188SLPC  H12B21646   6.239   1.501   6.180  0.5329 -0.0534 -2.0948
  188SLPC   C1121647   6.074   1.531   6.293 -0.8085 -0.0654 -0.4758
  188SLPC  H11A21648   5.963   1.524   6.290 -0.8894 -0.3953  1.6516
  188SLPC  H11B21649   6.095   1.640   6.297  0.2355 -0.2925  0.5219
  188SLPC     P21650   6.251   1.508   6.484  0.4710 -0.1892  0.2866
  188SLPC   O1321651   6.278   1.414   6.594 -0.9536 -0.2213  0.1166
  188SLPC   O1421652   6.366   1.538   6.395  0.2117  0.3921 -0.0539
  188SLPC   O1221653   6.125   1.458   6.404  0.0396 -0.1001 -0.0679
  188SLPC   O1121654   6.212   1.647   6.543  0.5772 -0.1210  0.5129
  188SLPC    C121655   6.085   1.687   6.600  0.2713 -0.2617  0.0832
  188SLPC    HA21656   6.005   1.625   6.554  1.5346 -1.4981 -0.5203
  188SLPC    HB21657   6.083   1.682   6.711  2.2297 -0.2344  0.1553
  188SLPC    C221658   6.050   1.830   6.542 -0.9416  0.7276  0.3130
  188SLPC    HS21659   6.089   1.831   6.438  0.8010  0.3730  0.9267
  188SLPC   O2121660   6.105   1.928   6.631 -0.3602 -0.2185  0.6499
  188SLPC   C2121661   6.230   1.963   6.609  0.0757 -0.0908  0.2289
  188SLPC   O2221662   6.307   1.916   6.524  0.9884  0.5758  0.7583
  188SLPC   C2221663   6.269   2.061   6.711  0.3526 -0.0870  0.5611
  188SLPC   H2R21664   6.344   2.119   6.653  0.0435 -2.2504 -2.2103
  188SLPC   H2S21665   6.190   2.134   6.738  2.3866  2.5999 -0.3349
  188SLPC    C321666   5.888   1.843   6.519  0.0490  0.7376 -0.1004
  188SLPC    HX21667   5.864   1.779   6.431 -0.3157  1.3212 -0.4331
  188SLPC    HY21668   5.876   1.950   6.490  1.3989  0.5575 -1.4198
  188SLPC   O3121669   5.809   1.808   6.640  0.0365 -0.0134  0.2056
  188SLPC   C3121670   5.759   1.908   6.709 -0.7341 -0.1362 -0.2395
  188SLPC   O3221671   5.764   2.022   6.684 -0.6010 -0.3297  0.4936
  188SLPC   C3221672   5.707   1.853   6.841  0.0096  0.4704  0.2705
  188SLPC   H2X21673   5.675   1.748   6.820  2.1839  0.1349 -1.8154
  188SLPC   H2Y21674   5.613   1.902   6.876  0.0516  0.5316  0.2999
  188SLPC   C2321675   6.335   2.008   6.836 -0.2271  0.7709 -0.7262
  188SLPC   H3R21676   6.391   2.092   6.882  1.7845 -0.1280 -1.4081
  188SLPC   H3S21677   6.406   1.923   6.818  1.5771  2.5642 -2.7417
  188SLPC   C2421678   6.230   1.958   6.931 -0.0359  0.2129 -0.2319
  188SLPC   H4R21679   6.186   1.867   6.885  0.1581  0.0916 -0.1729
  188SLPC   H4S21680   6.153   2.038   6.936 -0.8086 -0.6001  2.1192
  188SLPC   C2521681   6.285   1.927   7.065 -0.2159 -0.4151  0.1957
  188SLPC   H5R21682   6.306   2.027   7.109  0.5363 -0.1840 -0.6547
  188SLPC   H5S21683   6.378   1.867   7.052  0.8350  0.8264  1.4883
  188SLPC   C2621684   6.190   1.853   7.158 -0.2213  0.0491  0.6913
  188SLPC   H6R21685   6.158   1.757   7.113  1.2478 -0.9844  1.7712
  188SLPC   H6S21686   6.101   1.916   7.180 -1.0196 -1.2448  1.2513
  188SLPC   C2721687   6.249   1.806   7.291  0.3816  0.5775 -0.6052
  188SLPC   H7R21688   6.269   1.889   7.363 -0.4185 -0.0160  0.3315
  188SLPC   H7S21689   6.346   1.758   7.263 -0.9799 -2.8646  0.0624
  188SLPC   C2821690   6.165   1.694   7.360  0.4979 -0.0365 -0.2800
  188SLPC   H8R21691   6.110   1.646   7.276  0.7929  0.8970 -1.0300
  188SLPC   H8S21692   6.081   1.724   7.426 -0.6732 -1.8176 -0.8953
  188SLPC   C2921693   6.241   1.586   7.428 -0.1248  0.4202 -0.4859
  188SLPC   H9R21694   6.291   1.516   7.360 -2.0726 -0.9383 -0.6089
  188SLPC  C21021695   6.267   1.582   7.561  0.8900  0.1086 -0.5320
  188SLPC  H10R21696   6.296   1.483   7.601  0.0537 -0.4194 -1.1904
  188SLPC  C21121697   6.216   1.681   7.665  0.1388 -0.2238  0.1915
  188SLPC  H11R21698   6.126   1.720   7.614  0.3734 -2.2341 -1.9228
  188SLPC  H11S21699   6.293   1.760   7.681  1.9144 -1.7784 -0.2958
  188SLPC  C21221700   6.180   1.606   7.791 -0.0487 -0.1491  0.0796
  188SLPC  H12R21701   6.109   1.523   7.775  0.7053 -0.6946 -0.5112
  188SLPC  C21321702   6.223   1.643   7.912  0.3555  0.1926  0.1252
  188SLPC  H13R21703   6.170   1.594   7.995  2.3436  0.9340  1.9205
  188SLPC  C21421704   6.308   1.753   7.956 -0.3907 -0.1978 -0.1644
  188SLPC  H14R21705   6.292   1.847   7.899  0.2931  0.2546  0.3701
  188SLPC  H14S21706   6.415   1.723   7.943  0.0549  1.2644 -0.0216
  188SLPC  C21521707   6.297   1.789   8.108  0.1078 -0.1814 -0.0131
  188SLPC  H15R21708   6.191   1.819   8.120  0.3458 -0.0960  2.3040
  188SLPC  H15S21709   6.359   1.878   8.130 -2.5446  2.6192 -2.8264
  188SLPC  C21621710   6.337   1.669   8.200 -0.4723  0.0627  0.0064
  188SLPC  H16R21711   6.445   1.644   8.197 -0.9457 -2.0438 -0.9077
  188SLPC  H16S21712   6.277   1.579   8.179 -2.1590  1.5392 -1.8994
  188SLPC  C21721713   6.308   1.713   8.346 -0.6587  0.3041 -0.1143
  188SLPC  H17R21714   6.198   1.709   8.362 -0.2266 -1.6614  3.4577
  188SLPC  H17S21715   6.335   1.819   8.359 -0.0351 -0.0540  1.8104
  188SLPC  C21821716   6.370   1.635   8.454 -0.1865  0.7539  0.3984
  188SLPC  H18R21717   6.353   1.670   8.558 -2.4339  0.0678  0.3221
  188SLPC  H18S21718   6.478   1.642   8.432 -0.3748  2.2970 -0.1431
  188SLPC  H18T21719   6.336   1.529   8.458  1.2586  0.2563  0.0795
  188SLPC   C3321720   5.816   1.845   6.953  0.8858 -0.1688  0.3267
  188SLPC   H3X21721   5.867   1.943   6.970  1.3087 -0.0335 -1.4577
  188SLPC   H3Y21722   5.893   1.768   6.931 -0.2709 -0.9242 -1.2779
  188SLPC   C3421723   5.741   1.796   7.082 -0.1249 -0.5773 -0.3014
  188SLPC   H4X21724   5.657   1.727   7.057  1.4749 -1.8166 -2.5315
  188SLPC   H4Y21725   5.696   1.892   7.114 -0.7341 -1.1666  0.6561
  188SLPC   C3521726   5.825   1.742   7.197  0.4156  0.3418  0.1567
  188SLPC   H5X21727   5.889   1.825   7.234  1.1165  0.7683 -1.8643
  188SLPC   H5Y21728   5.892   1.661   7.161 -0.5403 -0.5274  0.2938
  188SLPC   C3621729   5.738   1.693   7.316 -0.3651  0.0732 -0.9908
  188SLPC   H6X21730   5.710   1.586   7.307  0.7376 -0.2927 -0.2329
  188SLPC   H6Y21731   5.650   1.761   7.325  1.2543  2.3371 -1.5245
  188SLPC   C3721732   5.813   1.698   7.450  0.1117 -0.4679 -0.9464
  188SLPC   H7X21733   5.880   1.786   7.456  0.1861 -0.5228 -0.9634
  188SLPC   H7Y21734   5.871   1.604   7.456  0.4594 -0.2653 -1.1063
  188SLPC   C3821735   5.720   1.711   7.572  0.0357  0.2778  0.2298
  188SLPC   H8X21736   5.633   1.642   7.564  2.7099 -3.5218  1.2161
  188SLPC   H8Y21737   5.684   1.817   7.572  3.0238  1.3955 -0.2359
  188SLPC   C3921738   5.793   1.682   7.704  0.9795 -0.1727 -0.4820
  188SLPC   H9X21739   5.889   1.737   7.713  0.3432  0.5983  2.6598
  188SLPC   H9Y21740   5.806   1.572   7.709 -0.0221 -0.2753  0.0036
  188SLPC  C31021741   5.716   1.710   7.830  0.1421 -0.0037 -0.0184
  188SLPC  H10X21742   5.625   1.647   7.843 -0.3106  0.8682  1.2379
  188SLPC  H10Y21743   5.679   1.814   7.822 -1.3412 -0.5388 -0.3662
  188SLPC  C31121744   5.800   1.712   7.960  0.1185  0.7894  0.0067
  188SLPC  H11X21745   5.888   1.778   7.944 -0.3623  1.5107  0.2628
  188SLPC  H11Y21746   5.840   1.610   7.974 -0.6763  0.6650  1.6021
  188SLPC  C31221747   5.712   1.749   8.082 -0.3315  0.0582 -0.5600
  188SLPC  H12X21748   5.620   1.688   8.073  1.1108 -3.0930  3.0826
  188SLPC  H12Y21749   5.694   1.859   8.086  0.9545  0.3520 -1.8661
  188SLPC  C31321750   5.766   1.727   8.221 -0.3451  0.1056  0.4763
  188SLPC  H13X21751   5.797   1.622   8.241 -2.8729 -0.3112  2.7237
  188SLPC  H13Y21752   5.694   1.771   8.293  0.5046  3.4372 -0.5321
  188SLPC  C31421753   5.886   1.819   8.251  0.1866  1.1163 -0.2768
  188SLPC  H14X21754   5.856   1.922   8.223 -1.1097  1.1623  1.1531
  188SLPC  H14Y21755   5.972   1.784   8.190  0.0820 -1.3355  0.8483
  188SLPC  C31521756   5.925   1.812   8.409  0.4519  0.1882  0.0545
  188SLPC  H15X21757   6.022   1.867   8.401  0.5355  0.3906  1.9685
  188SLPC  H15Y21758   5.944   1.708   8.441  0.0340 -0.3669 -1.4115
  188SLPC  C31621759   5.833   1.879   8.507 -0.4727  0.5636 -0.7150
  188SLPC  H16X21760   5.737   1.823   8.513 -0.1315  0.0375  0.0623
  188SLPC  H16Y21761   5.813   1.986   8.486 -0.8322  1.1921  2.4163
  188SLPC  C31721762   5.894   1.883   8.651 -0.0758  0.2811 -0.7584
  188SLPC  H17X21763   5.983   1.949   8.654  1.2805 -1.4848 -0.2398
  188SLPC  H17Y21764   5.924   1.778   8.674  1.3225  0.4271 -1.8656
  188SLPC  C31821765   5.798   1.920   8.762 -0.2877 -0.4383 -0.6991
  188SLPC  H18X21766   5.700   1.867   8.772 -0.8661  0.7024 -0.1646
  188SLPC  H18Y21767   5.770   2.025   8.739  0.1311 -0.4516 -1.3000
  188SLPC  H18Z21768   5.843   1.912   8.863  0.9793 -1.3348 -1.3067
  189SLPC     N21769   2.527   3.805   6.130  0.4127  0.8789 -0.0850
  189SLPC   C1321770   2.519   3.655   6.115  0.6249 -0.7590  0.0509
  189SLPC  H13A21771   2.596   3.609   6.177 -0.6960 -2.3790  0.5728
  189SLPC  H13B21772   2.422   3.619   6.147 -0.7964  1.0290 -2.0404
  189SLPC  H13C21773   2.529   3.625   6.012 -1.2526 -1.1477 -0.0622
  189SLPC   C1421774   2.424   3.866   6.040 -0.3227 -0.0094  0.3460
  189SLPC  H14A21775   2.321   3.875   6.073  0.0815  1.9132  1.2331
  189SLPC  H14B21776   2.455   3.969   6.032  1.5338 -0.1377  3.8583
  189SLPC  H14C21777   2.426   3.824   5.940  0.8324 -0.2899  0.4749
  189SLPC   C1521778   2.665   3.846   6.074  0.8007  0.9165 -0.0515
  189SLPC  H15A21779   2.683   3.951   6.092  1.0480  0.6007  1.6907
  189SLPC  H15B21780   2.747   3.786   6.109  0.2037 -0.4864 -0.9637
  189SLPC  H15C21781   2.656   3.834   5.967 -1.6850  0.0813  0.1764
  189SLPC   C1221782   2.505   3.851   6.267  1.0932 -0.0874  0.6955
  189SLPC  H12A21783   2.583   3.813   6.332  1.8107  2.4170  1.4338
  189SLPC  H12B21784   2.406   3.828   6.303  0.7500  2.1325  1.3398
  189SLPC   C1121785   2.518   4.006   6.287 -0.3227 -0.1369 -0.6726
  189SLPC  H11A21786   2.602   4.050   6.229 -0.8360  1.0711 -0.5282
  189SLPC  H11B21787   2.546   4.024   6.393 -0.9869  0.8668 -0.6489
  189SLPC     P21788   2.400   4.215   6.185  0.2700  0.0675  0.3750
  189SLPC   O1321789   2.492   4.223   6.064 -0.1172 -1.4074 -0.0704
  189SLPC   O1421790   2.257   4.252   6.168 -0.0439 -0.0489  0.8455
  189SLPC   O1221791   2.393   4.072   6.255 -0.5816 -0.3195 -0.0993
  189SLPC   O1121792   2.460   4.290   6.310  0.2956  0.1499  0.8538
  189SLPC    C121793   2.377   4.285   6.429 -0.4710  0.2402  0.1288
  189SLPC    HA21794   2.269   4.261   6.420 -1.0591  2.3845  0.8910
  189SLPC    HB21795   2.410   4.197   6.488  1.0827  0.7514  0.0715
  189SLPC    C221796   2.397   4.409   6.517 -0.6185  0.0569  0.4466
  189SLPC    HS21797   2.503   4.411   6.552 -0.0601 -1.4585 -1.0188
  189SLPC   O2121798   2.304   4.416   6.626 -0.0845 -0.1309  0.4801
  189SLPC   C2121799   2.339   4.354   6.736  0.7517  0.5381  0.7870
  189SLPC   O2221800   2.444   4.297   6.752 -0.5416  0.0668 -0.0350
  189SLPC   C2221801   2.225   4.372   6.843  0.2316  0.0014 -0.1487
  189SLPC   H2R21802   2.202   4.481   6.835  0.4740  0.0858  0.2678
  189SLPC   H2S21803   2.136   4.319   6.805 -2.2073  2.4084  1.7783
  189SLPC    C321804   2.381   4.545   6.447  0.7529  0.2898 -0.1614
  189SLPC    HX21805   2.274   4.544   6.416  0.5854  0.7808  0.3829
  189SLPC    HY21806   2.435   4.545   6.350  1.2639 -2.8016  0.0293
  189SLPC   O3121807   2.397   4.665   6.522 -0.1557  0.1378  0.0262
  189SLPC   C3121808   2.516   4.714   6.539  0.0707  0.2212 -0.8960
  189SLPC   O3221809   2.620   4.662   6.495 -0.4985 -0.1843 -0.4636
  189SLPC   C3221810   2.516   4.834   6.634 -0.2485  1.0551 -0.2138
  189SLPC   H2X21811   2.414   4.858   6.670  0.0978  0.7783  1.0021
  189SLPC   H2Y21812   2.569   4.912   6.575  1.7505 -0.3294 -0.3232
  189SLPC   C2321813   2.280   4.328   6.981  0.1059  0.3002 -0.3431
  189SLPC   H3R21814   2.366   4.393   7.010 -1.0311  1.6055  0.2064
  189SLPC   H3S21815   2.315   4.223   6.974  0.5658  0.3947  0.4697
  189SLPC   C2421816   2.180   4.328   7.097  0.5983  0.0492 -0.9373
  189SLPC   H4R21817   2.086   4.283   7.059 -0.5821  1.9492 -0.3911
  189SLPC   H4S21818   2.170   4.436   7.123 -0.3343 -0.3110  0.3286
  189SLPC   C2521819   2.236   4.252   7.221  0.1074 -0.0931 -0.7802
  189SLPC   H5R21820   2.329   4.304   7.253  0.0358  0.6174 -1.6812
  189SLPC   H5S21821   2.278   4.154   7.190  1.4552 -0.3260  1.5227
  189SLPC   C2621822   2.120   4.226   7.323 -0.6087 -0.4693  0.1835
  189SLPC   H6R21823   2.043   4.306   7.323  0.5110  0.6749 -1.4885
  189SLPC   H6S21824   2.159   4.235   7.426 -3.2980 -0.2921  1.2690
  189SLPC   C2721825   2.060   4.085   7.312  0.2664  0.7598  0.1330
  189SLPC   H7R21826   2.124   4.019   7.251  0.6720  1.5224 -0.2897
  189SLPC   H7S21827   1.966   4.102   7.255  1.1419  1.7184 -1.0910
  189SLPC   C2821828   2.031   4.027   7.447 -0.4561  0.3651  0.2483
  189SLPC   H8R21829   1.962   4.094   7.503 -0.6967 -0.3988  0.8867
  189SLPC   H8S21830   2.119   4.016   7.514 -1.0160 -0.4658  0.8646
  189SLPC   C2921831   1.976   3.895   7.419 -0.5975  0.7645  0.5642
  189SLPC   H9R21832   1.951   3.865   7.316 -0.3616  0.9495  0.4541
  189SLPC  C21021833   1.952   3.805   7.520  0.2700 -0.0272  0.0411
  189SLPC  H10R21834   1.918   3.703   7.495 -0.1577 -0.0935  0.8591
  189SLPC  C21121835   1.976   3.837   7.662 -0.4519 -0.3733  0.0775
  189SLPC  H11R21836   2.054   3.914   7.677 -0.3369 -0.1090 -1.6807
  189SLPC  H11S21837   2.002   3.740   7.709 -1.6497 -0.5513  0.3996
  189SLPC  C21221838   1.853   3.887   7.727  0.2201 -0.0894 -0.1546
  189SLPC  H12R21839   1.788   3.947   7.662  0.4392  1.2589  0.8246
  189SLPC  C21321840   1.819   3.871   7.857  0.7883 -0.1664 -0.3510
  189SLPC  H13R21841   1.727   3.920   7.894  0.8423 -1.3714  1.5196
  189SLPC  C21421842   1.887   3.793   7.962 -0.8647 -0.1049 -0.2777
  189SLPC  H14R21843   1.979   3.838   8.005 -0.4458 -0.6269 -0.6071
  189SLPC  H14S21844   1.941   3.704   7.922  3.9970  1.9971  0.8568
  189SLPC  C21521845   1.803   3.754   8.086  1.5505 -0.1136 -0.2778
  189SLPC  H15R21846   1.699   3.740   8.048  1.5269 -0.2782 -0.1506
  189SLPC  H15S21847   1.790   3.837   8.159 -0.7254 -0.6375 -0.0040
  189SLPC  C21621848   1.841   3.618   8.133 -0.0752  0.0860  0.9135
  189SLPC  H16R21849   1.941   3.628   8.180  0.6117 -0.3890 -0.4050
  189SLPC  H16S21850   1.851   3.556   8.042  2.2306  0.6566  0.7253
  189SLPC  C21721851   1.740   3.561   8.231 -0.0607  0.4750  0.9517
  189SLPC  H17R21852   1.654   3.528   8.168  1.4400 -0.1237 -0.8888
  189SLPC  H17S21853   1.688   3.629   8.301 -2.2646 -0.2753  0.1278
  189SLPC  C21821854   1.790   3.442   8.313 -0.3507 -0.5032 -0.4565
  189SLPC  H18R21855   1.828   3.367   8.241 -0.5885 -0.3391 -0.7608
  189SLPC  H18S21856   1.709   3.405   8.379 -0.2847  0.0047 -0.0790
  189SLPC  H18T21857   1.870   3.474   8.382  1.4248 -1.1806 -2.1277
  189SLPC   C3321858   2.600   4.802   6.761  0.1111  0.4820 -0.3008
  189SLPC   H3X21859   2.613   4.900   6.813 -0.4845 -0.2272  1.2359
  189SLPC   H3Y21860   2.705   4.769   6.745  0.1080  0.2079  0.2245
  189SLPC   C3421861   2.525   4.705   6.857 -0.4240 -0.0577 -0.0148
  189SLPC   H4X21862   2.552   4.607   6.812 -1.1890  0.5777 -1.9590
  189SLPC   H4Y21863   2.415   4.708   6.842 -0.4832 -0.4307  0.3562
  189SLPC   C3521864   2.580   4.712   6.997 -0.1060 -0.4704 -0.0144
  189SLPC   H5X21865   2.603   4.820   7.011  2.1185 -0.9441  0.4490
  189SLPC   H5Y21866   2.676   4.656   7.002  0.7736  1.0562  0.9071
  189SLPC   C3621867   2.488   4.666   7.114 -0.4730 -0.3011  0.4726
  189SLPC   H6X21868   2.452   4.561   7.100  2.2806 -1.6269  2.3511
  189SLPC   H6Y21869   2.401   4.735   7.114  0.7431  1.3100 -1.2036
  189SLPC   C3721870   2.563   4.671   7.247 -0.3564  0.3306 -0.2082
  189SLPC   H7X21871   2.601   4.769   7.285 -2.9030  0.5097  2.2033
  189SLPC   H7Y21872   2.662   4.623   7.232 -0.8109 -0.5061 -0.6157
  189SLPC   C3821873   2.477   4.608   7.358  0.5138 -0.1009  0.4919
  189SLPC   H8X21874   2.457   4.502   7.331  2.5903 -0.3229 -0.3450
  189SLPC   H8Y21875   2.381   4.662   7.366 -0.1114 -1.3054  1.4583
  189SLPC   C3921876   2.542   4.623   7.495 -0.7378 -0.0332  0.1299
  189SLPC   H9X21877   2.549   4.731   7.521  2.2301 -0.5114  1.8139
  189SLPC   H9Y21878   2.647   4.585   7.495 -1.3617 -1.9117  1.6702
  189SLPC  C31021879   2.462   4.549   7.601  0.0312  0.3858 -0.3258
  189SLPC  H10X21880   2.356   4.582   7.596  0.7954  3.0408 -0.9178
  189SLPC  H10Y21881   2.500   4.582   7.700 -0.9750 -0.8337  0.4897
  189SLPC  C31121882   2.484   4.404   7.599 -0.4444  0.6127  0.1905
  189SLPC  H11X21883   2.592   4.384   7.621  0.1103  1.5493 -1.5120
  189SLPC  H11Y21884   2.476   4.357   7.499  0.3049 -1.6004  1.0979
  189SLPC  C31221885   2.390   4.323   7.698  0.3433  0.3553  0.5880
  189SLPC  H12X21886   2.302   4.312   7.630  0.9169  2.5471 -0.6063
  189SLPC  H12Y21887   2.384   4.387   7.788  0.7714 -1.4553  1.9620
  189SLPC  C31321888   2.442   4.184   7.727  0.0119 -0.5275  0.5557
  189SLPC  H13X21889   2.546   4.197   7.766  0.4125  3.4091 -1.3101
  189SLPC  H13Y21890   2.440   4.117   7.638  0.0618 -0.1277  0.2523
  189SLPC  C31421891   2.352   4.104   7.824  0.3456  0.4284  0.2400
  189SLPC  H14X21892   2.247   4.092   7.791  0.4906 -0.8384  0.1951
  189SLPC  H14Y21893   2.341   4.152   7.924 -0.9914 -0.6653  0.6545
  189SLPC  C31521894   2.391   3.957   7.841 -0.3304 -0.0507  0.5419
  189SLPC  H15X21895   2.499   3.957   7.870 -0.3074 -1.4554  0.5041
  189SLPC  H15Y21896   2.374   3.908   7.743 -2.6853  1.0853  0.3228
  189SLPC  C31621897   2.302   3.879   7.940  0.0479  0.3643  0.4226
  189SLPC  H16X21898   2.194   3.900   7.923  0.1510  1.2527  0.8047
  189SLPC  H16Y21899   2.323   3.908   8.045 -2.0786 -1.3084  1.4066
  189SLPC  C31721900   2.326   3.725   7.926 -0.1128 -0.3400  0.5026
  189SLPC  H17X21901   2.435   3.712   7.941  0.1982  0.2889 -1.1030
  189SLPC  H17Y21902   2.291   3.694   7.825 -0.6725 -0.9546  0.8726
  189SLPC  C31821903   2.253   3.649   8.040 -0.0425  0.5124 -0.5937
  189SLPC  H18X21904   2.295   3.669   8.140 -1.0001  0.0511 -0.0772
  189SLPC  H18Y21905   2.243   3.540   8.019  0.7567  0.1499  0.7901
  189SLPC  H18Z21906   2.151   3.694   8.044  0.6267  2.0758 -0.6201
  190SLPC     N21907   3.426   3.865   6.158  0.2460 -0.4029  0.0911
  190SLPC   C1321908   3.521   3.974   6.130  0.1521 -0.3672 -0.0352
  190SLPC  H13A21909   3.512   4.011   6.029 -2.5697 -0.3244  0.1641
  190SLPC  H13B21910   3.528   4.055   6.202  1.5496  0.5281 -1.0965
  190SLPC  H13C21911   3.624   3.942   6.131  1.2971  2.9059  0.5213
  190SLPC   C1421912   3.468   3.747   6.079  0.7128  0.8169 -0.3989
  190SLPC  H14A21913   3.394   3.668   6.089 -0.0213  1.5610  0.1298
  190SLPC  H14B21914   3.467   3.771   5.974 -0.5609 -2.7848 -1.3854
  190SLPC  H14C21915   3.565   3.704   6.101  0.8672  2.1517  1.7434
  190SLPC   C1521916   3.293   3.910   6.106  0.5002  0.5030 -0.7123
  190SLPC  H15A21917   3.314   3.943   6.005 -0.7226  3.0590 -0.2104
  190SLPC  H15B21918   3.221   3.830   6.105  1.6763 -0.5995 -0.5871
  190SLPC  H15C21919   3.259   4.000   6.154 -4.3675 -1.1365 -0.5600
  190SLPC   C1221920   3.426   3.835   6.309  0.0868  0.1891  0.1313
  190SLPC  H12A21921   3.404   3.932   6.352 -1.1280  0.0044 -0.0412
  190SLPC  H12B21922   3.529   3.812   6.331 -0.2708 -0.5506  1.1391
  190SLPC   C1121923   3.327   3.729   6.366 -0.5916 -0.7422 -0.6846
  190SLPC  H11A21924   3.230   3.767   6.328  0.0592  2.0943  0.2615
  190SLPC  H11B21925   3.330   3.740   6.477 -0.6598  1.6988 -0.8751
  190SLPC     P21926   3.460   3.504   6.389 -0.8626  0.0136  0.2341
  190SLPC   O1321927   3.484   3.386   6.304 -1.0199 -0.3573 -0.9206
  190SLPC   O1421928   3.578   3.580   6.432 -0.2906  0.4208 -0.4353
  190SLPC   O1221929   3.360   3.601   6.315  0.8127 -0.0656  0.5836
  190SLPC   O1121930   3.378   3.465   6.516  0.5154  0.0144 -0.0909
  190SLPC    C121931   3.259   3.387   6.518  0.1693 -0.3199  0.1777
  190SLPC    HA21932   3.217   3.369   6.416 -2.3246  3.4060  0.3356
  190SLPC    HB21933   3.286   3.295   6.574  0.3083  0.7280  1.8732
  190SLPC    C221934   3.148   3.467   6.596 -0.3537  0.2260  0.0698
  190SLPC    HS21935   3.153   3.571   6.558  1.9759  0.3811  0.6672
  190SLPC   O2121936   3.193   3.486   6.729  0.3679 -0.0289 -0.3669
  190SLPC   C2121937   3.172   3.390   6.811 -0.5863  0.3680 -0.1963
  190SLPC   O2221938   3.153   3.272   6.786 -0.0375  0.2510  0.3831
  190SLPC   C2221939   3.187   3.438   6.953  0.9720  0.7731  0.0222
  190SLPC   H2R21940   3.293   3.426   6.985  1.1311  1.9189 -0.0411
  190SLPC   H2S21941   3.166   3.545   6.972 -1.1112  0.0901  2.0273
  190SLPC    C321942   3.006   3.402   6.576  0.2835 -0.2106 -0.6626
  190SLPC    HX21943   3.015   3.293   6.597  0.1226  0.3208  2.6806
  190SLPC    HY21944   2.965   3.416   6.474  1.1406 -0.4052 -1.0494
  190SLPC   O3121945   2.911   3.461   6.674 -0.0307  0.3415  0.1553
  190SLPC   C3121946   2.793   3.390   6.680 -0.0258 -0.9025  0.0545
  190SLPC   O3221947   2.782   3.281   6.633 -0.6902 -0.0832  0.4746
  190SLPC   C3221948   2.676   3.464   6.754 -0.2610  0.2105 -0.1236
  190SLPC   H2X21949   2.607   3.384   6.789  0.6275 -0.2546  0.5831
  190SLPC   H2Y21950   2.613   3.514   6.677  2.1441  2.4591 -0.7573
  190SLPC   C2321951   3.098   3.359   7.054  0.7610  0.4453  0.9249
  190SLPC   H3R21952   3.115   3.249   7.052  0.2632  0.3657  0.8425
  190SLPC   H3S21953   2.994   3.390   7.031  1.5443  0.2177 -4.0259
  190SLPC   C2421954   3.122   3.395   7.194 -0.2383 -0.8866  0.5634
  190SLPC   H4R21955   3.135   3.505   7.204 -1.6276 -0.3870 -2.1637
  190SLPC   H4S21956   3.211   3.347   7.239  1.1602 -0.8712 -2.0299
  190SLPC   C2521957   3.002   3.355   7.272 -0.2947  0.5928  0.0543
  190SLPC   H5R21958   2.991   3.246   7.256  2.1147  0.1366  1.0067
  190SLPC   H5S21959   2.909   3.407   7.242 -0.7826 -1.1505 -1.6829
  190SLPC   C2621960   3.030   3.378   7.417  0.2458 -0.4267  0.1844
  190SLPC   H6R21961   3.003   3.485   7.431 -0.7996 -0.4179 -1.5752
  190SLPC   H6S21962   3.133   3.353   7.449 -0.0277 -1.3392  0.3811
  190SLPC   C2721963   2.946   3.292   7.504  0.3333  0.1456  0.6432
  190SLPC   H7R21964   2.981   3.187   7.488 -1.7343 -1.3295  4.5702
  190SLPC   H7S21965   2.835   3.291   7.497  0.0332 -4.0272  2.6730
  190SLPC   C2821966   2.973   3.302   7.655 -0.7561  0.8353 -0.6151
  190SLPC   H8R21967   2.960   3.400   7.706 -1.0057  0.9114 -0.8226
  190SLPC   H8S21968   3.080   3.273   7.667 -0.5769  1.3590 -0.9282
  190SLPC   C2921969   2.898   3.193   7.735  0.1691 -0.4891  0.6445
  190SLPC   H9R21970   2.815   3.148   7.677  0.9982  1.4665 -2.2862
  190SLPC  C21021971   2.928   3.162   7.860  0.3808  0.0317 -0.3730
  190SLPC  H10R21972   2.867   3.090   7.917  0.6477  0.9556  1.1239
  190SLPC  C21121973   3.034   3.232   7.936  0.1736 -0.7385 -0.4108
  190SLPC  H11R21974   3.022   3.341   7.955  2.6492 -0.3091 -1.0181
  190SLPC  H11S21975   3.132   3.222   7.886 -0.0303  1.4560 -1.3863
  190SLPC  C21221976   3.068   3.163   8.062 -0.4717  0.0369  0.7030
  190SLPC  H12R21977   3.080   3.054   8.056  0.0005  0.1268 -0.0974
  190SLPC  C21321978   3.109   3.223   8.172 -0.7402  0.4571 -0.6219
  190SLPC  H13R21979   3.148   3.154   8.249  0.2514 -1.4251 -2.7102
  190SLPC  C21421980   3.127   3.367   8.207 -0.1111  0.0499  0.0620
  190SLPC  H14R21981   3.084   3.429   8.126  0.1946 -1.8639 -1.6677
  190SLPC  H14S21982   3.237   3.380   8.205  0.2497 -2.2982  0.8305
  190SLPC  C21521983   3.065   3.410   8.346 -0.1891  0.2868 -0.0179
  190SLPC  H15R21984   3.103   3.509   8.379  1.1916 -0.5529  1.0605
  190SLPC  H15S21985   3.104   3.336   8.420  0.0836 -1.7773 -2.1011
  190SLPC  C21621986   2.915   3.404   8.355  0.1453 -0.1339  0.1780
  190SLPC  H16R21987   2.892   3.297   8.333 -1.0640  0.4916 -1.8552
  190SLPC  H16S21988   2.872   3.473   8.279  1.6695  1.9924  1.1431
  190SLPC  C21721989   2.862   3.438   8.491 -0.2924 -0.6236  0.2033
  190SLPC  H17R21990   2.923   3.379   8.563 -0.0807  1.8307  2.1922
  190SLPC  H17S21991   2.754   3.414   8.480 -0.1899 -1.4254  0.8028
  190SLPC  C21821992   2.878   3.579   8.542 -0.2494  1.2893  1.0625
  190SLPC  H18R21993   2.836   3.592   8.644 -0.7604 -1.0313  1.2069
  190SLPC  H18S21994   2.822   3.645   8.473 -0.7966 -1.5514 -1.3858
  190SLPC  H18T21995   2.986   3.607   8.543  0.0865  0.3194 -1.6566
  190SLPC   C3321996   2.721   3.559   6.863  0.1219 -0.1662  0.9677
  190SLPC   H3X21997   2.780   3.630   6.801 -0.2369 -2.3323 -2.1063
  190SLPC   H3Y21998   2.785   3.510   6.940  0.4999 -0.1467  0.6721
  190SLPC   C3421999   2.606   3.618   6.942  0.2093  0.0219  0.6983
  190SLPC   H4X22000   2.515   3.629   6.880  0.9422  0.2112 -0.3703
  190SLPC   H4Y22001   2.632   3.720   6.978  0.8193  0.5881 -1.2203
  190SLPC   C3522002   2.553   3.523   7.046  0.1928  0.0899 -0.5190
  190SLPC   H5X22003   2.630   3.516   7.125  1.2345  0.0467 -1.5184
  190SLPC   H5Y22004   2.533   3.422   7.004  0.9830 -0.1805 -0.2508
  190SLPC   C3622005   2.425   3.569   7.119 -0.2289 -0.1455 -0.4398
  190SLPC   H6X22006   2.340   3.550   7.050 -1.3177 -1.3639  1.1575
  190SLPC   H6Y22007   2.437   3.677   7.139  0.3219 -0.1885 -0.5377
  190SLPC   C3722008   2.391   3.493   7.244 -0.2743  0.1230  0.1392
  190SLPC   H7X22009   2.477   3.487   7.314  0.4169  0.6162 -0.6449
  190SLPC   H7Y22010   2.365   3.392   7.204  1.1560 -0.7965  1.4188
  190SLPC   C3822011   2.272   3.552   7.304  0.2411  0.7696  0.0854
  190SLPC   H8X22012   2.204   3.595   7.228  0.1934  1.7045  0.6432
  190SLPC   H8Y22013   2.294   3.640   7.369 -0.4548  0.5073  0.6944
  190SLPC   C3922014   2.193   3.443   7.384 -0.3773 -0.3322  0.2257
  190SLPC   H9X22015   2.163   3.366   7.310 -0.5268 -0.1857  0.1345
  190SLPC   H9Y22016   2.096   3.483   7.420 -0.8145 -1.2468  0.0787
  190SLPC  C31022017   2.274   3.392   7.507  0.7591 -0.6726  0.4157
  190SLPC  H10X22018   2.305   3.478   7.570  1.3837 -0.0142 -0.7494
  190SLPC  H10Y22019   2.365   3.345   7.464 -0.8668 -1.4826 -2.3814
  190SLPC  C31122020   2.193   3.291   7.606 -0.1788  0.2844 -0.3349
  190SLPC  H11X22021   2.266   3.255   7.681 -1.9664  1.9794  2.3751
  190SLPC  H11Y22022   2.156   3.210   7.540  0.6225 -1.4184  1.2364
  190SLPC  C31222023   2.082   3.359   7.682  1.0592  0.1801  0.9584
  190SLPC  H12X22024   2.004   3.389   7.609  1.4709 -1.0209 -0.0215
  190SLPC  H12Y22025   2.127   3.451   7.724 -0.5800  1.1808  0.6200
  190SLPC  C31322026   2.005   3.273   7.789 -1.2156 -0.1748  0.7351
  190SLPC  H13X22027   1.985   3.169   7.757  0.4300  0.3569 -2.5150
  190SLPC  H13Y22028   1.904   3.315   7.806 -2.1683 -1.0122 -2.2561
  190SLPC  C31422029   2.104   3.264   7.914 -0.2758 -0.5038  0.4674
  190SLPC  H14X22030   2.130   3.371   7.927 -0.9549 -0.3753  0.8560
  190SLPC  H14Y22031   2.193   3.204   7.887 -1.9057 -2.1958 -1.5306
  190SLPC  C31522032   2.040   3.201   8.041 -0.5284 -0.3530  0.0307
  190SLPC  H15X22033   1.988   3.108   8.010 -1.7207  1.1546 -2.8605
  190SLPC  H15Y22034   1.952   3.263   8.072 -0.4672 -0.6560  0.8359
  190SLPC  C31622035   2.137   3.195   8.153  0.0290 -0.2178  0.4796
  190SLPC  H16X22036   2.182   3.296   8.168  1.1628  0.0985 -3.7914
  190SLPC  H16Y22037   2.227   3.138   8.121  0.9571  0.6775  1.4018
  190SLPC  C31722038   2.082   3.139   8.287  0.4996 -0.1680 -0.0330
  190SLPC  H17X22039   2.019   3.210   8.345  1.0666  0.3094  0.0187
  190SLPC  H17Y22040   2.184   3.131   8.332  1.5887 -1.1677 -2.4816
  190SLPC  C31822041   2.030   2.994   8.283  0.0028 -0.5413 -0.4674
  190SLPC  H18X22042   2.101   2.937   8.219 -0.1877  1.0054 -2.1307
  190SLPC  H18Y22043   1.937   2.991   8.222  0.3976  2.2206 -1.3438
  190SLPC  H18Z22044   2.029   2.961   8.389 -0.5896  2.0622  0.4182
  191SLPC     N22045   1.832   4.787   5.821 -0.3851 -0.0133 -0.1015
  191SLPC   C1322046   1.889   4.845   5.693 -0.0832 -0.1886 -0.0551
  191SLPC  H13A22047   1.843   4.792   5.611  1.5255 -1.1861 -0.3628
  191SLPC  H13B22048   1.877   4.953   5.692  3.5998  0.3544 -0.8406
  191SLPC  H13C22049   1.996   4.832   5.688  0.1372  1.5058 -0.7766
  191SLPC   C1422050   1.827   4.637   5.807  0.2071  0.0945  0.3033
  191SLPC  H14A22051   1.762   4.603   5.886 -0.5546  0.1917 -0.2745
  191SLPC  H14B22052   1.785   4.609   5.712  1.5666  0.9548 -0.5929
  191SLPC  H14C22053   1.926   4.594   5.815 -0.4879 -1.2579  2.1608
  191SLPC   C1522054   1.685   4.818   5.824 -0.4689  0.1677 -0.2616
  191SLPC  H15A22055   1.664   4.923   5.830  2.2799  0.7385  0.7413
  191SLPC  H15B22056   1.634   4.788   5.733 -0.2018  0.8933 -0.6587
  191SLPC  H15C22057   1.641   4.765   5.907  0.9042  1.1936  1.1907
  191SLPC   C1222058   1.905   4.834   5.944 -0.6626  0.4840  0.1964
  191SLPC  H12A22059   2.012   4.825   5.939 -0.8081 -1.2709 -0.1656
  191SLPC  H12B22060   1.873   4.779   6.031 -1.6147 -1.9797 -1.6026
  191SLPC   C1122061   1.885   4.978   5.991 -0.9616 -0.2004  0.1425
  191SLPC  H11A22062   1.950   5.005   6.077  0.6087  1.4985 -1.4777
  191SLPC  H11B22063   1.779   4.995   6.019 -0.8340 -0.2233  0.6519
  191SLPC     P22064   2.067   5.096   5.858 -0.1116 -0.1609  0.1525
  191SLPC   O1322065   2.142   4.969   5.842 -0.0909  0.4908 -0.1290
  191SLPC   O1422066   2.073   5.185   5.740 -0.0047 -0.0943  0.2714
  191SLPC   O1222067   1.919   5.071   5.889 -1.0115 -0.1817  0.1673
  191SLPC   O1122068   2.107   5.170   5.989 -0.7064  0.4087 -0.1617
  191SLPC    C122069   2.049   5.302   6.028 -0.3996  0.1783  0.3356
  191SLPC    HA22070   2.115   5.388   6.003 -1.9248  0.3611 -3.7396
  191SLPC    HB22071   1.959   5.313   5.964 -0.2615  3.1166  0.5165
  191SLPC    C222072   2.005   5.303   6.175 -0.2940 -0.3886 -0.1041
  191SLPC    HS22073   1.932   5.220   6.188 -1.2540  0.5034  0.4180
  191SLPC   O2122074   1.942   5.429   6.203 -0.3160  0.6948 -0.9012
  191SLPC   C2122075   1.823   5.441   6.162  0.3671  0.2478  0.1672
  191SLPC   O2222076   1.756   5.359   6.103  0.3126  0.1765 -0.1644
  191SLPC   C2222077   1.773   5.581   6.190 -0.2480  0.4017 -0.5855
  191SLPC   H2R22078   1.828   5.652   6.125  0.7001 -0.2120 -0.4680
  191SLPC   H2S22079   1.667   5.580   6.156 -0.8409 -2.3728  1.0812
  191SLPC    C322080   2.125   5.287   6.282 -0.2017 -0.1778  0.3718
  191SLPC    HX22081   2.215   5.353   6.283  0.8549 -1.5865  0.9457
  191SLPC    HY22082   2.172   5.192   6.250 -1.0700 -0.1092 -1.2436
  191SLPC   O3122083   2.073   5.258   6.416 -0.1911 -1.4405  0.3081
  191SLPC   C3122084   2.079   5.364   6.501 -0.1487  0.3179  0.0748
  191SLPC   O3222085   2.106   5.479   6.470 -0.3323 -0.0946 -0.3024
  191SLPC   C3222086   2.009   5.318   6.634 -0.3060  0.3473 -0.2170
  191SLPC   H2X22087   2.051   5.218   6.658 -1.3297 -0.5565 -1.9650
  191SLPC   H2Y22088   1.901   5.301   6.615 -0.9876  1.7733  1.9549
  191SLPC   C2322089   1.775   5.631   6.330 -0.5862  0.8610  0.1438
  191SLPC   H3R22090   1.781   5.741   6.347 -1.2107  0.8256  0.6346
  191SLPC   H3S22091   1.874   5.603   6.371 -0.0152  0.7755 -1.2396
  191SLPC   C2422092   1.672   5.564   6.420 -0.4833 -0.2495  0.5186
  191SLPC   H4R22093   1.694   5.456   6.430  0.0105 -0.1439  0.6001
  191SLPC   H4S22094   1.568   5.576   6.382  0.2059  0.0474 -1.4132
  191SLPC   C2522095   1.677   5.619   6.564 -0.0038 -0.1485 -0.2358
  191SLPC   H5R22096   1.658   5.728   6.571  0.5007 -0.0357 -0.5203
  191SLPC   H5S22097   1.777   5.594   6.605 -0.6182 -1.2080  0.6752
  191SLPC   C2622098   1.573   5.541   6.648  0.4398  0.0672  0.0950
  191SLPC   H6R22099   1.579   5.432   6.628  1.5065  0.0828  0.2274
  191SLPC   H6S22100   1.475   5.574   6.609  0.9374  0.1301 -1.1631
  191SLPC   C2722101   1.585   5.560   6.796 -0.0371  0.0431 -0.7298
  191SLPC   H7R22102   1.573   5.664   6.833  1.7352 -0.2500  0.8387
  191SLPC   H7S22103   1.685   5.522   6.829 -1.4203 -0.8398  2.9951
  191SLPC   C2822104   1.484   5.480   6.889  0.2460 -0.1762 -0.1950
  191SLPC   H8R22105   1.491   5.370   6.873  0.0646 -0.2906  0.5076
  191SLPC   H8S22106   1.378   5.500   6.862 -0.3632 -2.1367  0.5419
  191SLPC   C2922107   1.503   5.508   7.036  0.7457 -0.3073  0.0467
  191SLPC   H9R22108   1.576   5.444   7.087 -0.3064 -1.3165  0.3192
  191SLPC  C21022109   1.441   5.601   7.110  0.1560  0.1303 -0.1117
  191SLPC  H10R22110   1.436   5.601   7.220  0.3877  1.3603 -0.0927
  191SLPC  C21122111   1.338   5.705   7.063 -0.0319 -0.1440  0.0725
  191SLPC  H11R22112   1.390   5.772   6.991 -0.9413 -0.3743 -0.8410
  191SLPC  H11S22113   1.316   5.778   7.144  0.4082  2.2399 -1.8170
  191SLPC  C21222114   1.205   5.642   7.040  0.0972  0.6478 -0.6401
  191SLPC  H12R22115   1.170   5.567   7.112  0.9291  0.4018 -0.4847
  191SLPC  C21322116   1.127   5.662   6.928 -0.6817 -0.3504 -0.7676
  191SLPC  H13R22117   1.026   5.624   6.946 -0.3196  0.0315  2.8853
  191SLPC  C21422118   1.145   5.751   6.810 -0.2690 -0.0614 -0.1987
  191SLPC  H14R22119   1.239   5.810   6.826  0.3006 -0.8580 -0.5632
  191SLPC  H14S22120   1.059   5.821   6.806  0.4653  0.8510 -0.4863
  191SLPC  C21522121   1.181   5.669   6.679 -0.1796  0.2541  0.2022
  191SLPC  H15R22122   1.094   5.606   6.650  0.4802  0.4268 -2.3634
  191SLPC  H15S22123   1.265   5.602   6.707  1.4842  1.8547 -0.7883
  191SLPC  C21622124   1.213   5.765   6.561 -0.6991  0.2750  0.2200
  191SLPC  H16R22125   1.312   5.815   6.571  1.1369 -3.0152 -0.3746
  191SLPC  H16S22126   1.134   5.841   6.547 -0.9645  0.0645  0.5563
  191SLPC  C21722127   1.201   5.712   6.416  0.0985 -1.0803  0.3008
  191SLPC  H17R22128   1.225   5.792   6.343 -1.5528 -1.2339 -0.4526
  191SLPC  H17S22129   1.099   5.670   6.402 -0.8562  1.5378 -1.3486
  191SLPC  C21822130   1.292   5.596   6.379  1.1199 -0.3274 -0.5420
  191SLPC  H18R22131   1.396   5.635   6.377  1.9343 -2.3341  0.1020
  191SLPC  H18S22132   1.255   5.560   6.280 -1.2809  2.0862 -0.6465
  191SLPC  H18T22133   1.283   5.525   6.463 -0.9374 -0.1632 -0.5760
  191SLPC   C3322134   2.046   5.416   6.758 -0.4073 -0.5615  0.2782
  191SLPC   H3X22135   2.019   5.522   6.739 -4.0437 -0.9448  2.2638
  191SLPC   H3Y22136   2.154   5.420   6.782 -0.4920  1.0912  0.5233
  191SLPC   C3422137   1.951   5.386   6.873  0.4073  0.3762 -0.6314
  191SLPC   H4X22138   1.967   5.276   6.881  0.8768  0.4824 -0.0860
  191SLPC   H4Y22139   1.847   5.409   6.840  1.3323  2.7694 -2.1131
  191SLPC   C3522140   1.981   5.442   7.010 -0.1105  0.0851 -0.3192
  191SLPC   H5X22141   1.962   5.551   7.015 -0.8383 -0.0841  1.1738
  191SLPC   H5Y22142   2.084   5.412   7.039 -0.7675 -1.1716  0.8648
  191SLPC   C3622143   1.883   5.390   7.117 -0.6063  0.5026 -0.2793
  191SLPC   H6X22144   1.890   5.279   7.123  0.1233  0.6178  1.8262
  191SLPC   H6Y22145   1.779   5.417   7.088 -0.2381  1.1062 -1.0815
  191SLPC   C3722146   1.903   5.442   7.262  0.2156  0.7824 -0.3819
  191SLPC   H7X22147   1.816   5.421   7.328  0.4180  0.8601 -0.0878
  191SLPC   H7Y22148   1.905   5.553   7.262  3.4806  0.8000 -0.9401
  191SLPC   C3822149   2.025   5.389   7.330  0.2446  0.0229 -0.2902
  191SLPC   H8X22150   2.118   5.431   7.284  0.9726 -0.7251  0.4790
  191SLPC   H8Y22151   2.039   5.279   7.323  0.0370 -0.0266  0.0840
  191SLPC   C3922152   2.034   5.418   7.484 -0.5822 -0.2858 -0.3165
  191SLPC   H9X22153   2.113   5.352   7.525  1.5253  2.2775 -0.0016
  191SLPC   H9Y22154   1.933   5.416   7.530 -0.9394 -0.6736 -1.1013
  191SLPC  C31022155   2.092   5.561   7.509 -0.3108 -0.8323 -0.5538
  191SLPC  H10X22156   2.066   5.626   7.422 -1.2861 -0.1181  0.2389
  191SLPC  H10Y22157   2.202   5.564   7.521 -0.5969 -1.0140  3.2039
  191SLPC  C31122158   2.029   5.627   7.638 -0.1196 -0.6771  0.6519
  191SLPC  H11X22159   1.918   5.621   7.640 -0.2959  1.5638  0.3976
  191SLPC  H11Y22160   2.052   5.735   7.632 -0.0394 -0.6290  1.6579
  191SLPC  C31222161   2.070   5.566   7.774  0.8667  0.1158  0.1165
  191SLPC  H12X22162   2.179   5.582   7.791  1.3876 -3.4081  0.8656
  191SLPC  H12Y22163   2.059   5.457   7.761 -0.5452  0.0187  1.7907
  191SLPC  C31322164   1.982   5.613   7.888 -0.4319  0.1129  0.3786
  191SLPC  H13X22165   1.875   5.592   7.872 -0.2947 -1.6174  1.4666
  191SLPC  H13Y22166   2.024   5.713   7.913  0.4728 -0.5049  1.4056
  191SLPC  C31422167   1.999   5.524   8.015 -0.2426 -0.2359  0.9247
  191SLPC  H14X22168   2.107   5.526   8.041 -0.1868 -0.8566  0.7663
  191SLPC  H14Y22169   1.962   5.420   7.999 -0.2298 -0.1236  0.0965
  191SLPC  C31522170   1.933   5.596   8.135  0.0011  0.5149 -0.1629
  191SLPC  H15X22171   1.835   5.626   8.092 -0.2226  0.6700  0.4442
  191SLPC  H15Y22172   1.996   5.683   8.163  1.5874  0.4517 -3.1403
  191SLPC  C31622173   1.912   5.504   8.254  0.0006 -0.4336 -0.0457
  191SLPC  H16X22174   2.000   5.443   8.285 -0.5923 -1.5847 -0.5434
  191SLPC  H16Y22175   1.843   5.419   8.232 -2.5255  0.7405  2.7134
  191SLPC  C31722176   1.865   5.578   8.378  0.7520  0.6133 -0.6088
  191SLPC  H17X22177   1.851   5.508   8.463  2.2236  0.0251 -0.8181
  191SLPC  H17Y22178   1.766   5.625   8.359  0.1341  0.3491  1.6534
  191SLPC  C31822179   1.959   5.694   8.429  0.2920 -0.7251 -0.3557
  191SLPC  H18X22180   1.972   5.771   8.349  2.5051 -1.9399 -1.2549
  191SLPC  H18Y22181   2.062   5.662   8.455  0.1535 -0.5291  0.4504
  191SLPC  H18Z22182   1.908   5.733   8.520 -0.0705  1.8828 -1.5667
  192SLPC     N22183   2.280   0.257   6.263 -0.0265 -0.0296 -0.3548
  192SLPC   C1322184   2.228   0.359   6.157  0.6568  0.0716 -0.5969
  192SLPC  H13A22185   2.310   0.395   6.096  1.6695 -0.1795  0.5813
  192SLPC  H13B22186   2.158   0.305   6.096 -0.4626 -0.4602  1.0882
  192SLPC  H13C22187   2.177   0.440   6.206  3.8248  2.5621 -1.0443
  192SLPC   C1422188   2.365   0.159   6.184  0.7249 -0.2553  0.4106
  192SLPC  H14A22189   2.441   0.220   6.138 -0.1437 -0.9170 -2.0564
  192SLPC  H14B22190   2.415   0.082   6.240  0.1987 -0.8248  0.1094
  192SLPC  H14C22191   2.315   0.104   6.106 -1.1264  1.8078  0.0021
  192SLPC   C1522192   2.161   0.185   6.320  0.7684 -0.3005 -0.3852
  192SLPC  H15A22193   2.112   0.143   6.233  1.2629  1.9474 -1.8427
  192SLPC  H15B22194   2.181   0.112   6.397  0.8514  0.1381  0.0184
  192SLPC  H15C22195   2.096   0.256   6.370  0.5388  0.0519 -1.1760
  192SLPC   C1222196   2.353   0.336   6.373  0.2135  0.1777 -0.0287
  192SLPC  H12A22197   2.432   0.390   6.322 -0.5838  0.4734 -0.9903
  192SLPC  H12B22198   2.393   0.258   6.436 -3.6750 -1.6501  0.4719
  192SLPC   C1122199   2.258   0.431   6.468 -0.1442 -0.2867  0.0062
  192SLPC  H11A22200   2.337   0.491   6.518  1.5965 -1.8822 -0.7101
  192SLPC  H11B22201   2.203   0.356   6.529 -0.0596 -0.4581 -0.1297
  192SLPC     P22202   2.052   0.588   6.457  0.3288 -0.1393 -0.0037
  192SLPC   O1322203   2.037   0.717   6.375 -0.4896 -0.0150  0.5667
  192SLPC   O1422204   1.936   0.499   6.472  0.3867 -0.5304 -0.2037
  192SLPC   O1222205   2.174   0.509   6.397  0.0595 -0.0820  0.4666
  192SLPC   O1122206   2.099   0.625   6.599 -0.8899 -0.1779 -0.5658
  192SLPC    C122207   2.103   0.755   6.664  1.0973 -0.0492 -0.2554
  192SLPC    HA22208   2.052   0.835   6.605 -0.2541 -2.0246 -1.9169
  192SLPC    HB22209   2.044   0.751   6.758  1.3424  1.7721  0.0026
  192SLPC    C222210   2.243   0.792   6.685 -0.5687  0.9065 -0.3098
  192SLPC    HS22211   2.297   0.776   6.589 -2.1299 -0.6834 -0.9740
  192SLPC   O2122212   2.299   0.714   6.797  0.5802 -0.5593 -0.0401
  192SLPC   C2122213   2.409   0.651   6.771  0.9414  0.1733  1.0183
  192SLPC   O2222214   2.479   0.663   6.670  0.1617  0.6587 -0.3186
  192SLPC   C2222215   2.440   0.572   6.899  0.5405  0.1868  0.9032
  192SLPC   H2R22216   2.393   0.621   6.987 -2.7824 -2.0425  0.5675
  192SLPC   H2S22217   2.380   0.479   6.891  0.9978 -0.1819  1.6602
  192SLPC    C322218   2.245   0.947   6.715 -0.4953  0.7722  0.6966
  192SLPC    HX22219   2.222   1.000   6.621  0.7912  2.9377  1.5246
  192SLPC    HY22220   2.344   0.977   6.756 -1.5738  2.8342  1.9768
  192SLPC   O3122221   2.152   0.983   6.824 -0.3092 -0.4426  0.0049
  192SLPC   C3122222   2.126   1.111   6.830 -0.3358 -0.5461 -0.3621
  192SLPC   O3222223   2.168   1.195   6.754 -0.2196  0.5030  0.0301
  192SLPC   C3222224   2.043   1.141   6.946 -0.1835 -0.2507  0.8648
  192SLPC   H2X22225   1.941   1.157   6.906 -0.1847 -1.4752  0.3568
  192SLPC   H2Y22226   2.086   1.235   6.988  1.9561 -0.4853 -0.6702
  192SLPC   C2322227   2.583   0.538   6.917 -0.3642 -0.5942 -0.4377
  192SLPC   H3R22228   2.650   0.627   6.916 -0.3266 -0.6219 -0.3127
  192SLPC   H3S22229   2.621   0.486   6.827 -2.6112 -4.3797  0.6132
  192SLPC   C2422230   2.616   0.451   7.039 -0.7632 -0.1309  0.1690
  192SLPC   H4R22231   2.616   0.513   7.131 -2.5394 -0.8611  0.6968
  192SLPC   H4S22232   2.721   0.416   7.038  0.0027  2.0214 -0.8107
  192SLPC   C2522233   2.538   0.324   7.052 -0.2561  0.2378  0.0727
  192SLPC   H5R22234   2.537   0.271   6.954  0.0610 -1.3246  0.8934
  192SLPC   H5S22235   2.432   0.353   7.069 -0.4891 -0.2786 -0.4821
  192SLPC   C2622236   2.581   0.226   7.165  0.5702  0.3810 -0.1207
  192SLPC   H6R22237   2.685   0.187   7.160 -0.1316 -1.5562 -0.4486
  192SLPC   H6S22238   2.529   0.131   7.143 -1.0423  1.1203  0.3982
  192SLPC   C2722239   2.565   0.284   7.303  0.5364  0.2011  0.0337
  192SLPC   H7R22240   2.464   0.330   7.311  1.2484  1.7810  0.2286
  192SLPC   H7S22241   2.632   0.370   7.324 -2.0978  2.5893 -0.7037
  192SLPC   C2822242   2.571   0.174   7.414 -0.4296 -0.1416 -0.2597
  192SLPC   H8R22243   2.564   0.234   7.507 -1.0686  0.5179 -0.7200
  192SLPC   H8S22244   2.674   0.133   7.411  0.4267  1.8676 -0.0172
  192SLPC   C2922245   2.471   0.062   7.398  0.3045 -0.4992  0.1952
  192SLPC   H9R22246   2.486  -0.004   7.311 -1.8121  0.1321 -0.7109
  192SLPC  C21022247   2.359   0.041   7.466 -0.3347  0.4553  0.0268
  192SLPC  H10R22248   2.285  -0.031   7.427 -1.5598  2.0646 -0.7120
  192SLPC  C21122249   2.304   0.134   7.577  0.3538  0.2395 -0.0465
  192SLPC  H11R22250   2.360   0.229   7.590 -1.7021  1.2518  2.2382
  192SLPC  H11S22251   2.321   0.085   7.676 -0.9598  1.5590  0.8748
  192SLPC  C21222252   2.158   0.168   7.560  0.0613  0.2485  0.4971
  192SLPC  H12R22253   2.135   0.209   7.461  0.3446 -0.5028  0.1161
  192SLPC  C21322254   2.062   0.143   7.647  0.6597  0.0985  0.2627
  192SLPC  H13R22255   1.961   0.181   7.622  0.6979  0.3345  0.4626
  192SLPC  C21422256   2.068   0.075   7.773  0.5584  0.3257 -0.3427
  192SLPC  H14R22257   2.170   0.074   7.818 -0.3099  0.7282  1.7879
  192SLPC  H14S22258   2.050  -0.033   7.757  1.9609 -0.2699  1.7041
  192SLPC  C21522259   1.974   0.145   7.876  0.4602 -0.0846  0.3719
  192SLPC  H15R22260   1.877   0.155   7.823 -0.0329 -1.3836  0.9884
  192SLPC  H15S22261   2.004   0.250   7.899  0.4657 -0.1265  0.5619
  192SLPC  C21622262   1.955   0.073   8.005 -0.3614 -0.0246 -0.1943
  192SLPC  H16R22263   1.912  -0.022   7.967  0.9462 -0.5929 -0.3170
  192SLPC  H16S22264   1.882   0.121   8.074  0.9619  1.5490  0.1569
  192SLPC  C21722265   2.097   0.054   8.075  0.4222  0.0630  0.9392
  192SLPC  H17R22266   2.168  -0.009   8.016 -1.7769 -0.1877 -1.6662
  192SLPC  H17S22267   2.134   0.158   8.090 -0.7628  0.5025  0.8996
  192SLPC  C21822268   2.079  -0.021   8.206 -0.3088 -0.6055 -0.0248
  192SLPC  H18R22269   2.177  -0.037   8.256  0.2846  0.2276 -0.9182
  192SLPC  H18S22270   2.030  -0.119   8.184 -1.8789  0.3138 -0.8427
  192SLPC  H18T22271   2.003   0.027   8.271 -1.5729 -3.6741  0.9774
  192SLPC   C3322272   2.052   1.044   7.062  0.3430 -0.4364 -1.0835
  192SLPC   H3X22273   2.151   1.039   7.111 -0.4597  1.8625  0.9931
  192SLPC   H3Y22274   2.022   0.943   7.027 -0.8166 -0.9168  1.1010
  192SLPC   C3422275   1.958   1.084   7.177 -0.3063 -0.3223  0.1901
  192SLPC   H4X22276   1.856   1.094   7.133 -2.0436 -1.0602  3.6708
  192SLPC   H4Y22277   1.987   1.187   7.207 -0.6053  0.2187 -1.2811
  192SLPC   C3522278   1.959   0.994   7.297 -0.8944  0.1336  0.9876
  192SLPC   H5X22279   2.063   0.983   7.335 -0.4082  0.1452 -0.2776
  192SLPC   H5Y22280   1.941   0.887   7.272  2.9729 -0.6898  1.0317
  192SLPC   C3622281   1.869   1.050   7.405  0.3868  0.1512 -0.3866
  192SLPC   H6X22282   1.769   1.054   7.357  0.9480  1.8704 -1.5151
  192SLPC   H6Y22283   1.918   1.144   7.438  2.3164 -0.3750 -1.5194
  192SLPC   C3722284   1.861   0.950   7.519  0.0517 -0.3992 -0.0126
  192SLPC   H7X22285   1.967   0.943   7.552 -0.1466  0.3352  0.8130
  192SLPC   H7Y22286   1.833   0.852   7.474  2.2976  0.7236 -4.3173
  192SLPC   C3822287   1.774   0.986   7.645 -0.3269  1.4159  0.1651
  192SLPC   H8X22288   1.666   0.990   7.616 -0.0699  0.7076 -0.9481
  192SLPC   H8Y22289   1.804   1.085   7.685 -2.6840  1.7706  1.2607
  192SLPC   C3922290   1.787   0.877   7.761 -0.5322  0.6618  0.1473
  192SLPC   H9X22291   1.756   0.773   7.736 -0.9292  0.1065  2.6577
  192SLPC   H9Y22292   1.713   0.899   7.841 -2.3467 -0.0706 -1.2606
  192SLPC  C31022293   1.926   0.857   7.822 -0.5982 -0.4972 -0.0239
  192SLPC  H10X22294   1.935   0.951   7.882 -1.0993 -0.9407  0.7584
  192SLPC  H10Y22295   2.014   0.845   7.755 -0.8310 -0.0229 -0.4235
  192SLPC  C31122296   1.932   0.729   7.913  0.3317  0.1534  0.0735
  192SLPC  H11X22297   1.945   0.640   7.848  1.7217  0.2374  0.2078
  192SLPC  H11Y22298   1.840   0.717   7.975  0.7110  1.9371  1.0466
  192SLPC  C31222299   2.046   0.736   8.016  0.1017 -0.1642 -0.5253
  192SLPC  H12X22300   2.053   0.838   8.058 -2.9576  0.3149 -0.9350
  192SLPC  H12Y22301   2.142   0.715   7.964  1.1561  0.0122  1.2866
  192SLPC  C31322302   2.037   0.636   8.133  0.5253 -0.2726 -0.3996
  192SLPC  H13X22303   2.043   0.536   8.086  0.7988 -1.1610  1.4767
  192SLPC  H13Y22304   1.937   0.648   8.180  0.6987 -2.4034  0.6049
  192SLPC  C31422305   2.146   0.676   8.246 -0.3857  0.3543  0.6885
  192SLPC  H14X22306   2.144   0.787   8.244  2.7797  0.5519  2.0778
  192SLPC  H14Y22307   2.246   0.637   8.217  0.0065  0.9992  1.1356
  192SLPC  C31522308   2.121   0.623   8.393 -0.6722  0.2057  0.2557
  192SLPC  H15X22309   2.111   0.512   8.388  0.3423  0.0782  0.8474
  192SLPC  H15Y22310   2.027   0.668   8.433 -1.8765 -1.7508 -0.2374
  192SLPC  C31622311   2.231   0.647   8.501 -0.1669  0.5681  0.0157
  192SLPC  H16X22312   2.316   0.591   8.455 -1.2561  0.9462 -2.6581
  192SLPC  H16Y22313   2.203   0.609   8.601 -0.1375 -1.0340 -0.5511
  192SLPC  C31722314   2.273   0.800   8.516 -0.1741  0.6634  0.6254
  192SLPC  H17X22315   2.184   0.855   8.552 -1.9924 -1.0920 -0.9070
  192SLPC  H17Y22316   2.301   0.847   8.419  0.1469 -1.5280 -0.4069
  192SLPC  C31822317   2.379   0.820   8.620 -0.0505 -0.3102  0.1126
  192SLPC  H18X22318   2.341   0.786   8.719 -0.3451 -0.3328 -0.0079
  192SLPC  H18Y22319   2.398   0.930   8.622  0.3394 -0.3658  2.6748
  192SLPC  H18Z22320   2.472   0.763   8.600 -0.4510 -1.3587  1.1262
  193SOD    SOD22321   1.938   6.681  16.675 -0.0731  0.0730 -0.3873
  194SOD    SOD22322   4.452   0.690   1.091  0.1132 -0.2491 -0.6259
  195SOD    SOD22323   0.988   6.740   2.497  0.2354 -0.3087  0.1147
  196SOD    SOD22324   6.470   3.860   5.971  0.3852  0.0559  0.1002
  197SOD    SOD22325   3.068   2.183  14.486 -0.4780 -0.3029 -0.2338
  198SOD    SOD22326   2.709   2.708  11.240  0.3241  0.5127  0.2268
  199SOD    SOD22327   4.445   4.003   1.430 -0.0141  0.2121  0.1987
  200SOD    SOD22328   6.017   3.559  16.981 -0.0016  0.2312 -0.0831
  201SOD    SOD22329   6.676   5.918  13.089 -0.6281 -0.0361 -0.5983
  202SOD    SOD22330   5.599   0.836   5.868 -0.4298  0.2889  0.5968
  203SOD    SOD22331   5.897   4.811  10.581  0.2115  0.2130  0.0809
  204SOD    SOD22332   3.637   2.239   3.620 -1.0222 -0.3126  0.3249
  205SOD    SOD22333   2.773   0.912   6.370  0.3714  0.0677 -0.1513
  206SOD    SOD22334   1.244   1.245  11.608  0.0627 -0.1123  0.1423
  207SOD    SOD22335   5.185   1.236  11.349  0.2500 -0.0944 -0.7928
  208SOD    SOD22336   0.542   5.163   4.600  0.1871  0.1668  0.0417
  209SOD    SOD22337   1.637   4.660  11.500  0.1401  0.2062 -0.8195
  210SOD    SOD22338   0.428   6.221   3.685  0.3905  0.0217 -0.3280
  211SOD    SOD22339   4.758   6.702   5.948 -0.0081  0.4848  0.2355
  212SOD    SOD22340   0.364   5.186  11.197  0.0305  0.5334  0.4888
  213SOD    SOD22341   0.774   4.635   0.275 -0.2266  0.0167 -0.4922
  214SOD    SOD22342   5.698   6.300   1.851 -0.2483 -0.2423  0.2755
  215SOD    SOD22343   6.147   5.321   2.920 -0.2568  0.1179 -0.5635
  216SOD    SOD22344   1.517   6.674   1.753  0.6657  0.4737  0.2794
  217SOD    SOD22345   0.639   0.335   3.207 -0.4128 -0.2974  0.1416
  218SOD    SOD22346   0.868   0.556   3.622 -0.1942  0.1241 -0.0992
  219SOD    SOD22347   0.090   2.216   4.333 -0.0007  0.3161 -0.2522
  220SOD    SOD22348   2.505   1.712   2.855  0.1193  0.6000  0.2347
  221SOD    SOD22349   5.906   1.652  16.437 -0.0569  0.0353  0.0421
  222SOD    SOD22350   0.206   3.817   5.876 -0.2268 -0.1512  0.3249
  223SOD    SOD22351   2.353   4.295   1.777  0.1007 -0.3348 -0.1668
  224SOD    SOD22352   1.536   3.259  13.335 -0.4925  0.1062  0.0964
  225SOD    SOD22353   0.431   5.550   4.141  0.1585  0.1033  0.3421
  226SOD    SOD22354   5.613   0.170  11.458 -0.1202 -0.1945 -0.0845
  227SOD    SOD22355   1.362   5.484   0.621 -0.1871 -0.9377  0.8906
  228SOD    SOD22356   1.952   0.808   2.666 -0.5543  0.2067 -0.3046
  229SOD    SOD22357   6.759   4.417   0.321 -0.2375  0.4841 -0.3215
  230SOD    SOD22358   6.126   0.088   5.953  0.1202 -0.4616  0.2273
  231SOD    SOD22359   0.050   6.759  14.612 -0.3385  0.2940 -0.2766
  232SOD    SOD22360   3.245   3.370   2.648 -0.2601 -0.4569  0.4963
  233SOD    SOD22361   5.274   1.684  15.347  0.0104  0.1831  0.1740
  234SOD    SOD22362   5.836   3.897   3.576 -0.7270 -0.5385  0.0136
  235SOD    SOD22363   6.698   2.722  17.067  0.1176 -0.4197  0.1245
  236SOD    SOD22364   1.892   1.862   5.647 -0.0689 -0.5614  0.3699
  237SOD    SOD22365   5.161   1.193  16.843  0.4281  0.9229 -0.0450
  238SOD    SOD22366   4.407   3.343   2.238 -0.0200  0.2455  0.0775
  239SOD    SOD22367   4.710   1.135   2.475  0.1873  0.0653  0.1082
  240SOD    SOD22368   1.920   4.200   3.716 -0.1858  0.4861 -0.0553
  241SOD    SOD22369   5.116   3.591   3.883  0.2651 -0.4967  0.2150
  242SOD    SOD22370   1.344   3.159  10.923  0.2427 -0.2783  0.3964
  243SOD    SOD22371   3.591   4.996   2.050  0.1170 -0.2549 -0.1167
  244SOD    SOD22372   2.073   3.307  15.344 -0.0768  0.1031 -0.5839
  245SOD    SOD22373   4.425   5.382   5.391  0.0788  0.2161  0.1903
  246SOD    SOD22374   2.892   3.426   1.825  0.3448 -0.8783  0.0438
  247SOD    SOD22375   6.150   5.539  15.595 -0.2378  0.1749 -0.6677
  248SOD    SOD22376   0.532   6.740  10.838  0.2177 -0.5967 -0.0597
  249SOD    SOD22377   3.700   1.809  11.672 -0.2438  0.2627  0.2912
  250SOD    SOD22378   3.503   3.014  11.541 -0.6845 -0.4095  0.0533
  251SOD    SOD22379   3.517   6.137  15.388 -0.3019 -0.0250  0.6656
  252SOD    SOD22380   3.535   3.014  11.866  0.4613  0.3329  0.1680
  253SOD    SOD22381   5.206   4.244  15.368  0.8380  0.3231 -0.1092
  254SOD    SOD22382   3.627   5.488   4.900 -0.6529 -0.0808  0.4471
  255SOD    SOD22383   2.421   1.630  12.238  0.3253 -0.0150 -0.7140
  256SOD    SOD22384   3.282   4.256  12.308  0.2172 -0.2561  0.0904
  257SOD    SOD22385   6.169   6.210  12.856  0.1929 -0.2820  0.2073
  258SOD    SOD22386   3.398   2.572   3.059 -0.3474  0.3940  0.0755
  259SOD    SOD22387   5.353   2.759  11.579  0.1128  0.4044  0.7668
  260SOD    SOD22388   5.535   1.513  12.599  0.1322  0.3465  0.2416
  261SOD    SOD22389   6.233   0.156  10.730  0.7040 -0.2689  0.2102
  262SOD    SOD22390   5.317   3.743   6.052 -0.4668  0.0313  0.5198
  263SOD    SOD22391   2.862   3.174   4.327 -0.1630 -0.2553 -0.6063
  264SOD    SOD22392   4.455   0.711  15.433  0.6728 -0.1396 -0.0319
  265SOD    SOD22393   1.387   3.389  16.991 -0.6674 -0.3012 -0.4653
  266CLA    CLA22394   4.288   4.089  12.209  0.0418 -0.0077  0.1152
  267CLA    CLA22395   2.996   2.305   4.062  0.5096  0.5583 -0.3521
  268CLA    CLA22396   3.292   0.581   1.028  0.1988  0.1750 -0.0078
  269CLA    CLA22397   2.373   2.100   0.046 -0.2318 -0.2634  0.0569
  270CLA    CLA22398   3.117   3.194   2.193 -0.1377  0.4431  0.1099
  271CLA    CLA22399   3.300   5.182   4.174 -0.2439 -0.0745 -0.3449
  272CLA    CLA22400   6.671   2.766   3.485 -0.3073 -0.2813 -0.4597
  273CLA    CLA22401   3.558   3.047   3.136 -0.0746  0.0351  0.2692
  274CLA    CLA22402   0.501   4.280   1.144  0.1668 -0.4471  0.2944
  275CLA    CLA22403   0.349   4.017   2.143 -0.1596  0.1947  0.1306
  276CLA    CLA22404   2.172   1.310   2.892 -0.1929 -0.4893 -0.4205
  277CLA    CLA22405   2.097   4.330   1.317  0.2163 -0.3870  0.4586
  278CLA    CLA22406   6.014   2.574  15.619 -0.6696 -0.1019 -0.1994
  279CLA    CLA22407   3.900   0.340   0.624 -0.6300 -0.0685  0.3760
  280CLA    CLA22408   5.183   4.528   2.081  0.4703 -0.1398  0.0284
  281CLA    CLA22409   6.510   5.965  15.210  0.4095 -0.7972  0.4270
  282CLA    CLA22410   3.962   2.573   2.215 -0.0786  0.2126  0.3106
  283CLA    CLA22411   2.920   1.229   2.396 -0.1171  0.0674  0.1172
  284CLA    CLA22412   3.101   4.975   2.528  0.0244 -0.3426 -0.0480
  285CLA    CLA22413   5.080   6.374   5.907 -1.0471  0.4100  0.0128
  286CLA    CLA22414   3.465   0.748   5.893 -0.0460 -0.1705 -0.1689
  287CLA    CLA22415   4.772   2.174  11.206  0.0451  0.5998  0.4706
  288CLA    CLA22416   0.230   5.909   3.444 -0.1013  0.0724  0.1688
  289CLA    CLA22417   2.153   1.632  14.276  0.1571 -0.2410  0.1214
  290CLA    CLA22418   2.279   4.046  12.834 -0.1142 -0.2564 -0.0914
  291CLA    CLA22419   1.654   5.707  14.874  0.1665 -0.1929 -0.3094
  292CLA    CLA22420   3.477   6.073  14.902 -0.2347 -0.1329  0.3372
  293CLA    CLA22421   1.492   0.188   3.481  0.0718 -0.0595 -0.3252
  294CLA    CLA22422   4.592   0.760  15.012  0.0483 -0.2874 -0.3446
  295CLA    CLA22423   1.978   2.099  13.396 -0.1162  0.0212 -0.0757
  296CLA    CLA22424   1.691   5.386   1.826  0.3113 -0.3464  0.0807
  297CLA    CLA22425   4.796   3.536   4.277  0.6216 -0.1601  0.0835
  298CLA    CLA22426   2.901   3.156  11.844  0.2078  0.0084 -0.0455
  299CLA    CLA22427   0.128   0.311   4.871 -0.1534  0.3504 -0.2441
  300CLA    CLA22428   5.559   0.829   1.751  0.4151  0.4652 -0.1636
  301CLA    CLA22429   4.535   2.138  16.591  0.4866 -0.5315  0.1719
  302CLA    CLA22430   6.241   5.194   2.313 -0.1248 -0.1035 -0.6686
  303CLA    CLA22431   2.144   5.442  13.447 -0.0698 -0.3271  0.3050
  304CLA    CLA22432   2.737   6.139   2.195  0.0081 -0.0356 -0.0289
  305CLA    CLA22433   3.983   4.615  12.342 -0.3445 -0.2054 -0.0186
  306CLA    CLA22434   0.130   2.852  16.172 -0.2149 -0.2369 -0.2895
  307CLA    CLA22435   1.942   1.641  16.566 -0.2955  0.0670  0.3412
  308CLA    CLA22436   1.503   1.075  12.015 -0.0604 -0.0853  0.2117
  309CLA    CLA22437   5.085   6.234  13.353 -0.0751  0.0486  0.0776
  310CLA    CLA22438   0.035   4.954   2.673  0.1399 -0.1826  0.0820
  311CLA    CLA22439   2.185   3.863   3.858  0.1604 -0.2002  0.0778
  312CLA    CLA22440   0.662   0.175   3.878 -0.3273 -0.2535 -0.0376
  313CLA    CLA22441   0.633   4.021  14.331  0.3148  0.1679  0.2192
  314CLA    CLA22442   6.774   1.104   1.571  0.3892  0.2239  0.1760
  315CLA    CLA22443   4.185   0.282  15.574 -0.5185 -0.0510  0.0848
  316CLA    CLA22444   1.190   6.540  14.165  0.0447  0.0785 -0.1266
  317CLA    CLA22445   4.500   0.473  16.360 -0.2827  0.1896  0.6348
  318CLA    CLA22446   0.241   0.173  11.938  0.1832 -0.2768  0.4747
  319TIP3   OH222447   3.148   4.344  14.518  0.3816  0.2513  0.1023
  319TIP3    H122448   3.164   4.418  14.577 -2.2934 -0.0186  1.3370
  319TIP3    H222449   3.131   4.270  14.577  1.0643 -0.8973 -1.0919
  320TIP3   OH222450   4.268   0.488  11.941 -0.4405  0.3259 -0.0507
  320TIP3    H122451   4.303   0.457  12.024  0.3572 -1.7353 -1.0953
  320TIP3    H222452   4.186   0.440  11.930 -0.8627  1.0566 -0.1848
  321TIP3   OH222453   0.723   0.985  13.340  1.0176  0.1407 -0.5564
  321TIP3    H122454   0.777   1.001  13.417  2.9027 -1.5182 -1.4612
  321TIP3    H222455   0.753   0.901  13.306 -1.3009 -0.2648 -1.8465
  322TIP3   OH222456   2.743   2.686  15.625  0.4170  0.4574  0.2764
  322TIP3    H122457   2.772   2.756  15.684  1.4662  0.4723 -0.2322
  322TIP3    H222458   2.818   2.627  15.620 -0.3028 -0.4763  0.3418
  323TIP3   OH222459   6.195   1.886  12.081  0.2775  0.8439 -0.7996
  323TIP3    H122460   6.187   1.838  11.998 -1.5714 -0.9268  0.2855
  323TIP3    H222461   6.109   1.876  12.123  0.7155  2.8399  0.7544
  324TIP3   OH222462   6.429   3.826  16.417  0.0580 -0.1944  0.3789
  324TIP3    H122463   6.467   3.801  16.502  1.9781  1.1520 -0.0055
  324TIP3    H222464   6.505   3.838  16.360 -1.0442  1.3096 -0.8407
  325TIP3   OH222465   0.639   3.578  12.555 -0.5319 -0.1529  0.1070
  325TIP3    H122466   0.644   3.671  12.579 -1.7332 -0.0821  0.1611
  325TIP3    H222467   0.600   3.536  12.631 -3.0530 -0.1464 -1.0722
  326TIP3   OH222468   2.602   4.446   6.010  0.0970 -0.3363 -0.3836
  326TIP3    H122469   2.622   4.479   6.097  0.3728 -0.7503 -0.2887
  326TIP3    H222470   2.548   4.369   6.025 -0.0919 -0.2495 -0.5907
  327TIP3   OH222471   2.277   1.174  12.313  0.0160 -0.2152  0.2014
  327TIP3    H122472   2.345   1.242  12.319  1.8059 -1.6978 -1.6794
  327TIP3    H222473   2.242   1.167  12.402  1.2506  1.6531  0.9083
  328TIP3   OH222474   2.168   5.705  15.379 -0.1552  0.2129 -0.4027
  328TIP3    H122475   2.076   5.733  15.382 -0.2213  0.5846 -3.0388
  328TIP3    H222476   2.204   5.751  15.303  1.3872 -2.2150 -1.2599
  329TIP3   OH222477   5.172   2.904  15.702  0.1070 -0.6129  0.4680
  329TIP3    H122478   5.205   2.903  15.792  0.0720 -0.4868  0.4817
  329TIP3    H222479   5.133   2.990  15.692 -2.6707 -1.6297  1.3492
  330TIP3   OH222480   4.453   6.361   0.604 -0.3955 -0.5169  0.2095
  330TIP3    H122481   4.408   6.325   0.681  0.2732  0.6490  1.1699
  330TIP3    H222482   4.525   6.413   0.640  0.9988 -1.3454 -1.2664
  331TIP3   OH222483   4.571   6.120   3.363  0.2081  1.0762  0.1420
  331TIP3    H122484   4.591   6.170   3.442  0.3741 -0.0296  0.8236
  331TIP3    H222485   4.654   6.115   3.316  0.7141 -0.3321  1.1256
  332TIP3   OH222486   0.233   6.363   1.337  0.3695  0.1988 -0.2677
  332TIP3    H122487   0.252   6.298   1.404  0.0634 -1.6259 -1.8694
  332TIP3    H222488   0.318   6.382   1.298  0.4104  0.5341 -0.0233
  333TIP3   OH222489   2.516   2.682  14.240 -0.1026  0.4006  0.2538
  333TIP3    H122490   2.537   2.720  14.325  0.3268  1.2402 -0.2284
  333TIP3    H222491   2.471   2.751  14.193  0.3935  0.2105 -0.5096
  334TIP3   OH222492   0.272   3.771  15.780  0.1198 -0.2887  0.5481
  334TIP3    H122493   0.203   3.746  15.719 -0.5000  2.4542 -0.0168
  334TIP3    H222494   0.230   3.767  15.866  0.3625 -2.0853  0.6100
  335TIP3   OH222495   6.248   3.254   1.425  0.0497 -0.6301  0.3443
  335TIP3    H122496   6.291   3.329   1.384 -1.3864  0.7977  1.3521
  335TIP3    H222497   6.219   3.199   1.352 -0.6970  0.8395 -0.4871
  336TIP3   OH222498   0.963   6.611   4.873  0.0764 -0.4442  0.4394
  336TIP3    H122499   0.889   6.655   4.914 -0.2328 -0.5865  0.0306
  336TIP3    H222500   0.947   6.617   4.779  1.9728  1.9863  0.1733
  337TIP3   OH222501   4.137   0.679  11.719 -0.7204  0.0089 -0.0151
  337TIP3    H122502   4.150   0.634  11.802  0.7160  0.1871 -0.1230
  337TIP3    H222503   4.063   0.737  11.735 -1.1042 -0.6848  0.8226
  338TIP3   OH222504   2.244   2.308   4.392 -0.2942 -0.1965  1.1348
  338TIP3    H122505   2.236   2.382   4.332 -1.5358 -0.9033  0.3674
  338TIP3    H222506   2.317   2.257   4.358  0.1850  0.3537  1.3185
  339TIP3   OH222507   3.817   0.587   3.857 -0.7012 -0.3858  0.5239
  339TIP3    H122508   3.854   0.597   3.945 -0.6447  1.5993  0.3302
  339TIP3    H222509   3.746   0.524   3.867 -0.5776 -0.3204  1.9583
  340TIP3   OH222510   0.129   4.963  12.269  0.3238 -0.2407 -0.2362
  340TIP3    H122511   0.144   4.890  12.329  1.6871  0.1161 -0.1302
  340TIP3    H222512   0.182   5.035  12.303  0.8165  0.0998 -1.6236
  341TIP3   OH222513   0.944   2.257  11.578  0.7451 -0.0590  0.0383
  341TIP3    H122514   0.974   2.220  11.495  3.7072  0.4164  0.7607
  341TIP3    H222515   0.965   2.350  11.571 -2.1613  0.6841  0.0836
  342TIP3   OH222516   2.715   6.218  12.111 -0.0942  0.0128 -0.2460
  342TIP3    H122517   2.689   6.258  12.028  0.9787 -1.1921 -1.2125
  342TIP3    H222518   2.653   6.252  12.175 -0.8914  1.0520 -1.5258
  343TIP3   OH222519   0.862   4.159  13.589  0.2079 -0.1876  0.1578
  343TIP3    H122520   0.871   4.077  13.542 -1.3493 -0.8647  0.9576
  343TIP3    H222521   0.951   4.181  13.618  0.7774 -1.0823 -0.8602
  344TIP3   OH222522   1.561   3.683  13.509 -0.3293  0.0282  0.5401
  344TIP3    H122523   1.572   3.766  13.554  2.0274 -1.0432  2.1285
  344TIP3    H222524   1.476   3.690  13.466 -0.7867  2.7173  1.7018
  345TIP3   OH222525   1.332   2.321   3.400  0.4298 -0.0181 -0.5339
  345TIP3    H122526   1.301   2.378   3.470  0.4870 -2.3696  1.5803
  345TIP3    H222527   1.254   2.273   3.372  0.3532  1.1040 -2.3552
  346TIP3   OH222528   1.695   0.275  16.744  0.5453 -0.2596  0.1196
  346TIP3    H122529   1.605   0.306  16.748  0.6371 -0.0926  0.8869
  346TIP3    H222530   1.738   0.314  16.820  0.9804 -1.2673  0.3984
  347TIP3   OH222531   3.439   5.372   0.761 -0.4411  0.0451 -0.2674
  347TIP3    H122532   3.458   5.348   0.851 -0.2921  1.1010 -0.0007
  347TIP3    H222533   3.362   5.429   0.766 -1.3264 -1.0444 -0.9621
  348TIP3   OH222534   5.075   2.802  11.962  0.0500  0.5589  1.1545
  348TIP3    H122535   5.058   2.719  12.007  1.1518 -0.4310 -0.1811
  348TIP3    H222536   4.989   2.845  11.957 -0.5221 -0.4589  1.8999
  349TIP3   OH222537   0.382   0.948  16.289  0.3942 -0.0613  0.1135
  349TIP3    H122538   0.426   1.019  16.243  1.9642 -1.8744 -1.3535
  349TIP3    H222539   0.302   0.933  16.240  0.5713  0.0058 -0.1978
  350TIP3   OH222540   0.884   0.339   3.219  0.3645  0.4360  0.2366
  350TIP3    H122541   0.932   0.382   3.147  0.5840  0.8688  0.6363
  350TIP3    H222542   0.946   0.274   3.252  0.5667  0.7853  0.5527
  351TIP3   OH222543   4.814   3.982  15.834  0.0829 -0.1855  0.1157
  351TIP3    H122544   4.787   3.892  15.816 -2.1446  0.7535 -1.6689
  351TIP3    H222545   4.740   4.022  15.879 -0.0249  1.4104 -1.3607
  352TIP3   OH222546   3.522   4.048   0.008 -0.6360  0.1266 -0.2341
  352TIP3    H122547   3.436   4.011   0.027 -0.2654 -0.7762 -0.2616
  352TIP3    H222548   3.583   3.985   0.047  0.0271  0.3826 -0.8596
  353TIP3   OH222549   5.613   6.722   4.595 -0.3098 -0.3337 -0.2258
  353TIP3    H122550   5.539   6.776   4.567  0.1711 -0.7700 -2.5045
  353TIP3    H222551   5.625   6.745   4.687 -1.6240  1.6721 -0.4773
  354TIP3   OH222552   5.832   4.170   3.230 -0.0893 -0.1008 -0.3234
  354TIP3    H122553   5.913   4.127   3.202  0.4851  0.8259 -0.1255
  354TIP3    H222554   5.860   4.256   3.261 -1.3384  0.9267 -1.8797
  355TIP3   OH222555   4.038   5.124  13.308  0.0130  0.6297 -0.1519
  355TIP3    H122556   4.095   5.115  13.232  0.4142 -0.3335  0.2546
  355TIP3    H222557   3.953   5.090  13.279  0.9423 -2.7047  0.7023
  356TIP3   OH222558   4.491   0.515  13.447 -0.6132 -0.1122 -0.1309
  356TIP3    H122559   4.566   0.506  13.388 -0.4689 -1.1341  0.1846
  356TIP3    H222560   4.521   0.477  13.530 -0.5804  1.9046  0.8501
  357TIP3   OH222561   5.570   6.431   5.483  0.2168  0.1493  0.0355
  357TIP3    H122562   5.501   6.380   5.525 -0.4075  0.5432 -0.4952
  357TIP3    H222563   5.524   6.502   5.439  0.8495 -0.2533 -1.3260
  358TIP3   OH222564   4.823   0.203  15.623 -0.1391  0.0913 -0.1270
  358TIP3    H122565   4.755   0.256  15.665  0.8904  0.7347  0.8039
  358TIP3    H222566   4.788   0.114  15.623 -0.2677  0.0818  2.0178
  359TIP3   OH222567   4.664   4.778  16.882  0.2263 -0.1314 -0.2869
  359TIP3    H122568   4.622   4.719  16.944  0.3791  0.5319  0.4640
  359TIP3    H222569   4.756   4.754  16.884  0.1388 -0.5283 -0.7433
  360TIP3   OH222570   3.926   4.624   3.169  0.2614 -0.4298 -0.2478
  360TIP3    H122571   3.880   4.618   3.253 -3.8571 -0.7769 -2.2455
  360TIP3    H222572   3.997   4.685   3.184 -0.5597 -0.1432  3.3501
  361TIP3   OH222573   6.538   3.254  10.377 -0.2444 -0.3354 -0.1912
  361TIP3    H122574   6.444   3.259  10.399 -0.3538 -0.0852 -0.7035
  361TIP3    H222575   6.540   3.249  10.281  0.2121 -1.7487 -0.1279
  362TIP3   OH222576   0.829   2.868   3.678  0.3313  0.4390 -0.2072
  362TIP3    H122577   0.893   2.813   3.723  0.5217  1.1752  0.4528
  362TIP3    H222578   0.746   2.848   3.721  0.6733  1.8898  1.2466
  363TIP3   OH222579   4.222   1.399   2.128  0.1139  0.4165  0.1976
  363TIP3    H122580   4.233   1.339   2.202  0.1356  0.9517  0.6294
  363TIP3    H222581   4.286   1.369   2.063  2.1397  1.6737  1.4975
  364TIP3   OH222582   4.688   0.292  12.635  0.6645 -0.2397 -0.2907
  364TIP3    H122583   4.714   0.216  12.583  3.0645  0.9895 -0.9956
  364TIP3    H222584   4.678   0.363  12.571 -1.7219  0.0934  0.3250
  365TIP3   OH222585   3.476   2.459   2.141  0.1944  0.1443  0.0773
  365TIP3    H122586   3.447   2.546   2.115  0.2174 -0.3332 -1.6561
  365TIP3    H222587   3.549   2.439   2.083 -0.0432 -1.1678  0.1813
  366TIP3   OH222588   2.131   2.016  16.939 -0.1155  0.0624  0.2794
  366TIP3    H122589   2.125   2.107  16.966  1.2778 -0.2696  1.8741
  366TIP3    H222590   2.160   2.020  16.848  2.1575  1.2500  0.9747
  367TIP3   OH222591   6.453   5.283  14.258  0.6088 -0.1536 -0.0642
  367TIP3    H122592   6.464   5.369  14.299  0.1716 -0.4188  0.6262
  367TIP3    H222593   6.535   5.237  14.276  0.6503 -0.0568 -0.0069
  368TIP3   OH222594   6.246   2.112  11.899  0.0806  0.7862 -0.4597
  368TIP3    H122595   6.159   2.118  11.859  0.7391 -1.5751 -2.4411
  368TIP3    H222596   6.233   2.056  11.975 -0.0425 -0.0142 -1.0658
  369TIP3   OH222597   4.034   6.271   0.122 -0.2976 -0.1038  0.6162
  369TIP3    H122598   3.948   6.312   0.123 -0.2223  0.0389  1.4777
  369TIP3    H222599   4.026   6.201   0.057 -0.2293  1.6379 -1.3869
  370TIP3   OH222600   5.726   4.118   5.624  0.1465 -0.2079  0.0373
  370TIP3    H122601   5.678   4.035   5.634  0.7178 -0.9043 -2.2743
  370TIP3    H222602   5.692   4.174   5.693 -2.3044 -1.4548 -0.0519
  371TIP3   OH222603   2.574   2.519  15.467 -0.0756 -0.6752  0.0541
  371TIP3    H122604   2.543   2.555  15.384  0.1995 -1.0926 -0.2307
  371TIP3    H222605   2.620   2.591  15.509  1.0768 -0.8705 -0.8244
  372TIP3   OH222606   4.292   4.989  13.941 -0.3587  0.0263  0.4133
  372TIP3    H122607   4.355   4.956  13.877 -1.3032 -2.4253  0.6452
  372TIP3    H222608   4.301   4.930  14.016 -1.8075  0.6094  1.0823
  373TIP3   OH222609   1.752   5.117  11.405  0.1602  0.1032  0.2952
  373TIP3    H122610   1.763   5.185  11.472 -2.3311 -0.3732  1.3091
  373TIP3    H222611   1.778   5.159  11.323  2.2056  1.0574  1.3453
  374TIP3   OH222612   6.811   1.323  15.364  0.2796 -0.1020 -0.1100
  374TIP3    H122613   6.889   1.359  15.406 -0.0166  0.7528 -0.2606
  374TIP3    H222614   6.744   1.390  15.378 -0.0014 -0.0983 -1.3785
  375TIP3   OH222615   3.891   6.245   0.515  0.5149 -0.8100 -0.5134
  375TIP3    H122616   3.869   6.153   0.532 -0.0881 -0.7074 -0.7139
  375TIP3    H222617   3.973   6.241   0.467  0.7986 -1.2186 -0.0107
  376TIP3   OH222618   6.273   1.992   0.818  0.0842  0.0759 -0.3965
  376TIP3    H122619   6.225   1.910   0.825  1.8386 -1.1487 -1.7310
  376TIP3    H222620   6.280   2.008   0.724  1.0421  0.9537 -0.1958
  377TIP3   OH222621   6.722   4.683  14.758 -0.0299 -0.3484  0.0016
  377TIP3    H122622   6.730   4.717  14.669  1.0308  1.1494  0.6198
  377TIP3    H222623   6.669   4.748  14.804  1.4922  0.2205  1.0481
  378TIP3   OH222624   5.913   1.192   0.935 -0.2809  0.0831  0.2760
  378TIP3    H122625   5.925   1.280   0.898  0.9046 -0.1674  0.0471
  378TIP3    H222626   5.857   1.148   0.871 -0.5245  0.5268  0.1750
  379TIP3   OH222627   0.408   0.709  15.527  0.1229  0.4813  0.0088
  379TIP3    H122628   0.338   0.689  15.589 -0.7357  1.7299 -0.5184
  379TIP3    H222629   0.382   0.667  15.446 -0.0978  1.0754 -0.2297
  380TIP3   OH222630   1.764   4.893  16.696 -0.3486  0.6896  0.3226
  380TIP3    H122631   1.815   4.939  16.630  0.2812  0.8740  0.9232
  380TIP3    H222632   1.697   4.957  16.723  0.4452  1.2421  1.0639
  381TIP3   OH222633   5.714   4.162  11.358 -0.0342  0.3308  0.1816
  381TIP3    H122634   5.774   4.106  11.309  0.4322  1.3893 -0.4831
  381TIP3    H222635   5.713   4.245  11.310 -1.2044  0.6920  0.7848
  382TIP3   OH222636   4.661   3.734   2.544  0.1310 -0.0042  0.5311
  382TIP3    H122637   4.722   3.787   2.596  0.6449  1.0696 -1.0553
  382TIP3    H222638   4.718   3.680   2.489 -0.2471  1.2691 -1.2300
  383TIP3   OH222639   3.299   3.356   3.728 -0.5673 -0.0286 -0.2877
  383TIP3    H122640   3.372   3.330   3.673 -0.9564 -2.1399  0.1129
  383TIP3    H222641   3.338   3.377   3.813 -0.3529 -0.3654 -0.3046
  384TIP3   OH222642   6.546   0.883   1.540  0.4530  0.3127 -0.3521
  384TIP3    H122643   6.553   0.824   1.615  0.4998  2.1114  1.1220
  384TIP3    H222644   6.605   0.956   1.561  2.3958 -0.2307 -3.2783
  385TIP3   OH222645   5.891   1.813  12.072 -0.0000  0.3422 -0.4230
  385TIP3    H122646   5.798   1.797  12.087  0.1306  1.4314  1.9028
  385TIP3    H222647   5.928   1.726  12.055 -0.8187 -0.7119  2.6388
  386TIP3   OH222648   5.530   3.892  13.338 -0.1427 -0.4504 -0.4588
  386TIP3    H122649   5.558   3.977  13.302 -2.7286  0.0197 -1.5518
  386TIP3    H222650   5.600   3.832  13.311  1.3908  1.1512 -0.2984
  387TIP3   OH222651   3.949   4.779   6.004 -0.2634 -0.3114 -0.2424
  387TIP3    H122652   4.042   4.754   6.013  0.1902  0.2035 -2.6334
  387TIP3    H222653   3.903   4.696   5.994 -0.0368 -0.5615  0.7274
  388TIP3   OH222654   2.095   0.003   4.651  0.0157 -0.0659  0.5617
  388TIP3    H122655   2.113   0.071   4.587 -0.1933  2.0279  2.5795
  388TIP3    H222656   2.180  -0.016   4.691 -0.4079  1.8358  2.5585
  389TIP3   OH222657   4.573   3.040  15.643  0.0454 -0.1077 -0.3096
  389TIP3    H122658   4.534   2.965  15.688  1.2803 -0.7818 -0.3250
  389TIP3    H222659   4.547   3.116  15.695  0.4340 -0.7540  0.8402
  390TIP3   OH222660   0.482   5.438   3.310  0.1030 -0.2477  0.1808
  390TIP3    H122661   0.389   5.419   3.297  0.4626 -3.0302  0.9561
  390TIP3    H222662   0.498   5.517   3.258 -2.4489 -0.3087 -0.8459
  391TIP3   OH222663   3.336   5.746  15.207  0.1103  0.4880  0.1459
  391TIP3    H122664   3.253   5.700  15.219 -0.7506  1.6448 -1.0547
  391TIP3    H222665   3.376   5.748  15.294  0.4860 -2.9624  0.2080
  392TIP3   OH222666   5.201   3.513  16.287  0.4203  0.2065  0.4113
  392TIP3    H122667   5.120   3.468  16.259  1.1359 -1.3986  0.7965
  392TIP3    H222668   5.237   3.549  16.206 -0.2146  0.1549  0.0928
  393TIP3   OH222669   1.547   5.720  11.262  0.0013  0.1783 -0.3099
  393TIP3    H122670   1.573   5.791  11.204  0.4072  1.4199  1.3072
  393TIP3    H222671   1.627   5.696  11.310 -0.4371 -0.3866  0.1699
  394TIP3   OH222672   5.727   2.776  13.158  0.1595 -0.0168  0.3191
  394TIP3    H122673   5.764   2.831  13.228 -1.2235  0.4064  0.7542
  394TIP3    H222674   5.802   2.751  13.105  0.8471  2.5240 -0.0426
  395TIP3   OH222675   6.745   5.832   4.011 -0.3483  0.0191  0.2097
  395TIP3    H122676   6.775   5.911   4.055 -0.5398  0.0333  0.3127
  395TIP3    H222677   6.669   5.802   4.061 -1.3457  0.7325 -0.8139
  396TIP3   OH222678   2.553   1.192   5.162  0.0347 -0.3108 -0.5700
  396TIP3    H122679   2.558   1.281   5.197  1.5249 -0.4207 -0.4197
  396TIP3    H222680   2.532   1.204   5.069  0.8967  0.2481 -0.7037
  397TIP3   OH222681   2.289   6.175  13.696  0.0569  0.3578 -0.4625
  397TIP3    H122682   2.256   6.180  13.786 -0.4194 -1.8808 -0.4742
  397TIP3    H222683   2.251   6.251  13.652  0.2014  1.4270  1.1809
  398TIP3   OH222684   5.984   5.015  12.478 -0.4397  0.3742  0.2107
  398TIP3    H122685   5.984   4.970  12.393 -0.1319  0.8885 -0.0683
  398TIP3    H222686   6.077   5.031  12.496 -0.4520 -0.4087  1.0146
  399TIP3   OH222687   0.875   2.252  14.925 -0.1397  0.3320 -0.6097
  399TIP3    H122688   0.947   2.314  14.914  1.6899 -1.6205 -0.3792
  399TIP3    H222689   0.894   2.207  15.008 -0.7416 -1.3100 -1.3040
  400TIP3   OH222690   6.664   1.322   0.749 -0.6074 -0.7437  0.4599
  400TIP3    H122691   6.598   1.317   0.680 -1.3409 -1.6414  1.2206
  400TIP3    H222692   6.721   1.247   0.733 -0.4238 -0.6089  0.4776
  401TIP3   OH222693   6.163   1.448  16.788  0.2647 -0.3173 -0.4839
  401TIP3    H122694   6.069   1.459  16.801  0.2467 -0.4953 -0.4666
  401TIP3    H222695   6.203   1.506  16.854  0.1756  1.2578 -1.7419
  402TIP3   OH222696   4.317   4.220   0.349 -0.3842  0.4868 -0.1524
  402TIP3    H122697   4.310   4.269   0.266 -0.6396  1.5061  0.4502
  402TIP3    H222698   4.336   4.131   0.322 -1.7778  0.5044 -1.3840
  403TIP3   OH222699   5.785   1.238   4.735  0.1872 -0.5474  1.0901
  403TIP3    H122700   5.771   1.298   4.809 -0.9768  0.0349  0.4342
  403TIP3    H222701   5.697   1.206   4.714  0.6030 -1.2763  0.4174
  404TIP3   OH222702   1.643   1.816  12.079  0.8211  0.5733 -0.1778
  404TIP3    H122703   1.681   1.758  12.145  1.2334 -1.7894 -2.3073
  404TIP3    H222704   1.708   1.885  12.068  2.4815 -0.9703 -0.6009
  405TIP3   OH222705   5.982   0.707   6.114  0.5286  0.0740  0.3223
  405TIP3    H122706   5.892   0.688   6.139 -0.0325  1.1871 -0.7300
  405TIP3    H222707   6.028   0.722   6.197 -0.4163  0.1627  0.8340
  406TIP3   OH222708   0.513   4.787   4.840 -0.0662  0.1902  0.0768
  406TIP3    H122709   0.500   4.871   4.885 -0.4255  0.8833 -1.2548
  406TIP3    H222710   0.607   4.770   4.848 -0.3447 -0.5455  2.4492
  407TIP3   OH222711   2.256   4.437  16.611 -0.0242 -0.5871 -0.7002
  407TIP3    H122712   2.292   4.456  16.697 -2.2509 -0.7426  0.3189
  407TIP3    H222713   2.219   4.520  16.580 -0.3347 -0.8096 -0.9423
  408TIP3   OH222714   3.196   1.558   4.076 -0.2851  0.1174 -0.2154
  408TIP3    H122715   3.128   1.577   4.012 -0.2080 -1.3731 -0.7889
  408TIP3    H222716   3.150   1.519   4.150 -0.1102 -0.5431 -0.4471
  409TIP3   OH222717   5.434   4.145  13.083  0.2078  0.7131  0.1910
  409TIP3    H122718   5.511   4.100  13.048  0.1818 -0.7797  1.8982
  409TIP3    H222719   5.469   4.225  13.124  0.5116  1.2646 -1.0892
  410TIP3   OH222720   2.519   6.078  14.401  0.0834  0.0644 -0.3559
  410TIP3    H122721   2.601   6.080  14.353 -0.5343 -1.8183 -1.6410
  410TIP3    H222722   2.451   6.078  14.332 -0.8766 -0.9455  0.5399
  411TIP3   OH222723   6.198   2.876   4.139  0.3728 -0.0204 -0.0370
  411TIP3    H122724   6.222   2.855   4.048  0.1533  2.4936 -0.7470
  411TIP3    H222725   6.282   2.881   4.185  0.6192  0.2923 -0.5055
  412TIP3   OH222726   2.117   0.918  12.087  0.1186 -0.2387  0.1003
  412TIP3    H122727   2.175   0.844  12.101 -1.3952 -1.4679  0.0647
  412TIP3    H222728   2.043   0.903  12.145 -0.9972  0.3556 -1.1085
  413TIP3   OH222729   5.592   4.707   1.275  0.1936 -0.4550  0.2325
  413TIP3    H122730   5.511   4.679   1.233 -0.0668  0.9319 -0.2378
  413TIP3    H222731   5.568   4.716   1.368 -0.3385  0.4475  0.0144
  414TIP3   OH222732   5.744   3.176   5.183  0.1302 -0.6525 -0.0905
  414TIP3    H122733   5.699   3.247   5.229 -1.7461 -2.3069  0.7776
  414TIP3    H222734   5.686   3.154   5.111  0.3175 -1.7563  0.0814
  415TIP3   OH222735   4.349   5.702  16.318  0.1221 -0.0702  0.1986
  415TIP3    H122736   4.263   5.737  16.338  0.0953 -0.2657  0.4253
  415TIP3    H222737   4.411   5.768  16.351  0.0545  0.4531 -0.6740
  416TIP3   OH222738   2.366   5.592   0.799 -0.1829 -0.0401  0.7928
  416TIP3    H122739   2.409   5.609   0.883 -0.9007 -0.2728  1.2253
  416TIP3    H222740   2.434   5.604   0.733 -0.2404  3.0617  1.1325
  417TIP3   OH222741   2.637   5.474  12.475 -0.1713 -0.0406 -0.5430
  417TIP3    H122742   2.584   5.403  12.441  0.2324 -0.4894 -0.2619
  417TIP3    H222743   2.580   5.551  12.474 -1.4703 -0.8802  1.4978
  418TIP3   OH222744   3.218   0.121   3.606  0.1328 -0.1737 -0.0798
  418TIP3    H122745   3.140   0.113   3.551 -0.8289  2.0187  0.8692
  418TIP3    H222746   3.276   0.179   3.557  0.1331  0.1624  0.3191
  419TIP3   OH222747   3.650   5.333  14.460 -0.1710 -0.2880  0.2099
  419TIP3    H122748   3.569   5.283  14.466 -0.6188  0.3860 -0.0471
  419TIP3    H222749   3.717   5.268  14.438 -0.2969 -1.1370  2.1991
  420TIP3   OH222750   5.299   4.556  17.181 -0.0758  0.3639  0.5083
  420TIP3    H122751   5.212   4.543  17.143 -0.2512  1.3164  0.5679
  420TIP3    H222752   5.355   4.576  17.105  0.4529 -1.8255  0.2572
  421TIP3   OH222753   4.897   1.435  16.162  0.3452  0.1324  0.4202
  421TIP3    H122754   4.828   1.387  16.209  1.7217 -1.0416  1.3340
  421TIP3    H222755   4.895   1.522  16.201  0.6520 -0.4631  1.8691
  422TIP3   OH222756   3.547   0.708   3.398 -0.1069 -0.5339 -0.6435
  422TIP3    H122757   3.532   0.614   3.404 -2.1701 -0.2111  0.4078
  422TIP3    H222758   3.486   0.737   3.329 -1.9069  0.3959  1.2281
  423TIP3   OH222759   2.058   3.610   2.765  0.2495 -0.5699 -0.2602
  423TIP3    H122760   2.079   3.703   2.761  3.0702 -1.1586 -1.8855
  423TIP3    H222761   2.030   3.587   2.676 -0.3005 -1.3161  0.0871
  424TIP3   OH222762   1.473   3.925  15.190  0.2249  0.0490 -0.1411
  424TIP3    H122763   1.389   3.945  15.232 -0.0607 -0.5572 -0.4060
  424TIP3    H222764   1.513   4.010  15.175 -0.5392  0.3697 -0.4100
  425TIP3   OH222765   2.633   2.534  11.105  0.0363 -0.2171 -0.1809
  425TIP3    H122766   2.606   2.545  11.014 -1.5230 -0.4487  0.2335
  425TIP3    H222767   2.635   2.439  11.118  1.0047 -0.2119 -0.1591
  426TIP3   OH222768   4.533   6.419   2.373  0.2242  0.1937 -0.1643
  426TIP3    H122769   4.508   6.503   2.334 -1.3870  0.2551  0.9269
  426TIP3    H222770   4.498   6.422   2.462  1.4009 -1.0697  0.3761
  427TIP3   OH222771   1.357   6.577   5.180 -0.1980  0.2657 -0.2625
  427TIP3    H122772   1.371   6.486   5.153  0.4085  0.1798  0.3150
  427TIP3    H222773   1.273   6.576   5.224 -0.1501 -0.0385 -0.1749
  428TIP3   OH222774   5.815   5.806  12.799 -0.0673  0.2535 -0.6526
  428TIP3    H122775   5.724   5.816  12.827  0.0381  0.5287 -0.4103
  428TIP3    H222776   5.829   5.711  12.795 -0.7417  0.1792 -1.8975
  429TIP3   OH222777   5.821   0.575   3.961  0.0238 -0.2581 -0.5368
  429TIP3    H122778   5.877   0.564   4.038  0.7847  0.3937 -0.9712
  429TIP3    H222779   5.840   0.498   3.907 -0.6860 -0.8344  0.0238
  430TIP3   OH222780   6.323   4.263   0.497 -0.1411  0.4671 -0.4841
  430TIP3    H122781   6.264   4.208   0.446  0.4240 -1.1175  0.4690
  430TIP3    H222782   6.274   4.286   0.576  0.7610 -1.7643  0.8335
  431TIP3   OH222783   6.401   2.688   2.296  0.0535 -0.2168 -0.0771
  431TIP3    H122784   6.348   2.715   2.222  2.4670  0.1115 -1.8167
  431TIP3    H222785   6.354   2.613   2.334 -1.5852  0.0296 -1.5167
  432TIP3   OH222786   5.767   3.316  14.828  0.4377  0.0454 -0.7033
  432TIP3    H122787   5.775   3.345  14.919 -0.7706 -0.6755 -0.3486
  432TIP3    H222788   5.726   3.390  14.783 -0.6558 -0.2816 -0.2617
  433TIP3   OH222789   2.065   6.039   0.725 -0.3443 -0.2631 -0.2760
  433TIP3    H122790   1.980   6.010   0.758 -0.7270  0.1943 -0.8573
  433TIP3    H222791   2.128   5.982   0.769 -0.7981  0.5588  1.5761
  434TIP3   OH222792   3.218   2.749   5.059 -0.6698 -0.1492  0.0621
  434TIP3    H122793   3.175   2.684   5.004 -0.6590 -0.4732  0.4342
  434TIP3    H222794   3.148   2.811   5.081 -0.9069 -0.5739  0.5144
  435TIP3   OH222795   2.416   1.633   3.983  0.0745 -0.2168 -0.4189
  435TIP3    H122796   2.499   1.593   4.007  0.5740  0.9814 -0.0794
  435TIP3    H222797   2.420   1.721   4.021 -1.3189 -0.1187 -0.4543
  436TIP3   OH222798   4.528   4.350  17.152  0.2248 -0.0481 -0.4764
  436TIP3    H122799   4.473   4.293  17.098  0.5051 -0.4593 -0.3371
  436TIP3    H222800   4.539   4.301  17.234  0.8709 -0.0139 -0.5383
  437TIP3   OH222801   0.248   1.663   3.757 -0.3592  0.2250  0.3505
  437TIP3    H122802   0.153   1.647   3.757 -0.1833 -1.1460 -1.7104
  437TIP3    H222803   0.275   1.646   3.847 -1.5228 -3.3177  0.1909
  438TIP3   OH222804   1.050   6.542  16.738 -0.0133 -1.0752 -0.2150
  438TIP3    H122805   1.122   6.543  16.675 -1.2146  1.0171 -1.6237
  438TIP3    H222806   1.028   6.634  16.751 -0.6097 -1.5110  2.3846
  439TIP3   OH222807   0.384   5.225   1.554  0.6739  0.2854 -0.0439
  439TIP3    H122808   0.310   5.260   1.603  0.7034  0.5861 -0.2086
  439TIP3    H222809   0.435   5.303   1.528  1.0191  0.0865  0.0239
  440TIP3   OH222810   1.596   3.436  15.292 -0.5329 -0.1356 -0.1318
  440TIP3    H122811   1.598   3.365  15.227 -0.9874 -0.7759  0.5471
  440TIP3    H222812   1.503   3.454  15.305 -0.4523 -0.1517  0.4963
  441TIP3   OH222813   6.358   0.349  14.250  0.6471 -0.5305  0.2049
  441TIP3    H122814   6.353   0.368  14.344  2.8428  1.8661 -0.0362
  441TIP3    H222815   6.275   0.380  14.214 -0.3520 -1.7793  1.3482
  442TIP3   OH222816   6.716   2.255  11.801  0.5826  0.4874 -0.1553
  442TIP3    H122817   6.670   2.259  11.884  2.6434 -0.2564  1.0891
  442TIP3    H222818   6.779   2.327  11.804  0.8333  0.3205 -0.9801
  443TIP3   OH222819   6.449   0.484   0.799  0.4488  0.3088 -0.3072
  443TIP3    H122820   6.535   0.463   0.762 -0.1428 -2.1749 -0.4562
  443TIP3    H222821   6.418   0.557   0.746  2.1789  0.8411 -0.6752
  444TIP3   OH222822   1.621   6.591   5.892 -0.2735 -0.4884  0.7092
  444TIP3    H122823   1.576   6.508   5.906  0.5261 -0.6118  2.9518
  444TIP3    H222824   1.574   6.653   5.947  0.6819 -0.0375  1.0308
  445TIP3   OH222825   5.373   0.801  15.105  0.3515 -0.1289  0.2226
  445TIP3    H122826   5.308   0.774  15.040 -0.4839 -0.3407  1.1252
  445TIP3    H222827   5.359   0.743  15.180  2.0208 -0.6149  0.2091
  446TIP3   OH222828   6.149   1.256   0.603 -0.4761 -0.4691 -0.5668
  446TIP3    H122829   6.092   1.180   0.614 -0.3243 -0.5006  0.0213
  446TIP3    H222830   6.198   1.237   0.522 -0.1862 -1.1634 -0.2372
  447TIP3   OH222831   3.493   2.022  16.062 -0.1011 -0.1285 -0.1585
  447TIP3    H122832   3.399   2.008  16.070 -0.3243 -0.0975 -2.2039
  447TIP3    H222833   3.532   1.938  16.086 -0.6875 -0.3189  0.1348
  448TIP3   OH222834   3.821   5.229   2.297  0.5026  0.0088  0.0860
  448TIP3    H122835   3.788   5.318   2.289  0.1013  0.0794  1.9997
  448TIP3    H222836   3.911   5.240   2.329  0.6567 -0.2618 -0.2514
  449TIP3   OH222837   1.973   2.537  13.266 -0.6765  0.0329  0.0542
  449TIP3    H122838   1.921   2.610  13.229 -0.0183  0.1322 -0.7016
  449TIP3    H222839   1.998   2.568  13.353  0.9497  1.4170 -0.8493
  450TIP3   OH222840   3.375   2.912  11.711  0.6581  0.2322  0.0834
  450TIP3    H122841   3.288   2.907  11.750  1.1344  0.5917  1.2527
  450TIP3    H222842   3.403   2.821  11.701  0.6166  0.1233  0.8431
  451TIP3   OH222843   2.446   3.687  12.199  0.5855  0.0761  0.0319
  451TIP3    H122844   2.363   3.693  12.246 -0.5367 -0.6002 -1.7277
  451TIP3    H222845   2.510   3.727  12.257 -0.9655  0.6051  1.4606
  452TIP3   OH222846   6.773   0.648  12.419 -0.0679 -0.4703  0.2016
  452TIP3    H122847   6.825   0.681  12.492 -0.9552  1.0777  0.1642
  452TIP3    H222848   6.754   0.557  12.442 -1.3441  0.3118  2.5163
  453TIP3   OH222849   0.979   5.137  11.528  0.2614 -0.8374 -0.3518
  453TIP3    H122850   0.981   5.225  11.490 -0.0786 -0.3147  0.7968
  453TIP3    H222851   1.071   5.118  11.547  0.2515 -0.2931  0.3177
  454TIP3   OH222852   0.245   0.047   6.350 -0.1384  0.0941  0.0888
  454TIP3    H122853   0.261  -0.039   6.388 -0.0651  0.4152  0.7969
  454TIP3    H222854   0.167   0.079   6.394 -0.2426  0.3431 -0.2685
  455TIP3   OH222855   6.329   5.692  16.361 -0.8396 -0.6974 -0.4796
  455TIP3    H122856   6.367   5.746  16.292 -0.7661 -1.4083 -1.0132
  455TIP3    H222857   6.251   5.739  16.388  0.1839  0.5742  0.3472
  456TIP3   OH222858   4.756   0.994  12.836  0.2002  0.1919  0.2254
  456TIP3    H122859   4.805   1.001  12.918 -0.0777  1.9695  0.2797
  456TIP3    H222860   4.818   1.023  12.769  0.2687 -0.7959 -0.1629
  457TIP3   OH222861   4.295   3.406   4.320 -0.3146 -0.3282 -0.3485
  457TIP3    H122862   4.214   3.457   4.315 -0.3651 -0.4808 -1.2400
  457TIP3    H222863   4.287   3.340   4.252  0.8696  0.1230 -0.9695
  458TIP3   OH222864   6.656   4.956   4.401 -0.5720 -0.5078  0.0111
  458TIP3    H122865   6.575   4.962   4.453 -0.8942 -2.2559 -0.2233
  458TIP3    H222866   6.632   4.993   4.316 -1.2847 -1.4241 -0.2022
  459TIP3   OH222867   0.607   3.416   0.768  0.2992 -0.3349  0.2542
  459TIP3    H122868   0.618   3.335   0.818  0.7743 -0.0133  0.6887
  459TIP3    H222869   0.514   3.437   0.776 -0.0739 -1.4595 -0.8582
  460TIP3   OH222870   0.238   0.288   2.092 -0.1071 -0.4365  0.5599
  460TIP3    H122871   0.252   0.365   2.036  0.0281  0.8183  2.2359
  460TIP3    H222872   0.190   0.322   2.167  0.5897 -1.8483  1.6881
  461TIP3   OH222873   5.591   3.950  14.807  0.3208 -0.0125 -0.0389
  461TIP3    H122874   5.646   3.873  14.824 -0.3359 -0.7228 -1.0167
  461TIP3    H222875   5.593   3.960  14.711 -1.1778 -0.0130 -0.0914
  462TIP3   OH222876   3.730   1.940  11.862 -0.0588 -0.1635 -0.5529
  462TIP3    H122877   3.796   1.957  11.930 -0.6474  2.2609 -0.4930
  462TIP3    H222878   3.647   1.965  11.903 -0.7266 -0.8540 -1.4370
  463TIP3   OH222879   5.211   3.795   6.457  0.0714 -0.1556 -0.5588
  463TIP3    H122880   5.195   3.868   6.398  0.7706  0.6258  0.1840
  463TIP3    H222881   5.141   3.733   6.438 -0.4684  0.6510 -1.2885
  464TIP3   OH222882   5.664   2.511   0.756  0.6240  0.1195  0.4446
  464TIP3    H122883   5.692   2.423   0.780  0.0132  0.2047  1.5835
  464TIP3    H222884   5.669   2.514   0.661  2.1047 -0.6408  0.4723
  465TIP3   OH222885   4.894   2.012  14.951 -0.1913  0.1520 -0.3185
  465TIP3    H122886   4.892   2.070  15.027  0.1920  2.5214 -1.9854
  465TIP3    H222887   4.807   1.973  14.948 -1.4023  2.6798 -0.5395
  466TIP3   OH222888   2.920   2.092  10.309  0.3918 -0.2769 -0.2856
  466TIP3    H122889   2.886   2.181  10.308  0.2852 -0.2234  2.5139
  466TIP3    H222890   2.841   2.037  10.316  0.5575 -0.4865 -0.0552
  467TIP3   OH222891   0.177   0.107   2.994 -0.1031  0.0308  0.0405
  467TIP3    H122892   0.256   0.140   2.951 -2.7147  3.1268 -2.9596
  467TIP3    H222893   0.154   0.028   2.944  0.6941 -0.5436  0.5511
  468TIP3   OH222894   4.383   3.183  16.203  0.6559  0.7173  0.4265
  468TIP3    H122895   4.397   3.218  16.291  1.0199  1.1175  0.2144
  468TIP3    H222896   4.295   3.212  16.179  0.2777  0.0107  0.9263
  469TIP3   OH222897   1.628   5.693  12.142  0.0539  0.6357  0.2424
  469TIP3    H122898   1.586   5.621  12.188  1.0651 -0.9873 -1.2595
  469TIP3    H222899   1.569   5.714  12.070 -1.2589  2.8051  1.8076
  470TIP3   OH222900   5.017   1.574  15.055  0.1715  0.0225 -0.5831
  470TIP3    H122901   5.045   1.665  15.063 -1.4589  0.5581 -0.6078
  470TIP3    H222902   5.087   1.523  15.097  0.9329  1.2996 -0.2601
  471TIP3   OH222903   1.269   6.294   4.467  0.1782 -0.0855  0.0717
  471TIP3    H122904   1.241   6.361   4.531  2.5918  0.9560  0.1289
  471TIP3    H222905   1.287   6.217   4.520 -0.5483 -0.1260  0.2753
  472TIP3   OH222906   2.074   6.063  14.265 -0.1904  0.1011  0.2204
  472TIP3    H122907   2.045   6.002  14.333 -2.5723 -1.3140 -1.8890
  472TIP3    H222908   1.994   6.110  14.240  0.6110  0.6003 -1.5403
  473TIP3   OH222909   3.900   4.008  15.316  0.0391  0.1246  0.1129
  473TIP3    H122910   3.923   4.033  15.226  0.3771 -3.0316 -0.7801
  473TIP3    H222911   3.805   3.997  15.313  0.1723 -1.0961 -0.2247
  474TIP3   OH222912   3.410   5.324  14.886  0.0045  0.5746 -0.1853
  474TIP3    H122913   3.333   5.278  14.919  0.9993  0.3183  1.9999
  474TIP3    H222914   3.482   5.291  14.940  1.6393  0.9069 -2.0506
  475TIP3   OH222915   0.768   4.319   4.123  0.1294  0.2475  0.4837
  475TIP3    H122916   0.818   4.369   4.187 -0.1276  1.9499 -0.5743
  475TIP3    H222917   0.807   4.343   4.038  0.7216 -2.2341 -0.0282
  476TIP3   OH222918   4.462   5.296  15.996  0.4343  0.3836  0.0670
  476TIP3    H122919   4.390   5.240  16.024 -1.2600  3.1466  1.7271
  476TIP3    H222920   4.443   5.382  16.035  3.6230  1.7799 -1.0399
  477TIP3   OH222921   6.531   0.640  15.722  0.1152  0.0020 -0.0710
  477TIP3    H122922   6.449   0.611  15.762 -0.6826  0.2754 -1.4342
  477TIP3    H222923   6.592   0.567  15.735 -0.3414 -0.2012  0.9684
  478TIP3   OH222924   3.093   3.604  12.937  0.0856  0.0868 -0.3687
  478TIP3    H122925   3.026   3.546  12.975 -0.1944  0.1503 -0.7619
  478TIP3    H222926   3.054   3.692  12.942 -0.4648 -0.0399 -1.8839
  479TIP3   OH222927   3.915   3.347  16.181  0.0897 -0.2880 -0.4480
  479TIP3    H122928   3.855   3.304  16.242  2.1289 -1.4131  0.8784
  479TIP3    H222929   3.948   3.275  16.126 -0.8513  0.5409 -2.1846
  480TIP3   OH222930   5.369   6.134   1.185  0.3681  0.5970 -0.1538
  480TIP3    H122931   5.399   6.063   1.128  1.5030 -0.0408  1.1820
  480TIP3    H222932   5.276   6.143   1.164  0.5112 -0.3503 -1.3231
  481TIP3   OH222933   3.210   3.093  16.221 -0.1307 -0.3410  0.9877
  481TIP3    H122934   3.220   3.122  16.131  0.6344 -0.0384  1.1653
  481TIP3    H222935   3.123   3.052  16.224 -0.3700  0.0993  0.2418
  482TIP3   OH222936   1.828   1.202   2.374  0.1393 -0.3569 -0.1192
  482TIP3    H122937   1.899   1.143   2.350 -0.5806 -1.0779 -0.5195
  482TIP3    H222938   1.863   1.254   2.446  0.4648 -1.9497  0.9243
  483TIP3   OH222939   1.731   3.029   4.941  0.5580 -0.0445 -0.3521
  483TIP3    H122940   1.784   3.101   4.974 -1.2825  0.6771  1.2890
  483TIP3    H222941   1.689   2.993   5.020 -1.3279 -0.5557 -1.5287
  484TIP3   OH222942   1.862   5.917   4.089 -0.4677  0.2957  0.3038
  484TIP3    H122943   1.790   5.931   4.151  0.4169  2.3651  0.9189
  484TIP3    H222944   1.934   5.969   4.123  0.7210 -0.1877 -1.3638
  485TIP3   OH222945   2.005   4.077   1.707  0.0587 -0.2560  0.0285
  485TIP3    H122946   1.994   4.082   1.612  0.7151 -0.3780 -0.0561
  485TIP3    H222947   1.991   3.985   1.728  1.2072 -0.4756 -0.1228
  486TIP3   OH222948   5.687   6.176   1.668 -0.6686 -0.3709 -0.1123
  486TIP3    H122949   5.613   6.123   1.635  1.1324 -2.5954 -0.8495
  486TIP3    H222950   5.761   6.149   1.614  0.6222  2.2127  0.2309
  487TIP3   OH222951   0.263   3.719   2.379 -0.8663  0.0951 -1.0947
  487TIP3    H122952   0.201   3.652   2.407  0.7156 -1.4434 -1.0895
  487TIP3    H222953   0.217   3.766   2.309 -3.7640  2.1202  1.9128
  488TIP3   OH222954   5.685   1.844   1.724 -0.1501 -0.2726  0.3630
  488TIP3    H122955   5.631   1.833   1.646  1.0179  1.2195 -0.7040
  488TIP3    H222956   5.768   1.800   1.702  0.7129  1.3778  0.1461
  489TIP3   OH222957   1.978   5.281   4.803  0.4170 -0.3281 -0.8369
  489TIP3    H122958   1.965   5.290   4.708 -2.2855 -0.3000 -0.5369
  489TIP3    H222959   1.901   5.322   4.842  1.7163  0.1199  1.4238
  490TIP3   OH222960   3.164   6.183   2.182  0.2619 -0.1001 -0.2144
  490TIP3    H122961   3.082   6.209   2.141  0.8897  2.7554  0.1320
  490TIP3    H222962   3.149   6.196   2.275  0.6129 -1.1651  0.0018
  491TIP3   OH222963   0.525   2.320   0.845 -0.3591  0.9614  0.0536
  491TIP3    H122964   0.584   2.334   0.919 -0.0356  2.9012 -0.5197
  491TIP3    H222965   0.581   2.331   0.768 -1.4564  3.1618 -0.5107
  492TIP3   OH222966   0.026   4.291   4.708  0.0354 -0.9541  0.6139
  492TIP3    H122967  -0.048   4.270   4.763 -1.1511  1.9548  0.2843
  492TIP3    H222968   0.094   4.320   4.768 -1.4597  2.8146  0.7511
  493TIP3   OH222969   5.851   0.195   2.757  0.4837 -0.1042 -0.2294
  493TIP3    H122970   5.854   0.288   2.734  0.9939 -0.0223  0.1284
  493TIP3    H222971   5.908   0.188   2.834  0.9600 -0.8229 -0.6308
  494TIP3   OH222972   4.675   4.141  14.252  0.2233  0.5442 -0.7100
  494TIP3    H122973   4.683   4.131  14.158  0.3838 -0.3624 -0.6092
  494TIP3    H222974   4.646   4.055  14.283  2.2332  0.1809  0.2885
  495TIP3   OH222975   1.016   6.138  13.139  0.0009  0.0466 -0.7459
  495TIP3    H122976   1.027   6.192  13.218 -3.2627  0.7161 -0.6165
  495TIP3    H222977   0.960   6.189  13.082  0.6145 -1.3141 -2.6908
  496TIP3   OH222978   0.520   1.019   4.802  0.2033  0.4175 -0.0628
  496TIP3    H122979   0.554   1.089   4.858 -3.8477  1.3496  1.5466
  496TIP3    H222980   0.477   1.065   4.730 -2.0741 -0.2972  0.7460
  497TIP3   OH222981   4.876   1.941  13.419  0.2428  0.2511  0.0825
  497TIP3    H122982   4.834   2.025  13.440 -0.5451  0.1051 -0.8693
  497TIP3    H222983   4.834   1.912  13.338  1.8823 -0.1258 -0.6707
  498TIP3   OH222984   5.206   6.087   0.009  0.7430  0.0943  0.8108
  498TIP3    H122985   5.138   6.122   0.066  1.5832  0.3365  1.6962
  498TIP3    H222986   5.229   6.003   0.049 -0.2675 -0.8376 -0.4954
  499TIP3   OH222987   6.423   4.039  12.358  0.4035  0.8046 -0.1524
  499TIP3    H122988   6.344   4.050  12.412 -1.1168 -0.9128 -1.8574
  499TIP3    H222989   6.476   3.975  12.406 -1.4534 -1.5836 -1.0623
  500TIP3   OH222990   1.250   2.709  11.746 -0.2341  0.1863  0.5703
  500TIP3    H122991   1.317   2.764  11.786 -1.5184  1.2876  1.3308
  500TIP3    H222992   1.174   2.719  11.805 -1.3474 -0.2522 -0.7483
  501TIP3   OH222993   4.987   6.126   4.860  0.3204  0.1067 -0.4525
  501TIP3    H122994   4.998   6.220   4.852 -1.7589  0.2993 -1.6081
  501TIP3    H222995   4.964   6.096   4.772 -1.9338 -1.0017  0.4280
  502TIP3   OH222996   0.726   0.963   2.303  0.2498  0.3746  0.0234
  502TIP3    H122997   0.755   0.963   2.212 -1.0856 -0.3830 -0.4331
  502TIP3    H222998   0.807   0.964   2.354  1.0715 -0.9930 -1.1738
  503TIP3   OH222999   1.870   6.346  15.332  0.0698  0.1810 -0.2688
  503TIP3    H123000   1.869   6.297  15.249  2.4247 -2.1951  0.9331
  503TIP3    H223001   1.943   6.407  15.323  1.4486 -1.2632  0.5554
  504TIP3   OH223002   2.900   6.424  12.417  0.4402 -0.2260  1.0096
  504TIP3    H123003   2.965   6.488  12.389 -0.1319  0.3734  1.0215
  504TIP3    H223004   2.937   6.340  12.393 -0.3214  0.2493 -2.2234
  505TIP3   OH223005   2.374   6.280  11.977 -0.1942  0.3068 -0.1066
  505TIP3    H123006   2.404   6.318  12.060 -2.2617 -1.2219  1.4430
  505TIP3    H223007   2.293   6.234  11.999  0.4853 -2.3328 -2.4312
  506TIP3   OH223008   2.701   5.805  14.420 -0.6943  0.0696 -0.3286
  506TIP3    H123009   2.726   5.892  14.388  1.1102 -0.2818  0.0044
  506TIP3    H223010   2.612   5.792  14.387 -1.3512  2.3673  0.3119
  507TIP3   OH223011   2.459   0.350   5.905 -0.7077  0.4532 -0.0016
  507TIP3    H123012   2.472   0.382   5.816 -0.9929  2.4574  0.6296
  507TIP3    H223013   2.402   0.273   5.895  0.0912  0.0395 -1.5972
  508TIP3   OH223014   2.053   0.885  10.513  0.6653  0.0817 -0.3276
  508TIP3    H123015   1.989   0.932  10.566  0.6866 -0.1449 -0.0978
  508TIP3    H223016   2.083   0.949  10.449 -1.1623 -0.2906 -1.6585
  509TIP3   OH223017   4.156   2.019   3.945 -0.2114  0.0651 -1.1205
  509TIP3    H123018   4.250   2.036   3.945  0.1384 -1.6776 -1.4818
  509TIP3    H223019   4.118   2.095   3.988  1.2174  1.5109 -2.2955
  510TIP3   OH223020   4.680   2.575   3.796  0.0195  0.0398  0.2871
  510TIP3    H123021   4.725   2.557   3.714 -0.6107 -2.3034  0.3616
  510TIP3    H223022   4.588   2.557   3.776 -0.0706 -1.0954  1.6105
  511TIP3   OH223023   5.947   5.203  10.709  0.0983 -0.0821 -0.6486
  511TIP3    H123024   6.041   5.192  10.724  0.1685 -1.3130 -1.8105
  511TIP3    H223025   5.940   5.281  10.654  0.4872 -0.2949 -1.0013
  512TIP3   OH223026   0.488   2.135   6.165  0.0213 -0.0587  0.3574
  512TIP3    H123027   0.533   2.190   6.229 -0.1693  0.7251 -0.1736
  512TIP3    H223028   0.424   2.085   6.216  0.4693 -0.0855  0.8972
  513TIP3   OH223029   1.947   4.462  11.672  0.3801  0.1724 -0.1196
  513TIP3    H123030   1.929   4.445  11.765  0.6091 -0.8030 -0.2464
  513TIP3    H223031   1.995   4.385  11.642 -2.4406 -1.0744 -1.8369
  514TIP3   OH223032   4.346   1.509   0.717  0.4024  0.0206 -0.1226
  514TIP3    H123033   4.439   1.496   0.698  0.6859 -0.0304  1.2551
  514TIP3    H223034   4.301   1.473   0.640  1.4467 -1.7598  0.0344
  515TIP3   OH223035   6.020   2.506   3.214 -0.1938  0.1378 -0.6730
  515TIP3    H123036   5.991   2.559   3.288  0.8374 -1.4183  0.9063
  515TIP3    H223037   5.957   2.434   3.209 -0.2864  0.2556 -1.3643
  516TIP3   OH223038   6.277   1.567   0.319  0.5289 -0.1396  0.3043
  516TIP3    H123039   6.366   1.583   0.351  0.2979 -0.3619  1.0704
  516TIP3    H223040   6.290   1.532   0.231  1.2264 -0.7128  0.6237
  517TIP3   OH223041   5.986   1.553  16.259  0.2266 -0.3337 -0.0373
  517TIP3    H123042   6.015   1.470  16.220  1.3468  0.5949 -1.2575
  517TIP3    H223043   6.052   1.616  16.232 -0.5663  0.9519  0.9554
  518TIP3   OH223044   5.496   1.584  12.115 -0.6486  0.5321 -0.1363
  518TIP3    H123045   5.527   1.672  12.095  1.1697  0.1642  0.8076
  518TIP3    H223046   5.531   1.529  12.044 -0.1151  0.2918  0.3042
  519TIP3   OH223047   5.976   0.143  12.965 -0.6456 -0.1600  0.3658
  519TIP3    H123048   5.916   0.069  12.961 -1.5161  0.4837  1.2310
  519TIP3    H223049   6.021   0.134  13.049 -1.3836  0.7574  0.8715
  520TIP3   OH223050   3.942   1.056  16.129 -0.2871  0.1748 -0.3800
  520TIP3    H123051   3.941   1.046  16.034 -1.0930  1.0202 -0.4812
  520TIP3    H223052   4.034   1.075  16.151  0.4225 -2.5617 -0.6523
  521TIP3   OH223053   1.321   5.086   1.760 -0.1312 -0.1166 -0.5360
  521TIP3    H123054   1.356   5.002   1.791  2.3788  0.9741 -0.1731
  521TIP3    H223055   1.287   5.129   1.838 -2.1007 -1.0016 -0.8270
  522TIP3   OH223056   1.441   5.631   1.063 -0.5994  0.0354 -0.1868
  522TIP3    H123057   1.451   5.726   1.055 -0.4974  0.0386 -0.0462
  522TIP3    H223058   1.362   5.620   1.115 -0.7421  0.0377 -0.4043
  523TIP3   OH223059   5.915   0.817  15.789 -0.0301  0.2739 -0.4132
  523TIP3    H123060   5.970   0.765  15.731 -0.0712  0.4501 -0.6126
  523TIP3    H223061   5.851   0.756  15.824  1.2264 -0.2833  1.0276
  524TIP3   OH223062   3.082   0.038  16.347 -0.0644  0.1649  0.0217
  524TIP3    H123063   2.998  -0.004  16.331 -0.0768 -0.0385  0.6145
  524TIP3    H223064   3.145  -0.034  16.348  0.1263  0.3184 -0.4451
  525TIP3   OH223065   4.574   1.980   0.323  0.0489  0.1554  0.2134
  525TIP3    H123066   4.637   2.013   0.258  0.7658 -0.2765  0.6731
  525TIP3    H223067   4.626   1.968   0.402  0.2401 -3.5595 -0.3246
  526TIP3   OH223068   0.657   6.278   0.478  0.6335 -0.0227  0.5559
  526TIP3    H123069   0.629   6.229   0.555  1.3403  0.8185  1.3846
  526TIP3    H223070   0.615   6.235   0.404 -1.3141  0.0799  1.5504
  527TIP3   OH223071   0.039   1.232   5.007 -0.4178 -0.1495  0.0002
  527TIP3    H123072   0.060   1.200   5.095 -1.1157 -1.9223 -0.4268
  527TIP3    H223073  -0.052   1.260   5.013 -0.2686  0.3429 -0.0055
  528TIP3   OH223074   6.370   3.664  14.123  0.1418  0.2596  0.4599
  528TIP3    H123075   6.461   3.655  14.092  0.2102  0.0427  0.7217
  528TIP3    H223076   6.357   3.759  14.131 -0.3043  0.4072 -1.4993
  529TIP3   OH223077   0.741   2.605   6.385 -0.2637 -0.0296 -0.4829
  529TIP3    H123078   0.801   2.532   6.402  0.1665  0.2880 -0.6243
  529TIP3    H223079   0.667   2.590   6.445 -0.2856 -0.7027 -0.6780
  530TIP3   OH223080   5.589   2.251   3.202 -0.0190 -0.0230 -0.0880
  530TIP3    H123081   5.514   2.294   3.161  0.7991 -0.7564 -2.5138
  530TIP3    H223082   5.564   2.159   3.210  0.3233 -0.1297 -0.2032
  531TIP3   OH223083   0.132   3.900  11.994  0.8663 -0.6170 -0.0062
  531TIP3    H123084   0.047   3.880  12.033  1.7720 -1.3373  1.6923
  531TIP3    H223085   0.126   3.865  11.905  0.2663 -3.1156  0.9266
  532TIP3   OH223086   3.204   0.591   3.904  0.2731 -0.3781  0.0637
  532TIP3    H123087   3.237   0.599   3.994  0.2274 -0.4341  0.0858
  532TIP3    H223088   3.109   0.596   3.913  0.0821 -2.9570  0.3248
  533TIP3   OH223089   4.832   4.119   1.297 -0.4699 -0.4372 -0.0330
  533TIP3    H123090   4.918   4.079   1.286  0.1917  1.1581 -0.9898
  533TIP3    H223091   4.832   4.152   1.387  0.1397  0.0630 -0.2181
  534TIP3   OH223092   2.931   2.673  12.526  0.5893  0.3000  0.1079
  534TIP3    H123093   2.857   2.652  12.468  0.6070  0.4659  0.0230
  534TIP3    H223094   2.899   2.747  12.578  1.3806  1.7086 -1.3126
  535TIP3   OH223095   2.529   2.597  14.731  0.1546  0.4003 -0.1168
  535TIP3    H123096   2.621   2.585  14.756  0.0176  1.2006  0.8437
  535TIP3    H223097   2.524   2.565  14.641  1.8884  2.5133 -1.0271
  536TIP3   OH223098   1.226   2.021   0.339 -0.5890 -0.2651  0.1058
  536TIP3    H123099   1.299   2.076   0.365 -0.1523 -1.7164  2.2419
  536TIP3    H223100   1.264   1.960   0.275 -0.3693  0.0578 -0.0749
  537TIP3   OH223101   2.174   2.342  13.385  0.4936  0.4999 -0.0182
  537TIP3    H123102   2.110   2.410  13.364 -0.2224 -0.1865 -0.1201
  537TIP3    H223103   2.124   2.260  13.382  1.2982 -0.0177  0.2685
  538TIP3   OH223104   6.204   2.868   0.329  0.4362 -0.2020 -0.0265
  538TIP3    H123105   6.116   2.876   0.365  0.1969 -1.2373 -0.3613
  538TIP3    H223106   6.228   2.957   0.303 -0.4275  0.1130  0.2370
  539TIP3   OH223107   3.767   6.444  14.026 -0.2849 -0.1157  0.0056
  539TIP3    H123108   3.684   6.398  14.014  0.3944 -1.9788  1.8314
  539TIP3    H223109   3.822   6.413  13.954 -1.1899  1.3265 -1.3683
  540TIP3   OH223110   5.758   1.026   3.957  0.2810 -0.0076 -0.1840
  540TIP3    H123111   5.797   1.108   3.929 -0.8591  0.5111 -0.3231
  540TIP3    H223112   5.785   1.015   4.047  0.3596  0.5788 -0.1366
  541TIP3   OH223113   0.306   1.165  13.060 -0.5305  0.3659 -0.1418
  541TIP3    H123114   0.264   1.122  12.985 -0.7277  0.9149 -0.3453
  541TIP3    H223115   0.362   1.096  13.098  0.8030  0.4910 -1.7282
  542TIP3   OH223116   1.245   4.185  17.196  0.0112 -0.6819  0.4704
  542TIP3    H123117   1.247   4.162  17.103 -1.0873  1.2061 -0.0730
  542TIP3    H223118   1.337   4.204  17.218  0.4491 -2.2209  0.1192
  543TIP3   OH223119   6.646   5.672  11.551 -0.7960 -0.7835 -0.1437
  543TIP3    H123120   6.573   5.675  11.488 -0.4636  3.7116 -0.6996
  543TIP3    H223121   6.713   5.622  11.506 -1.6644 -0.3137 -2.1201
  544TIP3   OH223122   6.507   5.813  16.613  0.2274  0.4097  0.2643
  544TIP3    H123123   6.450   5.875  16.567 -1.6186 -1.4043 -0.0290
  544TIP3    H223124   6.573   5.789  16.548 -0.4475  0.3029 -0.3990
  545TIP3   OH223125   4.249   6.135   1.551  0.8057 -0.5781 -0.3702
  545TIP3    H123126   4.180   6.069   1.558 -0.1470  0.2055 -1.7143
  545TIP3    H223127   4.293   6.134   1.636  1.1812 -3.2948 -0.5060
  546TIP3   OH223128   1.543   5.770  13.717 -0.4272  0.4741  0.1526
  546TIP3    H123129   1.596   5.715  13.659 -0.2873  0.9427 -0.1686
  546TIP3    H223130   1.460   5.723  13.725  0.3794 -0.8388  1.5345
  547TIP3   OH223131   1.670   0.517  13.006  0.4844  0.2213  0.2237
  547TIP3    H123132   1.743   0.460  12.981  0.3619 -0.3705  1.1950
  547TIP3    H223133   1.652   0.568  12.927  2.1273  0.5671  0.0382
  548TIP3   OH223134   4.600   3.421   2.623 -0.6479 -0.0170  0.3349
  548TIP3    H123135   4.647   3.471   2.557 -3.5239  0.9102 -1.2182
  548TIP3    H223136   4.594   3.479   2.699  0.6429 -0.1604  0.5590
  549TIP3   OH223137   3.126   0.792   4.967  0.6974  0.2896 -0.1662
  549TIP3    H123138   3.052   0.732   4.972 -1.0476  2.3534  0.2098
  549TIP3    H223139   3.105   0.850   4.894  1.0527  1.9982  1.0358
  550TIP3   OH223140   4.574   4.589  13.091 -0.4575  0.6050  0.2933
  550TIP3    H123141   4.656   4.592  13.140 -0.4514 -1.6182  0.5090
  550TIP3    H223142   4.512   4.635  13.148 -0.0124 -0.2737  1.5493
  551TIP3   OH223143   4.543   6.350  14.305 -0.4802 -0.1054 -0.2165
  551TIP3    H123144   4.449   6.351  14.322 -0.3965  0.1662  0.2357
  551TIP3    H223145   4.568   6.257  14.309 -0.8609 -0.2630 -1.1113
  552TIP3   OH223146   2.655   5.515   5.515  0.1692  0.3762 -0.1107
  552TIP3    H123147   2.579   5.465   5.543 -0.4697  0.0838 -2.2325
  552TIP3    H223148   2.729   5.457   5.532 -0.0417  0.6088  1.8267
  553TIP3   OH223149   4.713   6.159  11.921 -0.4396  0.6119 -0.4917
  553TIP3    H123150   4.684   6.069  11.909  0.5172  0.0678  0.9913
  553TIP3    H223151   4.724   6.193  11.832  1.2197 -1.4200 -1.1503
  554TIP3   OH223152   0.098   3.288   4.829  0.6511  0.1158 -0.4887
  554TIP3    H123153   0.052   3.361   4.788  0.7768  1.2132  1.1932
  554TIP3    H223154   0.190   3.313   4.826  0.5789  0.8942  1.5173
  555TIP3   OH223155   1.771   1.763   0.649 -0.3869 -0.4880 -0.6007
  555TIP3    H123156   1.738   1.674   0.662  0.6151 -0.7316  0.4216
  555TIP3    H223157   1.859   1.751   0.615  0.0291  0.0902  0.2404
  556TIP3   OH223158   5.422   6.796  16.647 -0.5450  0.9929  0.0835
  556TIP3    H123159   5.493   6.836  16.597  0.0827  0.6507  0.6822
  556TIP3    H223160   5.466   6.733  16.704 -1.5211 -0.8057 -1.0564
  557TIP3   OH223161   1.777   2.711   2.475  0.5528  0.1138 -0.4033
  557TIP3    H123162   1.783   2.789   2.529  1.1498 -1.0605  1.3174
  557TIP3    H223163   1.867   2.696   2.444  0.2724  0.6018 -1.4848
  558TIP3   OH223164   1.944   1.340   2.669  0.0607  0.1317 -0.6731
  558TIP3    H123165   1.857   1.334   2.707  0.1592 -0.0921 -0.4834
  558TIP3    H223166   2.003   1.316   2.741  0.2238 -0.7336 -1.0936
  559TIP3   OH223167   0.483   3.716  16.537  0.1236  0.5983 -0.0569
  559TIP3    H123168   0.568   3.674  16.529 -0.6555 -0.9035 -0.8915
  559TIP3    H223169   0.428   3.651  16.582 -1.0306  0.7901 -1.1105
  560TIP3   OH223170   2.574   3.716   1.590 -0.2729  0.0333 -0.5362
  560TIP3    H123171   2.541   3.647   1.648  1.1640  0.2369  0.5897
  560TIP3    H223172   2.515   3.715   1.515  1.2421 -4.3981 -2.0169
  561TIP3   OH223173   2.356   3.410  13.544  0.4871  0.1090  0.6384
  561TIP3    H123174   2.380   3.333  13.492 -2.9188 -0.3835 -0.4899
  561TIP3    H223175   2.329   3.375  13.629 -0.9009 -0.0003  0.1820
  562TIP3   OH223176   0.503   0.918   1.289 -0.1481  0.2910  0.0145
  562TIP3    H123177   0.468   0.974   1.358 -2.6010 -0.6744 -0.3601
  562TIP3    H223178   0.452   0.838   1.293  1.2784 -0.7668 -1.3880
  563TIP3   OH223179   4.636   0.256  15.044 -0.2599  0.1218  0.5766
  563TIP3    H123180   4.646   0.241  15.138 -0.3204 -0.1424  0.5426
  563TIP3    H223181   4.631   0.351  15.035 -1.0157  0.1222  0.9209
  564TIP3   OH223182   1.201   6.628   6.245  0.7949  0.1179  0.7698
  564TIP3    H123183   1.161   6.714   6.257  2.0082  0.7077  0.7845
  564TIP3    H223184   1.289   6.637   6.282  0.7385 -1.3143  1.3043
  565TIP3   OH223185   6.519   0.936   1.896 -0.1188 -0.5038  0.8290
  565TIP3    H123186   6.424   0.925   1.896 -0.0388 -2.0133 -1.8444
  565TIP3    H223187   6.534   1.017   1.847 -0.0127  0.1110  1.8486
  566TIP3   OH223188   2.190   4.510   2.588 -0.1594 -0.3494 -0.0580
  566TIP3    H123189   2.273   4.552   2.567 -0.1949 -0.0553  0.3667
  566TIP3    H223190   2.140   4.513   2.507  1.1077 -2.6334 -1.0300
  567TIP3   OH223191   0.327   3.634  12.009  0.5110  0.5024 -0.4795
  567TIP3    H123192   0.261   3.701  11.991  1.9940  1.7662 -1.3479
  567TIP3    H223193   0.338   3.588  11.926  2.3889  1.8350 -1.0107
  568TIP3   OH223194   5.581   6.276  16.226  0.3014  0.3487  0.1026
  568TIP3    H123195   5.487   6.266  16.242  0.6018 -1.9105  0.7403
  568TIP3    H223196   5.619   6.292  16.312  0.6248  0.1155  0.0028
  569TIP3   OH223197   2.024   4.309  11.170  0.4727 -0.1057 -0.0953
  569TIP3    H123198   2.076   4.365  11.111 -0.0043 -0.1845 -0.6074
  569TIP3    H223199   2.027   4.222  11.129 -0.7493  0.0686 -0.6081
  570TIP3   OH223200   6.740   6.170   3.647  0.5953 -0.4078 -0.0551
  570TIP3    H123201   6.712   6.079   3.641  1.2464 -0.7058  1.1544
  570TIP3    H223202   6.680   6.209   3.711 -0.9716  0.5727 -1.9773
  571TIP3   OH223203   3.290   6.149  12.220 -0.2627 -0.3210 -0.6666
  571TIP3    H123204   3.282   6.243  12.204  0.1474 -0.3684 -1.1829
  571TIP3    H223205   3.353   6.119  12.155  0.7058 -0.6972  0.4042
  572TIP3   OH223206   6.013   5.281  14.286 -0.5616 -0.0829  0.0049
  572TIP3    H123207   6.000   5.325  14.370  1.7381 -1.3732  1.1227
  572TIP3    H223208   6.028   5.352  14.223  0.2803  0.8181  1.1926
  573TIP3   OH223209   0.525   6.572   3.274 -0.2198  0.0805  0.2992
  573TIP3    H123210   0.618   6.559   3.292 -0.4662 -0.0796  1.4866
  573TIP3    H223211   0.509   6.520   3.194  0.8355  0.6375 -0.2903
  574TIP3   OH223212   1.271   0.763   5.421 -0.2094 -0.3897  0.2117
  574TIP3    H123213   1.318   0.710   5.486 -0.7536 -0.2630  0.7234
  574TIP3    H223214   1.308   0.851   5.431  0.7988 -0.6883 -0.7413
  575TIP3   OH223215   3.434   1.838  13.058  0.0438  0.7096 -0.0266
  575TIP3    H123216   3.452   1.912  12.999 -0.5946  1.1780  0.3495
  575TIP3    H223217   3.513   1.784  13.054  0.0040  0.7109 -1.3379
  576TIP3   OH223218   6.731   0.889   6.073  0.1279  0.3063 -0.0857
  576TIP3    H123219   6.818   0.910   6.108 -0.6126  0.4785  1.7967
  576TIP3    H223220   6.678   0.967   6.092 -0.0940  0.9048 -2.7315
  577TIP3   OH223221   5.696   0.321   4.052  0.1825 -0.0115 -0.0548
  577TIP3    H123222   5.698   0.241   4.000  0.5417 -0.0286 -0.0133
  577TIP3    H223223   5.631   0.376   4.008  1.4064  0.4934 -1.2939
  578TIP3   OH223224   5.129   4.472  13.572 -0.0932  0.1808 -0.0535
  578TIP3    H123225   5.063   4.429  13.626 -0.2928  0.1306 -0.3334
  578TIP3    H223226   5.088   4.555  13.546 -1.2591 -1.0989 -2.6539
  579TIP3   OH223227   3.313   0.012  12.472  0.4319  0.3569 -0.2195
  579TIP3    H123228   3.356  -0.072  12.455  1.2120  0.6069  0.4937
  579TIP3    H223229   3.367   0.054  12.538 -0.1323  1.2930 -0.3376
  580TIP3   OH223230   0.009   0.678   4.158  0.3496 -0.5053  0.0363
  580TIP3    H123231   0.056   0.747   4.110  0.8624  0.0713  1.3274
  580TIP3    H223232  -0.072   0.665   4.108 -0.2444  1.7840  0.2959
  581TIP3   OH223233   2.073   3.074  15.301 -0.8512  0.0854 -0.1052
  581TIP3    H123234   2.041   3.016  15.370  2.9229 -0.2614  1.5858
  581TIP3    H223235   2.133   3.019  15.250  2.2854  2.1151  1.1189
  582TIP3   OH223236   2.822   3.351  14.834  0.1819 -0.1930  0.0146
  582TIP3    H123237   2.772   3.290  14.779  0.3154  0.1022 -0.4414
  582TIP3    H223238   2.758   3.387  14.894 -0.1651  0.1942 -0.5739
  583TIP3   OH223239   2.046   4.800  16.729 -0.2581  0.1409 -0.3247
  583TIP3    H123240   2.116   4.780  16.667 -0.5046 -1.2773 -0.1758
  583TIP3    H223241   1.990   4.862  16.681 -0.4750 -0.9618 -1.5675
  584TIP3   OH223242   2.318   4.674   2.337  0.0139 -0.0976 -0.3232
  584TIP3    H123243   2.368   4.726   2.275  0.4076 -0.2949 -0.1802
  584TIP3    H223244   2.226   4.687   2.312  0.0094  1.6987  0.5271
  585TIP3   OH223245   2.570   4.648  11.486 -0.1223  0.0110 -0.6222
  585TIP3    H123246   2.511   4.670  11.414  1.3396 -0.7848 -2.1273
  585TIP3    H223247   2.646   4.608  11.444  0.3948 -1.3377  1.4475
  586TIP3   OH223248   3.805   1.217   4.172 -0.2102 -0.4137 -0.4196
  586TIP3    H123249   3.864   1.142   4.168 -1.3686 -1.3497 -0.4295
  586TIP3    H223250   3.860   1.289   4.205  0.6825 -1.5073  0.5863
  587TIP3   OH223251   0.833   0.391   2.489  0.3104  0.2399  0.1928
  587TIP3    H123252   0.866   0.397   2.578  2.1117  0.3915 -0.4591
  587TIP3    H223253   0.890   0.448   2.438  0.4354 -1.1978 -1.3506
  588TIP3   OH223254   4.929   2.778   1.955 -0.4898 -0.4600 -0.5978
  588TIP3    H123255   4.836   2.755   1.964 -0.5935 -0.3537 -1.3179
  588TIP3    H223256   4.930   2.874   1.957 -0.1402 -0.4694  1.6532
  589TIP3   OH223257   3.858   0.256   0.280 -0.1922  0.8453  0.0272
  589TIP3    H123258   3.814   0.243   0.363  1.3454  0.4368  0.8056
  589TIP3    H223259   3.950   0.271   0.303  0.3698  0.1452 -1.6198
  590TIP3   OH223260   3.647   4.658  14.848 -0.4502  0.4141 -0.7673
  590TIP3    H123261   3.675   4.746  14.827 -1.0378  0.8032  0.0166
  590TIP3    H223262   3.579   4.637  14.783  0.4120  0.1220 -1.6006
  591TIP3   OH223263   0.529   5.457  14.826 -0.9230  0.2238  0.2630
  591TIP3    H123264   0.593   5.475  14.895 -1.2946  0.7255  0.4838
  591TIP3    H223265   0.581   5.454  14.745 -0.8725  2.9342  0.1090
  592TIP3   OH223266   1.774   1.354  14.945 -0.2609 -0.1280  0.5863
  592TIP3    H123267   1.763   1.294  14.871 -0.4634  0.2322  0.3172
  592TIP3    H223268   1.725   1.432  14.919 -1.0012 -0.2952  1.4485
  593TIP3   OH223269   0.546   0.320  11.935 -0.3604  0.1245  0.5448
  593TIP3    H123270   0.461   0.275  11.942  0.0315 -0.8578 -0.7178
  593TIP3    H223271   0.540   0.391  11.998 -1.6480 -0.6982  1.4051
  594TIP3   OH223272   5.685   3.405   1.647 -0.5924  1.1221  0.6713
  594TIP3    H123273   5.632   3.397   1.568  0.3460 -1.0051  0.1869
  594TIP3    H223274   5.674   3.496   1.674 -2.1918  1.4872 -0.9976
  595TIP3   OH223275   3.587   1.085   2.764 -0.1123 -0.4142 -0.3703
  595TIP3    H123276   3.522   1.151   2.741  0.2358 -0.1669 -0.6700
  595TIP3    H223277   3.566   1.059   2.853  0.7440  1.3152  0.3867
  596TIP3   OH223278   2.083   4.733   1.767 -0.3972  0.2281 -0.4060
  596TIP3    H123279   2.006   4.789   1.762 -0.4207  0.1300 -1.4377
  596TIP3    H223280   2.068   4.666   1.700  0.4930  0.0959 -0.4843
  597TIP3   OH223281   2.923   4.414  11.239  0.0454  0.2930 -0.4370
  597TIP3    H123282   2.858   4.447  11.177 -0.1558 -0.0539 -0.4145
  597TIP3    H223283   3.002   4.402  11.186 -0.2391 -0.3815 -0.7199
  598TIP3   OH223284   0.112   4.619   2.680 -0.0552  0.8764 -0.1813
  598TIP3    H123285   0.198   4.601   2.643  0.0874 -0.2323  0.6249
  598TIP3    H223286   0.100   4.713   2.670  1.3057  1.0625 -0.1663
  599TIP3   OH223287   5.399   1.383  12.748 -0.3446  0.4771 -0.3523
  599TIP3    H123288   5.427   1.390  12.839 -1.9896  2.2594  0.0938
  599TIP3    H223289   5.336   1.311  12.748 -1.6245  1.5345  0.3545
  600TIP3   OH223290   2.475   2.864  15.674  0.3824  0.2213 -0.1885
  600TIP3    H123291   2.519   2.781  15.692  1.8388  1.0385  0.1828
  600TIP3    H223292   2.542   2.918  15.632  0.1440  1.9436  1.5131
  601TIP3   OH223293   3.457   2.727   0.129  0.1071  0.3986  0.2556
  601TIP3    H123294   3.545   2.690   0.130 -0.8930 -2.2168  2.1349
  601TIP3    H223295   3.446   2.766   0.217 -0.5200  0.9829 -0.0656
  602TIP3   OH223296   6.266   4.886  15.002 -0.4701  0.1934 -0.6216
  602TIP3    H123297   6.237   4.803  14.965  1.1889 -0.2127 -1.0858
  602TIP3    H223298   6.320   4.925  14.933  1.5764  0.0446  0.8297
  603TIP3   OH223299   5.603   0.645   3.634  0.8743 -0.3476 -0.2877
  603TIP3    H123300   5.579   0.559   3.600 -0.5585  0.2601 -0.9092
  603TIP3    H223301   5.609   0.633   3.728 -0.3864 -0.9086 -0.2629
  604TIP3   OH223302   2.737   1.843   2.430  0.2021 -0.4777 -0.5614
  604TIP3    H123303   2.800   1.830   2.359 -0.3948 -2.8681 -0.7371
  604TIP3    H223304   2.792   1.860   2.507  0.8790  1.1805 -1.3454
  605TIP3   OH223305   2.660   2.171   1.159  0.0662  0.0524  0.0004
  605TIP3    H123306   2.734   2.145   1.214  0.9121  0.9158 -0.6788
  605TIP3    H223307   2.592   2.108   1.178  1.5491 -1.8107 -0.5666
  606TIP3   OH223308   2.684   6.393   0.181 -0.5665 -0.9453  0.3983
  606TIP3    H123309   2.723   6.344   0.253 -0.5069  0.2247  1.1928
  606TIP3    H223310   2.750   6.457   0.157 -1.6060  0.4551  1.1471
  607TIP3   OH223311   1.546   0.122  13.019 -0.0438  0.0299  0.4330
  607TIP3    H123312   1.541   0.196  12.958  1.1752  0.1772  0.4980
  607TIP3    H223313   1.574   0.048  12.966  0.3268 -0.0053  0.6759
  608TIP3   OH223314   0.510   1.742   3.994  0.1051 -0.7057 -0.3375
  608TIP3    H123315   0.449   1.800   4.039 -1.9155 -2.5489 -0.5479
  608TIP3    H223316   0.557   1.799   3.934 -0.9117  0.9068  0.3323
  609TIP3   OH223317   3.531   6.542   2.513 -0.6328  0.1356  0.2195
  609TIP3    H123318   3.544   6.528   2.419  0.2912 -2.2885  0.6124
  609TIP3    H223319   3.490   6.628   2.519  0.2872  0.8634 -2.3183
  610TIP3   OH223320   6.773   2.142   1.951  0.0603  0.4003 -0.7859
  610TIP3    H123321   6.817   2.057   1.955  0.8483  0.7577 -1.4793
  610TIP3    H223322   6.833   2.202   1.996 -0.5369  0.5748 -0.2166
  611TIP3   OH223323   6.546   5.738   1.563 -0.3732  0.2599  0.5566
  611TIP3    H123324   6.540   5.705   1.652 -0.4125 -0.6875  0.2178
  611TIP3    H223325   6.586   5.667   1.513 -0.3180  0.7854 -0.1753
  612TIP3   OH223326   0.589   5.264   3.114  0.2764  0.1027  0.4492
  612TIP3    H123327   0.499   5.298   3.109  0.3262  0.4860  1.8747
  612TIP3    H223328   0.643   5.341   3.134  1.0128 -0.0273 -0.9256
  613TIP3   OH223329   4.656   2.100   4.735  0.2928  0.6172 -0.6096
  613TIP3    H123330   4.667   2.016   4.778  0.5307  1.0286  0.1664
  613TIP3    H223331   4.679   2.084   4.644  1.0927  0.0158 -0.3129
  614TIP3   OH223332   2.576   6.164  12.592  0.1800 -0.3084  0.0223
  614TIP3    H123333   2.645   6.139  12.532 -2.0028 -1.0184 -2.3627
  614TIP3    H223334   2.552   6.082  12.637  0.3378 -0.2413  0.2271
  615TIP3   OH223335   3.831   5.895   4.808  0.0155  0.7350  0.6017
  615TIP3    H123336   3.855   5.973   4.759  0.1999 -0.5416 -1.4848
  615TIP3    H223337   3.900   5.832   4.789 -1.8571 -1.0788 -0.7217
  616TIP3   OH223338   4.805   3.699  12.220  0.2454  0.5540 -0.1839
  616TIP3    H123339   4.765   3.689  12.306  0.6791  1.2369  0.1062
  616TIP3    H223340   4.859   3.620  12.208  0.0560  0.3844  0.0994
  617TIP3   OH223341   2.680   4.079  11.136  0.4935  0.0924 -0.5411
  617TIP3    H123342   2.607   4.139  11.122 -0.9048 -1.4440 -0.1593
  617TIP3    H223343   2.719   4.066  11.050  0.6780  1.3445 -0.6581
  618TIP3   OH223344   0.539   2.192   4.609  0.7450 -0.3821 -0.0210
  618TIP3    H123345   0.573   2.270   4.653 -0.2908  1.1908 -1.8696
  618TIP3    H223346   0.535   2.216   4.517 -1.1154 -2.0650 -0.4402
  619TIP3   OH223347   4.462   4.350   4.530  0.0183  0.1697 -0.1528
  619TIP3    H123348   4.534   4.413   4.524  0.3744 -0.2334 -0.1651
  619TIP3    H223349   4.471   4.311   4.617  0.4740 -0.6542 -0.5553
  620TIP3   OH223350   1.155   6.012  16.027 -0.2377 -0.0580 -0.4261
  620TIP3    H123351   1.242   5.975  16.043 -0.1963 -0.0669 -0.6567
  620TIP3    H223352   1.158   6.040  15.935  0.0851  1.5112  0.0344
  621TIP3   OH223353   4.154   1.629   4.305  0.2073 -0.2690 -0.0716
  621TIP3    H123354   4.223   1.660   4.246  0.3081  0.4957  0.4406
  621TIP3    H223355   4.083   1.692   4.295 -0.4604 -1.0874 -0.6465
  622TIP3   OH223356   4.434   6.597   0.929 -0.3404 -0.2728  0.0069
  622TIP3    H123357   4.349   6.606   0.886 -0.7139 -2.0189  0.3079
  622TIP3    H223358   4.440   6.673   0.987 -1.3793  0.2486 -0.5512
  623TIP3   OH223359   2.920   3.979   2.261 -0.3971 -0.4871 -0.1408
  623TIP3    H123360   2.902   4.041   2.332 -1.2337 -2.1636  1.1826
  623TIP3    H223361   3.002   4.010   2.222  0.1627  0.4099  1.6488
  624TIP3   OH223362   1.175   3.184   4.725 -0.1521  0.5296  0.8608
  624TIP3    H123363   1.268   3.199   4.707 -0.6362  0.4461 -2.1766
  624TIP3    H223364   1.169   3.091   4.749  0.5500  0.5967  1.3115
  625TIP3   OH223365   0.167   5.672   0.173  0.7025 -0.1753  0.1805
  625TIP3    H123366   0.176   5.767   0.164  2.5280 -0.2866  0.3842
  625TIP3    H223367   0.256   5.641   0.192  0.3146 -2.0204 -0.7518
  626TIP3   OH223368   3.012   3.043  13.049  0.0106  0.3130  0.5855
  626TIP3    H123369   3.075   2.987  13.005  0.1811  2.3659 -1.9954
  626TIP3    H223370   2.941   2.984  13.073  0.1981 -1.0849 -1.9360
  627TIP3   OH223371   2.311   0.146   1.561 -0.2252 -0.0590 -0.2312
  627TIP3    H123372   2.381   0.125   1.499  0.3987  1.0166  0.0827
  627TIP3    H223373   2.352   0.135   1.647 -0.1634  1.3900 -0.0477
  628TIP3   OH223374   1.665   1.324  12.069  0.1412 -0.0131  0.0565
  628TIP3    H123375   1.611   1.248  12.048  1.8051 -1.5332  1.0494
  628TIP3    H223376   1.701   1.305  12.156  3.2688  0.2862 -1.0641
  629TIP3   OH223377   4.080   5.914   3.870  0.2863  0.1981 -0.3646
  629TIP3    H123378   4.017   5.980   3.898 -0.9664 -0.4728 -1.4907
  629TIP3    H223379   4.112   5.946   3.786  1.7944  0.7341  0.3764
  630TIP3   OH223380   5.349   5.313  16.502 -0.6598  0.0683 -0.3310
  630TIP3    H123381   5.375   5.338  16.591  1.0908 -0.1586 -0.7402
  630TIP3    H223382   5.254   5.297  16.509 -0.6496  0.4788  1.3821
  631TIP3   OH223383   0.479   2.232   4.338  0.4501  0.4921 -0.2033
  631TIP3    H123384   0.396   2.275   4.357  0.5290  1.0622 -1.0799
  631TIP3    H223385   0.502   2.263   4.250  0.0777 -1.9990 -1.2746
  632TIP3   OH223386   6.049   4.503   4.261  0.3999 -0.1229 -0.3199
  632TIP3    H123387   6.013   4.453   4.188  1.2396 -0.8067 -0.2807
  632TIP3    H223388   6.134   4.535   4.229  0.6092 -0.1203  0.2320
  633TIP3   OH223389   5.028   1.935  12.882  0.0357  0.2743 -0.7654
  633TIP3    H123390   5.005   1.845  12.860 -0.1248  0.5565 -1.7860
  633TIP3    H223391   5.112   1.950  12.838 -0.7622  1.1583 -2.0484
  634TIP3   OH223392   5.002   6.492  15.611 -0.3521  0.3282  0.2645
  634TIP3    H123393   4.929   6.431  15.623  1.2008 -1.8620 -0.7888
  634TIP3    H223394   5.038   6.470  15.526  1.7061  1.1737  0.8587
  635TIP3   OH223395   5.793   3.202   4.826 -0.1727  0.6834 -0.1056
  635TIP3    H123396   5.862   3.258   4.790 -0.1497  1.1449  0.6337
  635TIP3    H223397   5.833   3.161   4.903 -1.2327  2.3179  1.3917
  636TIP3   OH223398   1.384   4.440  15.524 -0.4111 -0.0825  0.1204
  636TIP3    H123399   1.457   4.384  15.553 -0.1378  0.2975  0.1737
  636TIP3    H223400   1.425   4.524  15.503 -0.7470 -0.0452 -0.4193
  637TIP3   OH223401   4.950   4.784   4.780 -0.0399 -0.4608 -0.6788
  637TIP3    H123402   4.978   4.693   4.793  1.1177  0.1715  1.9070
  637TIP3    H223403   4.855   4.778   4.768 -0.1094 -1.9607  0.2880
  638TIP3   OH223404   2.521   0.620   4.488 -0.1356  0.8924  0.1475
  638TIP3    H123405   2.438   0.662   4.508  0.8083  2.3203  1.3794
  638TIP3    H223406   2.543   0.649   4.400 -1.7094 -0.8968 -0.8955
  639TIP3   OH223407   2.060   0.974  14.115  0.4365 -0.1582 -0.6140
  639TIP3    H123408   2.103   0.962  14.199  0.0063  0.3579 -0.3203
  639TIP3    H223409   2.080   0.894  14.066  0.2023 -0.7092  0.1821
  640TIP3   OH223410   0.306   3.074   6.015  0.4641  0.1511 -0.2012
  640TIP3    H123411   0.395   3.079   6.050  0.7509  0.8498 -1.0012
  640TIP3    H223412   0.274   3.164   6.016 -0.5831 -0.2100  0.9272
  641TIP3   OH223413   1.261   3.234   5.992  0.2968 -0.3239 -0.0711
  641TIP3    H123414   1.351   3.260   6.006 -0.2406  2.2374 -0.9493
  641TIP3    H223415   1.216   3.255   6.074  0.1630  0.0336 -0.2353
  642TIP3   OH223416   3.752   5.700  15.697  0.2692 -0.1033 -0.5471
  642TIP3    H123417   3.836   5.739  15.674 -0.4902  0.7813 -1.9695
  642TIP3    H223418   3.689   5.772  15.689 -0.6772 -0.8195  0.1798
  643TIP3   OH223419   2.624   1.807   3.450 -0.3749 -0.1167  0.1933
  643TIP3    H123420   2.586   1.784   3.535 -2.1830 -0.3782 -0.6231
  643TIP3    H223421   2.582   1.746   3.389  1.5809 -0.5512 -0.7764
  644TIP3   OH223422   2.215   5.153  15.984 -0.1366  0.0497  0.0005
  644TIP3    H123423   2.160   5.169  15.907 -2.1059 -0.8639  1.1263
  644TIP3    H223424   2.198   5.228  16.041 -2.3161 -1.3885  1.4204
  645TIP3   OH223425   5.412   2.608  15.071  0.2039  0.3303  0.6539
  645TIP3    H123426   5.394   2.624  15.164  1.0169  0.5127  0.7901
  645TIP3    H223427   5.466   2.682  15.044 -0.0750  0.3037  0.0186
  646TIP3   OH223428   6.128   5.663  13.858  0.4029  0.7050  0.0830
  646TIP3    H123429   6.174   5.730  13.907 -0.0988  1.1015  0.0253
  646TIP3    H223430   6.196   5.618  13.808  0.9034  0.3659  1.0522
  647TIP3   OH223431   3.398   3.183   2.713 -0.1446  0.0985 -0.0188
  647TIP3    H123432   3.451   3.104   2.703  1.0613  0.9240 -0.4653
  647TIP3    H223433   3.365   3.178   2.803  1.6948  0.1031  0.7092
  648TIP3   OH223434   3.086   2.274  12.740 -0.3684 -0.5321 -0.2723
  648TIP3    H123435   3.104   2.234  12.825 -0.1537 -0.6579 -0.3763
  648TIP3    H223436   3.111   2.365  12.751  0.5118 -0.7367 -0.4627
  649TIP3   OH223437   1.029   1.733   0.362  0.3170  0.5075  0.6317
  649TIP3    H123438   1.082   1.761   0.437  0.3243  1.0599  0.4302
  649TIP3    H223439   1.014   1.640   0.376  1.0363  0.4233  0.8779
  650TIP3   OH223440   0.358   0.248   1.496  0.4940  0.1942 -0.3258
  650TIP3    H123441   0.276   0.219   1.536 -1.0105  1.8886 -1.9770
  650TIP3    H223442   0.384   0.325   1.548  0.4383  0.3152 -0.4770
  651TIP3   OH223443   3.411   5.991   2.895  0.5683  0.3710 -0.3543
  651TIP3    H123444   3.431   5.899   2.911 -1.9412  0.1052  2.1101
  651TIP3    H223445   3.451   6.037   2.970 -3.2851  0.3620  2.0020
  652TIP3   OH223446   4.246   5.363  12.088 -0.2087 -0.1235 -0.2352
  652TIP3    H123447   4.156   5.333  12.105  0.3848 -1.4735  0.7290
  652TIP3    H223448   4.293   5.347  12.170  0.5548  2.1164 -0.1722
  653TIP3   OH223449   1.655   1.810   6.467 -0.3778 -0.6602 -0.3871
  653TIP3    H123450   1.618   1.748   6.530  0.6691 -1.7131 -0.7465
  653TIP3    H223451   1.581   1.860   6.435 -0.9139  0.0953  1.8614
  654TIP3   OH223452   5.064   5.225  12.209  0.2126  0.3516  0.0207
  654TIP3    H123453   5.121   5.155  12.177  1.8632  1.6950 -0.1524
  654TIP3    H223454   5.001   5.181  12.265  1.0075 -1.3020 -0.3092
  655TIP3   OH223455   1.470   0.586   3.722  0.4182  0.2588 -0.4270
  655TIP3    H123456   1.397   0.573   3.662  0.1220  2.2847 -0.5722
  655TIP3    H223457   1.547   0.587   3.665  0.3044  0.5662 -0.5771
  656TIP3   OH223458   5.060   1.278  14.721  0.6003 -0.0928  0.7363
  656TIP3    H123459   5.050   1.257  14.814  1.0462 -0.7830  0.6313
  656TIP3    H223460   5.150   1.308  14.712  0.3215  0.7791  0.6631
  657TIP3   OH223461   2.498   2.958   5.579  0.1072  0.2579  0.0799
  657TIP3    H123462   2.446   3.032   5.612  0.0545 -0.5065  1.8011
  657TIP3    H223463   2.580   2.964   5.628  1.4367  1.0644 -2.1416
  658TIP3   OH223464   2.114   5.247  15.734 -0.3584  0.0094 -0.1945
  658TIP3    H123465   2.140   5.329  15.692  0.1057 -0.3428 -0.6097
  658TIP3    H223466   2.038   5.217  15.683  0.8353 -0.9475 -1.4832
  659TIP3   OH223467   1.423   4.745  11.506 -0.3331  0.4298  0.4596
  659TIP3    H123468   1.384   4.783  11.427 -0.6258  0.0457  0.4133
  659TIP3    H223469   1.355   4.754  11.573 -0.2538  0.3515  0.5503
  660TIP3   OH223470   5.590   1.675  12.448  0.3253 -0.4432 -0.1432
  660TIP3    H123471   5.539   1.741  12.400 -0.3576 -1.4935 -0.9128
  660TIP3    H223472   5.613   1.610  12.382 -0.1542 -1.6544  0.8505
  661TIP3   OH223473   4.770   6.200  11.617 -0.1137 -0.2690  0.4645
  661TIP3    H123474   4.793   6.259  11.545  1.1548 -0.4994  0.6465
  661TIP3    H223475   4.818   6.119  11.597 -0.5791 -0.6870  1.0298
  662TIP3   OH223476   3.823   5.211   1.581 -0.5164  0.0341 -0.3855
  662TIP3    H123477   3.879   5.174   1.513  0.0719 -2.6211  1.4110
  662TIP3    H223478   3.883   5.242   1.649 -1.1480 -0.0333  0.2283
  663TIP3   OH223479   1.238   4.071   3.019  0.2348  0.0670  0.3615
  663TIP3    H123480   1.305   4.101   3.080 -0.7154  0.4244  1.2545
  663TIP3    H223481   1.220   4.146   2.964  0.6552 -0.0713  0.0280
  664TIP3   OH223482   5.562   5.932   4.116  0.1790  0.3667 -0.4998
  664TIP3    H123483   5.631   5.996   4.135  0.3195  0.5863 -1.7009
  664TIP3    H223484   5.572   5.866   4.184  1.1827  0.7106 -0.2947
  665TIP3   OH223485   6.033   2.101  11.395  0.8563  0.3766  0.2304
  665TIP3    H123486   6.032   2.107  11.491 -0.2538  0.4084  0.2306
  665TIP3    H223487   5.941   2.110  11.369  0.9270 -1.2087 -0.7376
  666TIP3   OH223488   6.603   6.466   3.515 -0.4048  0.3720 -0.1082
  666TIP3    H123489   6.531   6.515   3.555 -1.3155 -0.8265 -0.2087
  666TIP3    H223490   6.682   6.510   3.544 -1.0109 -0.2802  2.8381
  667TIP3   OH223491   5.469   2.640  16.176 -0.2250 -0.3321 -0.5755
  667TIP3    H123492   5.411   2.600  16.110  1.4055 -1.1621 -1.5751
  667TIP3    H223493   5.537   2.574  16.191 -0.4246 -0.0691  1.8234
  668TIP3   OH223494   0.731   6.102  16.686  1.1587 -0.6291  0.5749
  668TIP3    H123495   0.719   6.149  16.768  3.7823  1.3865 -0.0363
  668TIP3    H223496   0.643   6.088  16.653  0.1293  0.9717  2.4159
  669TIP3   OH223497   6.634   3.724   1.645 -0.1799 -0.2804 -0.0206
  669TIP3    H123498   6.657   3.725   1.738  1.3980 -1.0692 -0.3673
  669TIP3    H223499   6.623   3.632   1.624 -1.0647 -0.0729 -0.5085
  670TIP3   OH223500   4.569   4.959   4.570 -0.5525  0.1926 -0.0497
  670TIP3    H123501   4.517   5.032   4.602  0.8185  0.5305  1.5461
  670TIP3    H223502   4.616   4.994   4.495  0.3684  1.1085  0.9175
  671TIP3   OH223503   3.993   3.243  11.540  0.1130  0.0717 -0.5540
  671TIP3    H123504   4.071   3.299  11.540  1.3030 -1.5181 -0.7449
  671TIP3    H223505   3.984   3.214  11.631 -0.8621  1.0144 -0.3300
  672TIP3   OH223506   0.819   6.765  10.565  0.3228  0.1391 -0.1750
  672TIP3    H123507   0.777   6.685  10.533 -0.6194  0.8100 -0.6658
  672TIP3    H223508   0.794   6.771  10.657  1.1851 -0.6196  0.1195
  673TIP3   OH223509   1.809   2.138  11.615 -0.4537 -0.2326 -0.1219
  673TIP3    H123510   1.831   2.086  11.538 -0.2083 -2.0267  1.1111
  673TIP3    H223511   1.877   2.206  11.618  1.8074 -2.4006  0.5777
  674TIP3   OH223512   4.666   4.510   4.575 -0.3823 -0.1954 -0.1586
  674TIP3    H123513   4.659   4.592   4.624 -0.7629 -0.6774  0.6104
  674TIP3    H223514   4.748   4.518   4.527 -0.6760  0.8617 -0.5256
  675TIP3   OH223515   2.588   3.041   3.247  0.0857  0.5573  0.5214
  675TIP3    H123516   2.653   3.013   3.312  0.6308 -0.8273 -0.5727
  675TIP3    H223517   2.589   3.137   3.251  2.2359  0.5750  0.4996
  676TIP3   OH223518   3.738   4.711   1.715  0.6478  0.0201  0.6286
  676TIP3    H123519   3.826   4.745   1.731  0.4454  0.0753  1.6772
  676TIP3    H223520   3.741   4.679   1.625  1.3286  1.3139  0.1575
  677TIP3   OH223521   5.578   4.864  15.569 -0.4420  0.3114 -0.2920
  677TIP3    H123522   5.557   4.773  15.549 -0.5259  0.1111  0.6318
  677TIP3    H223523   5.524   4.915  15.509 -0.9267 -0.2411 -0.3418
  678TIP3   OH223524   3.345   4.420   6.142  0.3235  0.0482  0.5952
  678TIP3    H123525   3.398   4.499   6.129  1.6676 -0.9249 -0.2084
  678TIP3    H223526   3.259   4.442   6.107  1.0741  0.7377 -0.9219
  679TIP3   OH223527   0.595   2.232  13.823  0.7524 -0.0356  0.4567
  679TIP3    H123528   0.648   2.162  13.786  1.0158 -0.0305  0.8157
  679TIP3    H223529   0.505   2.211  13.796  0.9842  0.2098 -0.5416
  680TIP3   OH223530   3.188   4.710  15.977 -0.6974  0.5686 -0.6492
  680TIP3    H123531   3.271   4.726  16.023 -0.3714  0.0791 -1.0516
  680TIP3    H223532   3.130   4.674  16.044 -0.2661 -0.0157 -0.5739
  681TIP3   OH223533   1.855   2.120  16.644  0.3222  0.3657  0.4429
  681TIP3    H123534   1.852   2.115  16.548 -1.5267  2.5277  0.2931
  681TIP3    H223535   1.856   2.029  16.673 -0.1731 -0.3618 -1.6310
  682TIP3   OH223536   6.646   1.274  12.438 -0.2396  0.2472  0.2642
  682TIP3    H123537   6.558   1.261  12.403  0.4984  0.7370 -1.9687
  682TIP3    H223538   6.681   1.185  12.447 -0.8081  0.0700  0.7411
  683TIP3   OH223539   4.374   4.834  16.740  0.0874 -0.1013  0.1487
  683TIP3    H123540   4.377   4.803  16.649  1.0416  0.3380  0.0173
  683TIP3    H223541   4.462   4.866  16.757  0.1313 -0.8628  1.4873
  684TIP3   OH223542   1.317   4.750  13.297  0.2198  0.2506 -0.5284
  684TIP3    H123543   1.259   4.825  13.284  0.3130 -0.0128 -2.7531
  684TIP3    H223544   1.307   4.697  13.218  0.8172 -1.6565  0.6014
  685TIP3   OH223545   6.562   2.457   2.407  0.2039  0.6639  0.1759
  685TIP3    H123546   6.567   2.404   2.328 -0.4911 -0.2046  0.6954
  685TIP3    H223547   6.506   2.531   2.383 -1.2975 -0.3984  0.2707
  686TIP3   OH223548   5.364   5.509   4.768 -0.5848  0.0053 -0.1610
  686TIP3    H123549   5.363   5.483   4.676  0.7368  0.0621 -0.2137
  686TIP3    H223550   5.361   5.427   4.816 -1.7274 -0.0112 -0.2270
  687TIP3   OH223551   4.051   0.755  13.761 -0.3287 -0.5061  0.3357
  687TIP3    H123552   4.003   0.720  13.686  0.0704  0.4725 -0.3943
  687TIP3    H223553   4.126   0.696  13.772  0.2055 -0.0383 -0.7239
  688TIP3   OH223554   1.492   3.551   3.137 -0.6019 -0.1470 -0.0558
  688TIP3    H123555   1.534   3.565   3.222  2.1590 -0.6383 -1.2416
  688TIP3    H223556   1.506   3.458   3.119  0.1090  0.2307 -1.6218
  689TIP3   OH223557   1.862   0.227   5.036  0.1509 -0.3632  0.1560
  689TIP3    H123558   1.776   0.269   5.039 -0.2147 -1.0872  0.2489
  689TIP3    H223559   1.908   0.270   4.964 -0.4334 -0.2355 -0.1478
  690TIP3   OH223560   5.622   0.534  12.764 -0.6679 -0.6003  0.0993
  690TIP3    H123561   5.587   0.615  12.803 -0.7681 -1.3907  1.7739
  690TIP3    H223562   5.561   0.466  12.794  1.6022 -1.8708  2.2097
  691TIP3   OH223563   1.890   6.719  16.152 -0.3523 -0.2664 -0.1371
  691TIP3    H123564   1.942   6.713  16.232 -0.6177 -0.7850 -0.0036
  691TIP3    H223565   1.817   6.777  16.174 -0.7877 -0.9350  0.1957
  692TIP3   OH223566   3.022   3.428   0.103 -0.0504  0.1057 -0.1526
  692TIP3    H123567   3.111   3.398   0.081  1.8557  3.8258  1.5231
  692TIP3    H223568   2.974   3.423   0.020  2.0679 -0.8983 -1.4110
  693TIP3   OH223569   4.970   5.844  10.421 -0.3669 -0.1602  0.5094
  693TIP3    H123570   4.922   5.797  10.490  1.3669 -0.1250  1.8119
  693TIP3    H223571   5.008   5.774  10.367  1.6563 -0.3191  2.0514
  694TIP3   OH223572   5.015   3.515   0.331 -0.9204 -0.1806  0.2572
  694TIP3    H123573   5.081   3.509   0.262  1.4412  0.8986  2.2666
  694TIP3    H223574   5.024   3.433   0.380  0.7124  0.9036  1.9216
  695TIP3   OH223575   2.793   5.838  16.093 -0.1194  1.1457  0.2932
  695TIP3    H123576   2.722   5.882  16.140  0.9820  1.1367  2.0626
  695TIP3    H223577   2.805   5.756  16.141  0.8703  1.0047 -0.1809
  696TIP3   OH223578   2.360   5.361  11.835  0.7588  0.3851  0.0894
  696TIP3    H123579   2.363   5.452  11.806  1.0197  0.7576  1.2411
  696TIP3    H223580   2.347   5.310  11.755 -0.5596  1.5060 -0.4376
  697TIP3   OH223581   1.465   6.586  14.466  0.2527 -0.8832 -0.5930
  697TIP3    H123582   1.468   6.674  14.427 -0.6668 -0.4591  0.2636
  697TIP3    H223583   1.436   6.600  14.556  0.5026 -2.0359 -0.3149
  698TIP3   OH223584   3.642   4.474   2.256 -0.3091 -0.1087 -0.3416
  698TIP3    H123585   3.643   4.454   2.163 -3.1349  0.1191 -0.5230
  698TIP3    H223586   3.549   4.481   2.278  0.2850  0.8075  2.3009
  699TIP3   OH223587   5.073   0.558  16.752  0.0426 -0.4154 -0.2913
  699TIP3    H123588   5.029   0.538  16.835 -0.7370 -0.4042 -0.6929
  699TIP3    H223589   5.166   0.546  16.771 -0.1009 -0.0953  0.6749
  700TIP3   OH223590   6.470   2.320  14.106  0.1939 -0.1630 -0.8285
  700TIP3    H123591   6.477   2.401  14.055  0.8862  1.0779  1.1250
  700TIP3    H223592   6.484   2.347  14.196 -0.1356 -2.4033 -0.0374
  701TIP3   OH223593   1.878   2.549   5.981 -0.4167  0.0014  0.1646
  701TIP3    H123594   1.965   2.521   5.952 -0.8589 -0.2028 -1.0352
  701TIP3    H223595   1.895   2.611   6.051  0.7179  0.4063 -0.4451
  702TIP3   OH223596   3.178   3.826  14.875  0.0721 -0.2811  0.3693
  702TIP3    H123597   3.206   3.776  14.799 -1.6907 -1.6949  0.5907
  702TIP3    H223598   3.108   3.882  14.842  0.6981  0.6312  0.5468
  703TIP3   OH223599   4.279   3.435  17.165 -0.3093  0.3785 -0.1097
  703TIP3    H123600   4.288   3.437  17.070 -1.7254 -2.6355 -0.4295
  703TIP3    H223601   4.240   3.349  17.184 -0.3127  0.9621  3.1832
  704TIP3   OH223602   4.307   6.744  13.109  0.0180  0.0398  0.4718
  704TIP3    H123603   4.256   6.800  13.051 -0.1308 -1.3090 -0.7425
  704TIP3    H223604   4.349   6.805  13.170 -1.5284  1.3251  0.3234
  705TIP3   OH223605   5.501   5.098   1.623  0.0011 -0.0196  0.0634
  705TIP3    H123606   5.466   5.181   1.590 -1.0084 -0.1376  0.7786
  705TIP3    H223607   5.425   5.054   1.661  0.4341 -1.5093 -0.7623
  706TIP3   OH223608   5.082   5.556   1.798 -0.0155  0.4710  0.0324
  706TIP3    H123609   5.121   5.643   1.806 -1.2884  1.2924 -1.9311
  706TIP3    H223610   5.150   5.502   1.759  0.0375  1.2250 -0.9501
  707TIP3   OH223611   3.353   0.013   4.687  0.2777  0.5937  0.5318
  707TIP3    H123612   3.286  -0.019   4.627  0.0152  0.7524  0.7387
  707TIP3    H223613   3.396   0.084   4.639  1.1214 -0.3026 -0.0821
  708TIP3   OH223614   3.215   3.857   0.722  0.6056  0.3636 -0.2238
  708TIP3    H123615   3.167   3.940   0.719  0.7531  0.4703  0.2865
  708TIP3    H223616   3.158   3.795   0.678 -0.0549  0.4642  0.4814
  709TIP3   OH223617   4.737   3.723  13.263  0.0038  0.4388  0.4001
  709TIP3    H123618   4.758   3.737  13.171  1.0069 -0.8299  0.4224
  709TIP3    H223619   4.753   3.808  13.305 -0.0536  0.9017 -0.5044
  710TIP3   OH223620   2.529   0.792   5.692 -0.4115 -0.4771  0.5906
  710TIP3    H123621   2.569   0.879   5.701  2.2049 -1.4035 -0.9446
  710TIP3    H223622   2.480   0.779   5.773 -0.0924  2.0098  1.2711
  711TIP3   OH223623   0.163   0.011   3.683 -0.1628  0.2943 -0.3659
  711TIP3    H123624   0.202  -0.015   3.767 -0.0466 -1.0522 -0.8176
  711TIP3    H223625   0.163   0.107   3.686 -2.8764  0.3905  2.4541
  712TIP3   OH223626   5.663   0.313   2.382 -0.2392 -0.0544 -0.2088
  712TIP3    H123627   5.625   0.391   2.342  1.2500  1.0913  0.5179
  712TIP3    H223628   5.716   0.347   2.454  1.1596 -1.6593 -0.4351
  713TIP3   OH223629   5.897   4.265   1.742  0.0532 -1.0129  0.4819
  713TIP3    H123630   5.846   4.313   1.677 -0.9515 -1.5720  0.8360
  713TIP3    H223631   5.842   4.263   1.820  1.3427 -0.1148  1.4749
  714TIP3   OH223632   4.029   6.662  15.755  0.2789 -0.3462 -0.5889
  714TIP3    H123633   4.077   6.580  15.753 -0.0479 -0.7642  2.8263
  714TIP3    H223634   4.094   6.729  15.735  0.8709 -1.2750 -1.9116
  715TIP3   OH223635   3.283   4.106  16.141  0.1781 -0.6049  0.1180
  715TIP3    H123636   3.330   4.152  16.210  2.7081  0.7136 -2.2936
  715TIP3    H223637   3.344   4.038  16.112 -0.2121 -0.2473 -1.6820
  716TIP3   OH223638   0.290   2.733   4.355  0.1397  0.1853  0.2190
  716TIP3    H123639   0.372   2.734   4.404  0.1049 -0.9870  0.3146
  716TIP3    H223640   0.307   2.676   4.280 -0.6447 -0.2454  0.3594
  717TIP3   OH223641   5.992   5.010   1.227  0.0894 -0.8608  0.2158
  717TIP3    H123642   5.994   4.975   1.316 -0.1976 -0.7026  0.2845
  717TIP3    H223643   6.038   5.094   1.233 -0.4969 -0.5386  0.3557
  718TIP3   OH223644   2.844   4.794   0.777 -0.4891  0.4854 -0.7133
  718TIP3    H123645   2.937   4.815   0.785 -0.6719  1.2281 -0.4872
  718TIP3    H223646   2.843   4.700   0.758  0.2009 -0.4846  3.1137
  719TIP3   OH223647   3.580   0.103  12.559  0.0956 -0.4029 -0.1757
  719TIP3    H123648   3.598   0.052  12.639  0.6065 -2.1381 -1.3285
  719TIP3    H223649   3.634   0.061  12.492 -1.2881  0.1961 -1.7304
  720TIP3   OH223650   2.066   4.564  13.962  0.3409 -0.1012 -0.1402
  720TIP3    H123651   1.987   4.526  13.999 -0.8617  1.0174 -1.4400
  720TIP3    H223652   2.048   4.658  13.958  0.7674 -0.0514 -2.6093
  721TIP3   OH223653   1.712   1.529  15.717  0.5274 -0.0361  0.3075
  721TIP3    H123654   1.792   1.564  15.677  0.0000  0.7171 -0.1152
  721TIP3    H223655   1.663   1.607  15.744  0.0307 -0.4965  0.7500
  722TIP3   OH223656   5.380   1.465  15.377  0.6756 -0.2448  0.1238
  722TIP3    H123657   5.351   1.450  15.467  1.2999  0.1434  0.4027
  722TIP3    H223658   5.463   1.418  15.371  0.6268 -0.2830 -0.2597
  723TIP3   OH223659   1.355   3.877  15.837 -0.2526  0.4417 -0.5200
  723TIP3    H123660   1.330   3.787  15.815  3.2775 -0.8169 -0.1058
  723TIP3    H223661   1.284   3.909  15.892 -2.9768 -1.0126 -2.9119
  724TIP3   OH223662   4.133   6.405   0.784 -0.0791  0.1199  0.3602
  724TIP3    H123663   4.182   6.487   0.772  1.1270 -0.9376 -3.1585
  724TIP3    H223664   4.043   6.428   0.765 -0.0196  0.8984  0.9484
  725TIP3   OH223665   4.367   0.621   6.968  0.3221 -0.3776  0.3726
  725TIP3    H123666   4.429   0.656   6.904 -0.1149 -0.1028  0.0951
  725TIP3    H223667   4.336   0.539   6.929  0.0683 -0.2184  0.2370
  726TIP3   OH223668   2.825   1.354  15.812  0.2278  0.4347 -0.1347
  726TIP3    H123669   2.731   1.368  15.824  0.0974 -0.5030  0.0108
  726TIP3    H223670   2.833   1.262  15.788  1.0407  0.7327 -1.0648
  727TIP3   OH223671   5.417   2.664   0.070  0.6059 -0.2058  0.2999
  727TIP3    H123672   5.416   2.759   0.080 -0.6056 -0.1526 -0.1768
  727TIP3    H223673   5.342   2.634   0.122  0.0164 -0.7521 -0.8346
  728TIP3   OH223674   5.352   4.804  14.801  0.5396 -0.3282  0.2429
  728TIP3    H123675   5.423   4.740  14.803  0.7996 -0.0946 -0.8320
  728TIP3    H223676   5.394   4.887  14.779  0.3206  0.4300  2.3956
  729TIP3   OH223677   6.085   3.051  16.251 -0.3669  0.7253 -0.8315
  729TIP3    H123678   5.990   3.063  16.250 -0.6296 -1.0371 -1.3730
  729TIP3    H223679   6.100   2.982  16.317  0.5665  1.1128 -0.6122
  730TIP3   OH223680   1.585   2.844  14.690 -0.2559  0.4381  0.3040
  730TIP3    H123681   1.591   2.771  14.629 -0.7652  1.5871 -1.1963
  730TIP3    H223682   1.668   2.842  14.738 -0.1913 -0.9879  0.1669
  731TIP3   OH223683   4.306   2.475  11.228  0.3191 -0.2190  0.1166
  731TIP3    H123684   4.337   2.390  11.197 -0.6209 -0.1423 -1.1067
  731TIP3    H223685   4.215   2.480  11.199  0.5823  1.5333 -0.5596
  732TIP3   OH223686   4.862   2.559  11.627  0.3594 -0.1944 -0.1473
  732TIP3    H123687   4.788   2.598  11.672 -0.4348 -0.7287 -0.9560
  732TIP3    H223688   4.824   2.491  11.572  1.4691 -0.5956 -0.4535
  733TIP3   OH223689   1.438   1.700   2.487 -0.3339 -0.4483  0.2090
  733TIP3    H123690   1.504   1.755   2.531 -1.2446  1.3089 -0.5086
  733TIP3    H223691   1.355   1.746   2.502 -0.8104 -0.2738 -2.4419
  734TIP3   OH223692   5.272   5.741  12.806 -0.2020  0.0203  0.3752
  734TIP3    H123693   5.216   5.774  12.736 -0.1653  3.4695  1.8043
  734TIP3    H223694   5.235   5.777  12.886  3.3305  1.6454  1.5046
  735TIP3   OH223695   0.166   6.645   1.031 -0.1271  0.1787  0.1629
  735TIP3    H123696   0.112   6.704   0.978 -0.9085  0.4683  1.2502
  735TIP3    H223697   0.102   6.593   1.081  0.5758 -0.7824  0.0868
  736TIP3   OH223698   6.095   0.874   6.368  0.1701 -0.4672 -0.3661
  736TIP3    H123699   6.011   0.902   6.404 -1.4295 -1.2842 -3.1753
  736TIP3    H223700   6.113   0.790   6.410  0.7350  0.6442  1.7907
  737TIP3   OH223701   1.815   5.642   1.943 -0.2103  0.0401 -0.2494
  737TIP3    H123702   1.796   5.555   1.909  0.4163 -0.2555  0.1359
  737TIP3    H223703   1.874   5.681   1.878  1.6752 -0.8420  0.8486
  738TIP3   OH223704   5.426   1.600   4.306 -0.1623  0.4689  0.9798
  738TIP3    H123705   5.461   1.668   4.249  0.2043  0.3098  1.0172
  738TIP3    H223706   5.343   1.575   4.265  0.2384  0.1434  0.3528
  739TIP3   OH223707   4.651   0.425  13.653 -0.1686 -0.3481  0.1488
  739TIP3    H123708   4.745   0.432  13.639 -0.0056 -0.6330  1.0108
  739TIP3    H223709   4.639   0.340  13.695 -0.8710 -0.5230 -0.3819
  740TIP3   OH223710   3.802   3.203  13.519  0.1479  0.2842 -0.2509
  740TIP3    H123711   3.850   3.137  13.569  1.5389  0.5438 -1.1679
  740TIP3    H223712   3.743   3.154  13.462 -0.1490 -0.0768  0.3648
  741TIP3   OH223713   6.190   2.003   0.428  0.2895 -0.8938  0.7157
  741TIP3    H123714   6.095   1.994   0.438  0.2531 -0.6392  0.6126
  741TIP3    H223715   6.215   2.067   0.494  0.4092 -1.0600  0.8316
  742TIP3   OH223716   1.221   5.466   0.818  0.0206  0.2591 -0.2878
  742TIP3    H123717   1.136   5.425   0.801  0.6606 -0.9342 -0.7187
  742TIP3    H223718   1.260   5.413   0.887  0.6322  0.4704 -0.4621
  743TIP3   OH223719   4.928   6.203  12.083 -0.2733  0.4615  0.4023
  743TIP3    H123720   4.959   6.117  12.111  0.0667  0.0323 -1.2201
  743TIP3    H223721   4.847   6.185  12.035 -1.7395  1.3408  2.3917
  744TIP3   OH223722   4.722   1.887   2.381 -0.4515 -0.0574  0.0789
  744TIP3    H123723   4.659   1.820   2.357 -1.0861  0.7144 -0.4607
  744TIP3    H223724   4.718   1.951   2.310  1.5028 -0.3536 -0.3654
  745TIP3   OH223725   4.124   5.504   2.004 -0.7813  0.8953  0.2064
  745TIP3    H123726   4.084   5.451   1.936 -1.6770  1.1826  0.4946
  745TIP3    H223727   4.085   5.590   1.995  0.8247  1.6084 -0.4001
  746TIP3   OH223728   1.125   2.358   1.122 -0.6076  0.2969  0.5539
  746TIP3    H123729   1.115   2.296   1.195 -0.1369  1.1359  1.3472
  746TIP3    H223730   1.085   2.439   1.153 -1.7783  0.2216 -0.7216
  747TIP3   OH223731   1.125   6.597  12.042 -0.8834  0.7779  0.3932
  747TIP3    H123732   1.138   6.663  11.974  1.1209  0.9662  0.9132
  747TIP3    H223733   1.109   6.516  11.995 -0.1210  1.0192 -0.2925
  748TIP3   OH223734   4.084   6.081   6.438  0.6046  0.4192 -0.8592
  748TIP3    H123735   4.149   6.149   6.455  0.3584  0.1697  1.4414
  748TIP3    H223736   4.119   6.003   6.482 -1.8812  0.6762  1.8927
  749TIP3   OH223737   2.625   3.745  11.433  0.1520  0.1393 -0.1168
  749TIP3    H123738   2.659   3.775  11.349 -1.1958 -0.8769 -1.0649
  749TIP3    H223739   2.535   3.779  11.436  0.6874  1.5865  1.6929
  750TIP3   OH223740   2.300   1.479   4.217 -0.0901  0.2547 -0.7872
  750TIP3    H123741   2.376   1.492   4.161  0.7521 -0.1153  0.2276
  750TIP3    H223742   2.225   1.502   4.162  0.5167 -2.0738 -2.7461
  751TIP3   OH223743   3.668   0.315  15.610 -0.3146  0.0337  0.5525
  751TIP3    H123744   3.745   0.371  15.621  0.8094 -0.9937 -1.4355
  751TIP3    H223745   3.654   0.276  15.696  1.3682  0.3023  0.9765
  752TIP3   OH223746   6.701   0.600   5.596 -0.0594 -0.2816  0.5060
  752TIP3    H123747   6.670   0.649   5.672  0.7468 -1.6796  1.8150
  752TIP3    H223748   6.626   0.597   5.537 -0.7062  0.8589  1.2328
  753TIP3   OH223749   3.088   0.321   5.690 -0.2698  0.4493 -0.3071
  753TIP3    H123750   3.072   0.306   5.783  0.2321 -2.3657 -0.6014
  753TIP3    H223751   3.005   0.302   5.648 -0.6394  2.2042 -0.4562
  754TIP3   OH223752   1.457   6.546   2.253 -0.2541  0.9412 -0.2017
  754TIP3    H123753   1.523   6.613   2.241 -0.7127  1.2072 -1.3818
  754TIP3    H223754   1.439   6.547   2.347  0.4544  1.7748 -0.0603
  755TIP3   OH223755   2.429   0.171  13.115  0.0214 -0.0147  0.6043
  755TIP3    H123756   2.389   0.247  13.073  1.1137  0.4253  0.3116
  755TIP3    H223757   2.479   0.207  13.188  0.2101 -0.5024  0.7247
  756TIP3   OH223758   1.090   0.401   0.953 -0.0785  0.0442  0.2632
  756TIP3    H123759   1.146   0.462   1.001  0.1884  0.6224 -0.7481
  756TIP3    H223760   1.087   0.323   1.008  0.7260  0.4530  0.9136
  757TIP3   OH223761   5.709   3.381  12.700  0.0581  0.1456 -0.1477
  757TIP3    H123762   5.643   3.384  12.631 -0.3958  3.3288  0.2719
  757TIP3    H223763   5.680   3.311  12.758 -0.8435 -1.0262 -1.9271
  758TIP3   OH223764   2.719   4.012  11.813  0.6819 -1.0766  0.1833
  758TIP3    H123765   2.783   4.033  11.744  0.7208 -0.7307  0.3232
  758TIP3    H223766   2.754   4.054  11.891  2.1377 -3.7831  1.1279
  759TIP3   OH223767   1.158   6.631  12.586  0.1749 -0.9775  0.0517
  759TIP3    H123768   1.222   6.565  12.611  0.7697  0.0256  1.2550
  759TIP3    H223769   1.174   6.645  12.492  3.7544  1.2798  0.8030
  760TIP3   OH223770   4.092   5.103   2.175 -0.5936  0.0475  0.2027
  760TIP3    H123771   4.176   5.146   2.188 -1.4991  1.8236  0.5061
  760TIP3    H223772   4.080   5.050   2.253 -0.4979  1.1274  0.9801
  761TIP3   OH223773   6.663   1.982  14.000  0.1519 -0.4283  0.6789
  761TIP3    H123774   6.699   1.900  13.965  0.4009  0.4244 -1.1839
  761TIP3    H223775   6.728   2.012  14.064  1.9757  0.1747 -1.3401
  762TIP3   OH223776   3.243   3.935  13.956  0.5191 -0.2152  0.1216
  762TIP3    H123777   3.210   3.846  13.946  1.7871 -0.8696  1.4626
  762TIP3    H223778   3.188   3.974  14.024  0.2981 -0.1437 -0.0966
  763TIP3   OH223779   1.913   5.160  13.235  0.3674 -0.4578  0.4523
  763TIP3    H123780   1.924   5.105  13.312  2.8061 -0.1329  0.4339
  763TIP3    H223781   1.892   5.099  13.164 -1.0241 -0.8466  1.1697
  764TIP3   OH223782   1.270   3.094   1.046 -0.4393 -0.4110 -0.2722
  764TIP3    H123783   1.294   3.052   0.964 -2.2479 -0.6275 -0.7353
  764TIP3    H223784   1.190   3.050   1.073 -0.7245  0.7068  0.7988
  765TIP3   OH223785   3.379   5.640  10.795  0.3832  0.0639 -0.4253
  765TIP3    H123786   3.396   5.706  10.863  0.0932  0.6792 -0.9345
  765TIP3    H223787   3.441   5.662  10.725  1.2789 -1.0919 -0.0321
  766TIP3   OH223788   5.447   4.094   2.183 -0.8308 -0.2529  0.7194
  766TIP3    H123789   5.487   4.052   2.107  1.4808 -1.2514  2.3398
  766TIP3    H223790   5.446   4.187   2.162 -3.0064 -0.7023 -1.6386
  767TIP3   OH223791   3.898   2.438  16.640  0.2959 -0.2704  0.3395
  767TIP3    H123792   3.840   2.374  16.598  1.2453 -1.0659  0.1907
  767TIP3    H223793   3.932   2.392  16.718  1.2098 -0.0644  0.0787
  768TIP3   OH223794   4.525   3.439  16.035  0.0976 -0.4291 -0.3522
  768TIP3    H123795   4.573   3.385  15.972  1.8363 -0.8594  1.2628
  768TIP3    H223796   4.442   3.458  15.991  1.0716 -1.0133 -2.6041
  769TIP3   OH223797   2.601   2.886  15.416 -0.7488 -0.2412 -0.0062
  769TIP3    H123798   2.559   2.807  15.382  1.1757 -0.6656 -1.5721
  769TIP3    H223799   2.640   2.928  15.339  0.3809  0.9169  1.1412
  770TIP3   OH223800   6.014   0.701   2.005 -0.3933  0.3540 -0.4866
  770TIP3    H123801   5.936   0.717   1.953  0.3867 -0.4178 -1.9432
  770TIP3    H223802   6.060   0.631   1.959 -0.4393 -1.5282  2.0638
  771TIP3   OH223803   5.128   4.444  12.124 -0.3374  0.6892 -0.7914
  771TIP3    H123804   5.160   4.354  12.140 -1.2261  0.5154  0.1463
  771TIP3    H223805   5.208   4.496  12.113  0.3461  0.2614  1.4580
  772TIP3   OH223806   4.338   0.290   0.504 -0.1751 -0.0582  0.6434
  772TIP3    H123807   4.343   0.347   0.580  0.4958 -0.7218  1.1089
  772TIP3    H223808   4.423   0.302   0.460 -0.9678  1.1796 -0.6511
  773TIP3   OH223809   1.463   0.623  11.820 -0.1909 -0.4622 -0.2350
  773TIP3    H123810   1.434   0.583  11.902 -2.5732  1.0934 -0.2287
  773TIP3    H223811   1.404   0.588  11.754  0.5263 -0.2721 -0.9984
  774TIP3   OH223812   0.875   5.233  16.915 -0.1943 -0.3494  0.4512
  774TIP3    H123813   0.881   5.141  16.939  1.3753 -0.6248 -0.7799
  774TIP3    H223814   0.937   5.277  16.973 -0.6227 -0.1402  0.7495
  775TIP3   OH223815   4.223   2.486   0.576 -0.1423  0.4527  0.1886
  775TIP3    H123816   4.139   2.485   0.530 -0.7654 -1.5033  1.2644
  775TIP3    H223817   4.273   2.416   0.535  0.8648  1.3740 -0.2062
  776TIP3   OH223818   6.724   1.122   4.620  0.2049 -0.2481 -0.0884
  776TIP3    H123819   6.747   1.029   4.621  2.8720  0.2465  3.2289
  776TIP3    H223820   6.682   1.137   4.704  1.5173  1.8429  0.2663
  777TIP3   OH223821   3.898   5.949  14.145  0.0068 -0.2538  0.3136
  777TIP3    H123822   3.834   6.015  14.171  0.8314  0.8693 -0.4121
  777TIP3    H223823   3.919   5.903  14.226 -0.4828  0.4614  0.8653
  778TIP3   OH223824   0.200   0.032  13.129 -0.5372 -0.3888  0.4547
  778TIP3    H123825   0.113   0.051  13.093 -0.1383 -1.3634 -1.1214
  778TIP3    H223826   0.260   0.054  13.058  0.7541  2.2597  2.1956
  779TIP3   OH223827   3.897   3.013   3.596  0.1311 -0.1689 -0.0781
  779TIP3    H123828   3.915   3.077   3.527 -1.0319 -1.3428 -1.5259
  779TIP3    H223829   3.810   3.035   3.628  0.1900 -0.3491  0.2186
  780TIP3   OH223830   3.305   2.445  14.087 -0.8458 -0.4868 -0.5380
  780TIP3    H123831   3.346   2.529  14.105  0.0450 -0.6919 -1.5063
  780TIP3    H223832   3.378   2.382  14.090 -1.2278 -0.9922 -1.3686
  781TIP3   OH223833   5.430   1.847  16.241 -0.1073  0.0349 -0.3474
  781TIP3    H123834   5.396   1.914  16.300  1.6464  0.3372  0.3779
  781TIP3    H223835   5.355   1.790  16.224 -1.1706  1.1294  0.4869
  782TIP3   OH223836   4.052   4.765  12.935  0.4026 -0.0126  0.4800
  782TIP3    H123837   4.074   4.700  12.869  0.2417  0.5556 -0.1488
  782TIP3    H223838   4.054   4.848  12.888 -1.6895  0.2168  0.6962
  783TIP3   OH223839   5.746   5.390   0.859  0.2465 -0.4172  0.6328
  783TIP3    H123840   5.751   5.464   0.798  0.9959 -0.0217  1.1443
  783TIP3    H223841   5.828   5.396   0.909  0.8001 -2.1927  0.0136
  784TIP3   OH223842   5.516   6.649  10.779 -0.5827 -0.1152  0.2538
  784TIP3    H123843   5.606   6.677  10.793 -0.0293 -2.4306  2.0069
  784TIP3    H223844   5.500   6.664  10.685  1.0392  1.7504  0.2103
  785TIP3   OH223845   1.382   5.247  17.084  0.6157  0.2158 -0.6497
  785TIP3    H123846   1.461   5.277  17.128 -0.3810 -0.8025  2.0430
  785TIP3    H223847   1.400   5.260  16.991  2.3797  3.7183  0.0066
  786TIP3   OH223848   6.344   2.010   4.734 -0.2213 -0.3258  0.2066
  786TIP3    H123849   6.369   2.069   4.663 -2.2797 -0.6033 -0.8079
  786TIP3    H223850   6.383   1.926   4.711  2.7263  0.5062  1.6585
  787TIP3   OH223851   3.542   0.936  12.366 -0.0161  0.3404 -0.2305
  787TIP3    H123852   3.576   1.021  12.338 -0.4687  0.7295  0.3708
  787TIP3    H223853   3.550   0.937  12.462 -0.5363 -0.0694 -0.1735
  788TIP3   OH223854   1.417   1.703  13.695 -0.0991 -0.0720 -0.2905
  788TIP3    H123855   1.384   1.683  13.608 -1.6859  0.5088  0.1364
  788TIP3    H223856   1.420   1.798  13.699  0.0671 -0.0965  0.2424
  789TIP3   OH223857   5.844   6.148  16.138  0.0952 -0.3746  0.0124
  789TIP3    H123858   5.828   6.056  16.115 -0.4662 -0.0876 -0.7640
  789TIP3    H223859   5.781   6.197  16.086 -0.7045  0.3550  1.5966
  790TIP3   OH223860   6.043   5.200  15.933 -0.3698  0.5143 -0.5381
  790TIP3    H123861   6.120   5.258  15.931 -0.0199  0.0602 -0.5328
  790TIP3    H223862   5.989   5.234  16.003 -0.3324  1.0454 -0.7614
  791TIP3   OH223863   5.844   4.016  11.826  1.1313 -0.4514 -0.5993
  791TIP3    H123864   5.765   4.010  11.772 -1.0898  0.9615  2.2693
  791TIP3    H223865   5.864   3.926  11.849 -0.8329 -0.7285  0.1770
  792TIP3   OH223866   3.839   5.485  10.917  0.3509  0.0829  0.8223
  792TIP3    H123867   3.861   5.577  10.902 -1.5802  0.4434 -0.1353
  792TIP3    H223868   3.869   5.441  10.837 -0.8096  0.3019  0.2438
  793TIP3   OH223869   1.851   1.391   1.667  0.0599  0.2591 -0.1827
  793TIP3    H123870   1.772   1.445   1.666 -0.9712 -1.0934  1.5711
  793TIP3    H223871   1.854   1.356   1.755 -0.3139 -3.8718 -1.6013
  794TIP3   OH223872   1.515   2.839  15.299 -0.0763  0.3812 -0.5652
  794TIP3    H123873   1.474   2.827  15.213 -1.2032 -0.4080  0.0505
  794TIP3    H223874   1.491   2.927  15.325 -0.1888  0.4336 -0.8375
  795TIP3   OH223875   5.691   0.835   6.336  0.5378 -0.5798  0.4761
  795TIP3    H123876   5.631   0.888   6.283  0.6890 -0.6911  0.1900
  795TIP3    H223877   5.644   0.753   6.350 -0.4952  0.2743  2.5063
  796TIP3   OH223878   4.490   6.010   5.311  0.1044  0.0962  0.8343
  796TIP3    H123879   4.545   6.062   5.370 -0.1627 -0.3219  1.4629
  796TIP3    H223880   4.403   6.013   5.351  0.4132 -2.2484  1.8601
  797TIP3   OH223881   3.712   5.632   0.149  0.1542  0.4180 -0.1074
  797TIP3    H123882   3.639   5.693   0.133 -2.1324 -1.4558  2.2397
  797TIP3    H223883   3.711   5.573   0.074 -0.9735  0.2590  0.0128
  798TIP3   OH223884   2.832   3.113   4.082  0.4447  0.1331 -0.1670
  798TIP3    H123885   2.887   3.182   4.046  0.4302  0.5107  0.5188
  798TIP3    H223886   2.776   3.086   4.009 -0.5154  1.7994 -0.0908
  799TIP3   OH223887   3.365   3.581   4.658 -0.2936  0.0701  0.1903
  799TIP3    H123888   3.374   3.590   4.753 -0.5240 -1.9064  0.4498
  799TIP3    H223889   3.398   3.493   4.639  0.0933  0.5629 -1.6231
  800TIP3   OH223890   3.379   3.797   5.257  0.6021 -0.2821  0.0310
  800TIP3    H123891   3.337   3.840   5.182  2.0036  1.5121  0.1950
  800TIP3    H223892   3.460   3.761   5.221  1.2066  0.4544  0.6164
  801TIP3   OH223893   6.210   6.325  15.645 -0.5307 -0.1590 -0.5276
  801TIP3    H123894   6.256   6.357  15.567 -0.1958 -1.9684 -1.1036
  801TIP3    H223895   6.137   6.275  15.610 -0.9315 -0.1843  0.3457
  802TIP3   OH223896   4.678   2.287   0.498 -0.1920 -0.0510 -0.2201
  802TIP3    H123897   4.724   2.240   0.567  1.4661  0.1796 -1.1062
  802TIP3    H223898   4.694   2.380   0.517 -2.0881  0.1693  0.6079
  803TIP3   OH223899   3.065   1.246  12.743 -0.5714  0.6704 -0.0235
  803TIP3    H123900   3.141   1.281  12.697 -0.2749  0.0414 -0.0285
  803TIP3    H223901   3.092   1.158  12.771 -1.5001  0.2140 -0.5204
  804TIP3   OH223902   4.279   3.461  16.397  0.4454 -0.6061 -0.1581
  804TIP3    H123903   4.205   3.511  16.363 -0.5199  0.0999  2.6512
  804TIP3    H223904   4.239   3.399  16.458  2.1155 -0.4676  1.1443
  805TIP3   OH223905   4.117   6.195   1.953 -0.1999 -0.4785 -0.8664
  805TIP3    H123906   4.045   6.244   1.913  0.3457  1.2220  0.1120
  805TIP3    H223907   4.190   6.206   1.893  0.1466  0.6546 -0.2757
  806TIP3   OH223908   5.809   3.263   2.988  0.1802  0.4678  0.6653
  806TIP3    H123909   5.820   3.183   3.040  1.1643  0.6400  0.7302
  806TIP3    H223910   5.893   3.307   2.994  0.4416  0.3318 -1.3816
  807TIP3   OH223911   5.148   2.503  13.786 -0.3539 -0.0268  0.1164
  807TIP3    H123912   5.124   2.429  13.729 -1.2357  1.1466 -1.1077
  807TIP3    H223913   5.086   2.497  13.859  1.6872 -2.3789  1.8237
  808TIP3   OH223914   2.681   0.663  17.177 -0.4341 -0.1044 -0.1076
  808TIP3    H123915   2.726   0.711  17.248  0.2897  0.2528 -0.7949
  808TIP3    H223916   2.589   0.687  17.187 -0.2438  0.4980  0.2799
  809TIP3   OH223917   5.590   2.960  12.101  0.5121  0.4039  0.1262
  809TIP3    H123918   5.617   2.868  12.109 -0.7910 -0.0694 -0.6005
  809TIP3    H223919   5.656   2.999  12.044  0.1203 -0.5344 -1.0056
  810TIP3   OH223920   3.435   3.415  14.311  0.7039 -0.1231 -0.4709
  810TIP3    H123921   3.375   3.489  14.318 -0.8251 -0.9812 -3.0224
  810TIP3    H223922   3.387   3.341  14.348  0.5058 -0.6198 -1.6612
  811TIP3   OH223923   1.194   6.714   5.395  0.0291 -0.1603 -0.3433
  811TIP3    H123924   1.193   6.673   5.481  0.2943  0.7396  0.0999
  811TIP3    H223925   1.175   6.807   5.412 -1.3807 -0.2175 -1.3919
  812TIP3   OH223926   2.812   0.872   4.544 -0.2873 -0.1301 -0.0027
  812TIP3    H123927   2.883   0.924   4.508 -0.2736 -0.5195 -0.5488
  812TIP3    H223928   2.788   0.917   4.625 -0.7644  1.1290 -0.8082
  813TIP3   OH223929   3.718   4.845  11.671  0.4221 -0.2115 -0.7571
  813TIP3    H123930   3.699   4.921  11.727  1.0011 -0.4900 -0.1871
  813TIP3    H223931   3.783   4.794  11.719 -0.4681 -1.4494 -0.8075
  814TIP3   OH223932   3.043   6.726   1.645  0.6402  0.1932  0.3879
  814TIP3    H123933   3.017   6.637   1.669  3.2078 -0.1677  2.2843
  814TIP3    H223934   2.988   6.783   1.700 -1.2520 -0.1070 -1.0788
  815TIP3   OH223935   0.540   1.392  17.042 -0.2510 -0.0612  0.2043
  815TIP3    H123936   0.534   1.481  17.007  0.0286 -1.0340 -2.5742
  815TIP3    H223937   0.626   1.360  17.013 -1.8486 -2.4940 -2.3756
  816TIP3   OH223938   0.752   2.819  11.988 -0.1528 -0.2222  0.0654
  816TIP3    H123939   0.684   2.807  12.054 -0.4296  0.2981 -0.1172
  816TIP3    H223940   0.715   2.884  11.928  0.2357 -0.4386 -0.4076
  817TIP3   OH223941   4.505   5.911   1.701  0.0641  0.4194 -0.2116
  817TIP3    H123942   4.465   5.828   1.727  0.7559  0.4881  1.1510
  817TIP3    H223943   4.598   5.900   1.717  0.0803  1.7350  0.8198
  818TIP3   OH223944   6.287   2.039   2.715 -0.0153 -0.1607  0.1874
  818TIP3    H123945   6.320   2.099   2.781 -3.5716  0.3466  1.7409
  818TIP3    H223946   6.314   1.952   2.744  2.1311  0.3338 -0.1563
  819TIP3   OH223947   5.330   3.103   1.993  0.0511  0.2068  0.0777
  819TIP3    H123948   5.253   3.158   1.999  0.8066  1.4126 -0.8234
  819TIP3    H223949   5.358   3.090   2.084 -1.4455 -0.6490  0.4503
  820TIP3   OH223950   0.118   1.301   4.606  0.9354  0.3216 -0.1632
  820TIP3    H123951   0.034   1.256   4.616  0.5536  0.4696 -2.2675
  820TIP3    H223952   0.163   1.252   4.537  2.2307  0.7594  0.3503
  821TIP3   OH223953   3.219   1.189   0.605  0.1509  0.1152 -0.8031
  821TIP3    H123954   3.124   1.202   0.607  0.1183 -0.0635 -1.2447
  821TIP3    H223955   3.255   1.278   0.606 -0.0239  0.1863 -0.8621
  822TIP3   OH223956   4.838   1.720   1.266 -0.0434 -0.0102 -0.0133
  822TIP3    H123957   4.826   1.628   1.290 -1.1318 -0.0453 -0.6046
  822TIP3    H223958   4.749   1.756   1.264  0.1336  0.4543 -2.0612
  823TIP3   OH223959   3.596   0.014   6.936 -0.2495  0.1407  0.3160
  823TIP3    H123960   3.645   0.030   7.017 -1.0507  0.2391  0.8026
  823TIP3    H223961   3.641   0.066   6.870  1.0143 -0.7141  0.4720
  824TIP3   OH223962   6.258   3.496  11.385 -0.5197 -0.4282 -0.5536
  824TIP3    H123963   6.171   3.523  11.354 -0.4638  0.6493  0.1671
  824TIP3    H223964   6.245   3.478  11.479 -0.4468 -2.5574 -0.8956
  825TIP3   OH223965   5.907   3.299   1.764 -0.4936  0.3971 -0.0908
  825TIP3    H123966   5.957   3.281   1.684  1.1806  0.7691  0.8250
  825TIP3    H223967   5.823   3.333   1.733 -0.6626 -1.3339 -1.7095
  826TIP3   OH223968   2.945   0.917   2.281  0.0044 -0.3177  0.4819
  826TIP3    H123969   2.856   0.886   2.293 -0.3720  0.8165  0.8003
  826TIP3    H223970   2.940   1.011   2.298  0.6289  0.3758 -2.4634
  827TIP3   OH223971   3.388   5.479  16.164 -0.2162 -0.1557 -0.3395
  827TIP3    H123972   3.418   5.534  16.092 -2.0600  1.3732 -0.0252
  827TIP3    H223973   3.363   5.397  16.123  0.5673  0.0053 -1.1536
  828TIP3   OH223974   0.722   3.658  15.444 -0.1006  0.0734 -0.1530
  828TIP3    H123975   0.758   3.646  15.532  0.7755  0.4984 -0.4374
  828TIP3    H223976   0.785   3.715  15.400 -1.8903  2.1119 -0.2250
  829TIP3   OH223977   3.069   5.330   4.307  0.1255 -0.2169 -0.5258
  829TIP3    H123978   3.128   5.286   4.246  1.2829  0.8619 -0.2394
  829TIP3    H223979   3.098   5.422   4.306 -0.1116 -0.0768  1.2861
  830TIP3   OH223980   5.896   0.094   4.867  0.3139 -0.1541 -0.2077
  830TIP3    H123981   5.893   0.190   4.868 -0.6514 -0.1451  1.7221
  830TIP3    H223982   5.989   0.073   4.872  0.4885  0.7093  0.4173
  831TIP3   OH223983   6.475   0.416   1.129 -0.2411 -0.4386  0.0331
  831TIP3    H123984   6.412   0.487   1.120 -0.4849 -0.5675  0.6669
  831TIP3    H223985   6.505   0.399   1.040 -2.5216 -1.6419 -0.5870
  832TIP3   OH223986   4.761   1.044  10.416 -0.3464 -0.5340  0.3521
  832TIP3    H123987   4.704   0.980  10.460  0.7517 -2.8091 -1.3330
  832TIP3    H223988   4.850   1.014  10.435  0.1774 -0.0415 -1.1920
  833TIP3   OH223989   6.526   2.328   0.646 -0.0426  0.1811  0.3885
  833TIP3    H123990   6.491   2.318   0.558 -1.5431 -1.3355  1.0901
  833TIP3    H223991   6.469   2.274   0.701  1.6091  0.0383  2.0923
  834TIP3   OH223992   6.648   1.061   2.248 -0.5873  0.4753  0.2204
  834TIP3    H123993   6.673   0.978   2.209  1.8268  0.1918  2.0721
  834TIP3    H223994   6.573   1.091   2.197  1.0384 -0.7879 -3.2095
  835TIP3   OH223995   0.890   0.683   4.574  0.0605  0.3273 -0.3516
  835TIP3    H123996   0.958   0.672   4.508 -0.8341  2.3286 -1.6772
  835TIP3    H223997   0.917   0.760   4.623 -1.8911  2.0129 -1.8021
  836TIP3   OH223998   0.741   5.628  15.572  0.5468  0.1158  0.0639
  836TIP3    H123999   0.746   5.611  15.666  0.1224  2.3403  0.5468
  836TIP3    H224000   0.708   5.547  15.534  1.3320 -1.0452  1.7414
  837TIP3   OH224001   5.650   1.729  14.221  0.5465  0.2484 -0.0855
  837TIP3    H124002   5.567   1.744  14.177  0.9550  0.3902 -0.8343
  837TIP3    H224003   5.671   1.812  14.263  0.0611  0.0560  0.5378
  838TIP3   OH224004   2.929   4.684   4.205 -0.0750 -0.2191  0.3272
  838TIP3    H124005   3.011   4.677   4.157 -1.7644  1.2739 -3.0690
  838TIP3    H224006   2.860   4.676   4.139 -2.6496  1.2577  2.5826
  839TIP3   OH224007   0.425   3.882  12.778 -0.1011  0.1699 -0.8240
  839TIP3    H124008   0.499   3.866  12.719 -0.1771  1.9618 -1.4518
  839TIP3    H224009   0.356   3.823  12.747  1.2227 -2.0714  0.2173
  840TIP3   OH224010   6.316   4.030  10.817  0.0102 -0.0084 -0.3977
  840TIP3    H124011   6.335   3.981  10.897 -0.2076 -1.7883 -1.3930
  840TIP3    H224012   6.399   4.034  10.771  0.1963  1.2454 -0.0135
  841TIP3   OH224013   6.190   0.125  15.296 -0.0135 -0.4299  0.3588
  841TIP3    H124014   6.135   0.105  15.220 -1.2298 -0.4261  1.2024
  841TIP3    H224015   6.238   0.044  15.312  0.1923 -0.4557 -0.3653
  842TIP3   OH224016   3.083   1.500   2.728  0.4979 -0.0070 -0.3049
  842TIP3    H124017   2.995   1.508   2.691  0.1069 -0.3534  0.5041
  842TIP3    H224018   3.140   1.542   2.664 -0.1863 -0.2678 -1.1152
  843TIP3   OH224019   4.440   0.217   5.664  0.5006  0.2481  0.1571
  843TIP3    H124020   4.445   0.272   5.742 -0.4544  0.8091 -0.1598
  843TIP3    H224021   4.408   0.276   5.595 -0.5122 -0.6827 -0.1968
  844TIP3   OH224022   2.669   4.579   3.435 -0.1728 -0.4596 -0.0153
  844TIP3    H124023   2.641   4.632   3.510 -0.6135 -1.5003  0.5914
  844TIP3    H224024   2.721   4.509   3.474  1.5630  0.2763 -0.9429
  845TIP3   OH224025   5.764   5.067   1.695  0.7090  0.3412  0.2900
  845TIP3    H124026   5.741   5.034   1.782 -0.9385 -3.9410 -1.4569
  845TIP3    H224027   5.679   5.085   1.653  1.1097 -1.6714 -1.6169
  846TIP3   OH224028   2.857   6.400  10.821  0.4099 -0.6095  0.3594
  846TIP3    H124029   2.919   6.453  10.769  1.0656 -1.4584  0.2470
  846TIP3    H224030   2.843   6.452  10.900  1.7386 -0.6576  0.6558
  847TIP3   OH224031   2.333   4.306   4.846 -0.4063 -0.0469 -0.1918
  847TIP3    H124032   2.241   4.284   4.829 -0.5690 -0.4657  1.1657
  847TIP3    H224033   2.330   4.370   4.917  0.3565  0.0098 -0.2024
  848TIP3   OH224034   4.064   1.455  17.262 -1.0521  0.0404  0.5473
  848TIP3    H124035   4.028   1.381  17.312  1.0596 -0.8808  0.8174
  848TIP3    H224036   4.131   1.492  17.320  0.7655 -0.4339 -1.1534
  849TIP3   OH224037   0.840   1.697   4.640 -0.0941  0.7400 -0.4005
  849TIP3    H124038   0.803   1.671   4.556 -0.7471 -1.3345  0.4741
  849TIP3    H224039   0.775   1.756   4.678  0.6406  2.4743 -1.7052
  850TIP3   OH224040   1.825   3.009   1.227 -0.6571  0.0177  0.2322
  850TIP3    H124041   1.837   3.037   1.317  0.7024 -0.6789  0.3040
  850TIP3    H224042   1.845   2.915   1.228 -3.6092 -0.6984 -0.2646
  851TIP3   OH224043   2.039   1.950   0.840 -0.1539  0.4103 -0.4481
  851TIP3    H124044   2.036   1.857   0.861 -2.7555 -0.0735 -2.4555
  851TIP3    H224045   2.053   1.953   0.745  1.9922  2.1940 -0.1713
  852TIP3   OH224046   4.840   4.622   0.888  0.3217 -0.5427 -0.0934
  852TIP3    H124047   4.818   4.650   0.977 -1.4143  0.4730 -0.8066
  852TIP3    H224048   4.833   4.527   0.890 -1.5994 -0.4249  0.4037
  853TIP3   OH224049   6.467   5.446   1.388 -0.6011 -0.3483 -0.7647
  853TIP3    H124050   6.435   5.437   1.478  0.8186  1.8697  0.0637
  853TIP3    H224051   6.556   5.411   1.391  0.1065  1.3392 -0.7910
  854TIP3   OH224052   5.564   0.406   3.549 -0.3828  0.5552  0.1114
  854TIP3    H124053   5.536   0.375   3.464 -1.2186  1.3147  0.0942
  854TIP3    H224054   5.533   0.340   3.611 -0.5636  0.4512 -0.0904
  855TIP3   OH224055   5.547   3.039  11.146  0.2097  0.5159  0.2078
  855TIP3    H124056   5.579   3.015  11.232 -0.9331  0.5893  0.6747
  855TIP3    H224057   5.607   3.107  11.115  0.9205  0.1332  0.7200
  856TIP3   OH224058   6.238   5.293  16.201  0.2753  0.1200  0.1295
  856TIP3    H124059   6.155   5.308  16.246 -0.0286 -2.8253  0.7466
  856TIP3    H224060   6.280   5.223  16.251  1.6359 -0.7275 -2.0598
  857TIP3   OH224061   2.565   5.140   3.867 -0.2036 -0.5424 -0.1080
  857TIP3    H124062   2.517   5.086   3.930 -0.1733  2.1514  2.4203
  857TIP3    H224063   2.564   5.228   3.905  1.2388  0.9335 -3.1407
  858TIP3   OH224064   5.815   3.002  12.955 -0.0938 -0.3909 -0.3683
  858TIP3    H124065   5.787   2.916  12.923 -1.3871  0.3566 -1.3519
  858TIP3    H224066   5.807   3.060  12.879 -0.7838  0.9276  0.6699
  859TIP3   OH224067   6.561   6.486   6.137  0.5729  0.0668 -0.3141
  859TIP3    H124068   6.556   6.423   6.065 -1.3374  0.3919 -0.5228
  859TIP3    H224069   6.535   6.436   6.215  0.2517  0.2789 -0.2801
  860TIP3   OH224070   6.725   1.227   1.083  0.2498  0.1456  0.0535
  860TIP3    H124071   6.750   1.296   1.022  0.7020  0.6792  0.8320
  860TIP3    H224072   6.808   1.187   1.110  0.1556  0.6464  1.1602
  861TIP3   OH224073   3.384   5.195  13.933  0.4792  0.2745  0.1765
  861TIP3    H124074   3.430   5.232  14.008  1.0028 -0.9366  0.4792
  861TIP3    H224075   3.408   5.252  13.860  0.1957  1.2943  0.8602
  862TIP3   OH224076   4.656   0.903   2.439  0.7964 -0.0321 -0.1237
  862TIP3    H124077   4.574   0.942   2.409  1.0461  1.3947  0.9638
  862TIP3    H224078   4.637   0.871   2.527  1.6447  1.3036  0.5869
  863TIP3   OH224079   2.004   1.912  14.811 -0.2186  0.3980  0.2455
  863TIP3    H124080   2.076   1.971  14.787 -0.1789 -0.1963 -1.1879
  863TIP3    H224081   2.033   1.870  14.891  1.3607 -0.3204 -0.6491
  864TIP3   OH224082   5.920   2.793   0.137 -0.3746  0.3041  0.0829
  864TIP3    H124083   5.839   2.840   0.114  0.2069  0.8335 -0.9173
  864TIP3    H224084   5.929   2.808   0.231 -0.8338  1.2150 -0.0036
  865TIP3   OH224085   6.511   1.816  15.917 -1.1949  0.1815 -0.4654
  865TIP3    H124086   6.488   1.873  15.990 -2.8824  0.2538 -1.0058
  865TIP3    H224087   6.499   1.870  15.839  0.7341  0.1554 -0.8274
  866TIP3   OH224088   5.182   1.383  15.177 -0.4212  0.0929 -0.1115
  866TIP3    H124089   5.224   1.419  15.256  0.2412  1.6906 -1.1288
  866TIP3    H224090   5.255   1.366  15.117 -0.6234 -3.6972  0.4962
  867TIP3   OH224091   0.767   2.290   2.920  0.4436  0.1759 -0.4474
  867TIP3    H124092   0.719   2.368   2.947  0.4723 -0.3922  1.3553
  867TIP3    H224093   0.798   2.310   2.832 -1.2004  1.4269 -0.7871
  868TIP3   OH224094   2.893   5.055  12.973  0.2987 -0.0339  0.5603
  868TIP3    H124095   2.838   5.083  12.900  1.4805 -0.0974 -0.3859
  868TIP3    H224096   2.832   5.043  13.046 -0.8831  0.2158 -0.3581
  869TIP3   OH224097   6.537   0.617  14.465  0.1478  0.1319  0.2749
  869TIP3    H124098   6.493   0.629  14.549  1.5392 -0.8918  1.2158
  869TIP3    H224099   6.472   0.576  14.409 -0.7311  0.6085  0.9281
  870TIP3   OH224100   0.131   6.080  13.849  0.1094 -0.1926  0.2617
  870TIP3    H124101   0.042   6.046  13.838  0.6110 -2.8530  2.9556
  870TIP3    H224102   0.119   6.174  13.860 -2.4257 -0.4665  0.6067
  871TIP3   OH224103   2.593   2.974   6.067 -0.5064 -1.0166 -0.0319
  871TIP3    H124104   2.678   2.979   6.023 -0.8642 -4.4711 -1.4550
  871TIP3    H224105   2.614   2.961   6.159  0.5671 -1.9785 -0.3862
  872TIP3   OH224106   4.473   4.971   0.691  0.3622 -0.2924 -0.1707
  872TIP3    H124107   4.494   4.885   0.655  0.5640  0.1768 -1.1867
  872TIP3    H224108   4.558   5.009   0.713  0.4358  0.4425 -1.6002
  873TIP3   OH224109   2.856   4.233   4.780  0.3100 -0.5077  0.6282
  873TIP3    H124110   2.869   4.320   4.817  1.9272  0.5764 -2.1837
  873TIP3    H224111   2.762   4.229   4.761  0.3577  1.0510 -0.0757
  874TIP3   OH224112   0.116   5.984   4.553  0.1740 -0.4878  0.3779
  874TIP3    H124113   0.063   5.941   4.620  1.0949 -0.8983  0.8617
  874TIP3    H224114   0.201   6.001   4.595  0.2492  0.6951 -0.1906
  875TIP3   OH224115   3.698   2.551   5.614  0.2608  0.4987 -0.0110
  875TIP3    H124116   3.697   2.645   5.594 -0.9486  0.8269  1.4296
  875TIP3    H224117   3.774   2.540   5.671 -0.1654  0.7985  0.6246
  876TIP3   OH224118   0.525   3.747  13.868 -0.2555  0.4235 -0.0236
  876TIP3    H124119   0.569   3.771  13.950  0.0687 -1.8734  0.5355
  876TIP3    H224120   0.579   3.678  13.831 -1.8850 -0.5247 -0.7336
  877TIP3   OH224121   6.320   3.820  12.767 -0.1678  1.0680 -0.2105
  877TIP3    H124122   6.381   3.890  12.746  0.5465  1.0170  1.4826
  877TIP3    H224123   6.242   3.839  12.715  0.8644  1.7686 -1.5651
  878TIP3   OH224124   0.397   4.576   1.281 -0.2635 -0.3691  0.2880
  878TIP3    H124125   0.346   4.545   1.356 -1.0849  0.7182  0.2082
  878TIP3    H224126   0.440   4.498   1.247  0.8552 -0.7796  2.4248
  879TIP3   OH224127   4.273   2.432   6.458  0.6155 -0.0290  0.5328
  879TIP3    H124128   4.210   2.370   6.495  0.1520 -0.7598 -1.3327
  879TIP3    H224129   4.248   2.517   6.496 -1.8813 -0.2091 -0.5044
  880TIP3   OH224130   4.214   0.982   3.414 -0.0658 -0.0712 -0.5268
  880TIP3    H124131   4.151   1.029   3.468  0.1067  1.0870 -1.2836
  880TIP3    H224132   4.166   0.906   3.382 -0.8825  0.4456 -0.5608
  881TIP3   OH224133   3.059   5.368  14.345  0.4403 -0.3187 -0.0235
  881TIP3    H124134   3.094   5.424  14.414  0.5585 -0.2710 -0.1219
  881TIP3    H224135   2.965   5.371  14.357  0.4056  0.4193 -0.4311
  882TIP3   OH224136   1.413   3.066  13.348  0.0839  0.1775 -0.2462
  882TIP3    H124137   1.449   2.980  13.328  0.6661  0.3527  0.0233
  882TIP3    H224138   1.319   3.057  13.335 -0.2910 -1.3933  2.9095
  883TIP3   OH224139   2.192   0.689   2.312  0.2200 -0.0479 -0.1555
  883TIP3    H124140   2.193   0.653   2.223  0.1160  0.1546 -0.2387
  883TIP3    H224141   2.277   0.733   2.320  0.9585 -1.5070  0.4417
  884TIP3   OH224142   0.551   2.524  11.894  0.0214  0.3965 -0.4574
  884TIP3    H124143   0.510   2.608  11.872  0.6180  0.4768 -1.3231
  884TIP3    H224144   0.522   2.464  11.826 -0.3694 -0.1014  0.1395
  885TIP3   OH224145   4.941   1.850   5.027  0.3211 -0.4518 -0.3985
  885TIP3    H124146   5.036   1.856   5.039  0.3896 -0.9355 -0.6463
  885TIP3    H224147   4.926   1.884   4.939  0.0646  1.1281  0.2206
  886TIP3   OH224148   5.318   1.928  12.820 -0.0185 -0.7588 -0.0621
  886TIP3    H124149   5.328   1.961  12.730 -0.9626 -0.9637 -0.2459
  886TIP3    H224150   5.389   1.971  12.868 -0.8826  1.1836 -0.3958
  887TIP3   OH224151   1.618   3.857   0.627 -0.4930 -0.0586  0.3365
  887TIP3    H124152   1.636   3.774   0.584 -0.7114 -0.6570  1.3659
  887TIP3    H224153   1.532   3.883   0.593 -0.7801 -0.6494  0.5903
  888TIP3   OH224154   4.740   1.262  16.318 -0.3358  0.4766  0.1460
  888TIP3    H124155   4.775   1.266  16.407  0.2704  0.3275 -0.0821
  888TIP3    H224156   4.763   1.174  16.288 -1.9172 -0.0491  0.3999
  889TIP3   OH224157   3.291   5.926   0.775  0.5229 -0.1007 -0.1383
  889TIP3    H124158   3.384   5.903   0.766  0.4950 -0.4297  0.3673
  889TIP3    H224159   3.290   6.022   0.773  0.8633 -0.0995 -0.2681
  890TIP3   OH224160   5.783   1.667   4.191 -0.6248  0.1092  0.0349
  890TIP3    H124161   5.835   1.587   4.196 -0.9597 -0.1502 -0.5998
  890TIP3    H224162   5.755   1.683   4.282 -1.0059 -0.7935  0.0908
  891TIP3   OH224163   5.323   1.049   2.563  0.2313 -0.2862 -0.3409
  891TIP3    H124164   5.303   0.960   2.593 -1.7722  0.2856  0.2164
  891TIP3    H224165   5.350   1.038   2.472 -0.0844 -1.4707 -0.3086
  892TIP3   OH224166   1.940   4.586   4.523 -0.7041 -0.0280  0.3185
  892TIP3    H124167   1.965   4.605   4.613  1.9880  0.0147 -0.3648
  892TIP3    H224168   1.981   4.655   4.471  1.4801 -2.3619 -1.3029
  893TIP3   OH224169   3.385   4.834  17.194  0.0909  0.2331 -0.3297
  893TIP3    H124170   3.444   4.888  17.246  1.9212 -1.8178 -0.1698
  893TIP3    H224171   3.377   4.752  17.243 -2.1123  0.0617 -0.8652
  894TIP3   OH224172   2.663   2.413  13.348 -0.0462  0.2377 -0.0417
  894TIP3    H124173   2.580   2.405  13.394  1.3298 -1.6998  2.3136
  894TIP3    H224174   2.675   2.328  13.305 -0.0681  1.1296 -1.9358
  895TIP3   OH224175   6.150   6.696  12.157 -0.3762 -0.2747 -0.0261
  895TIP3    H124176   6.178   6.785  12.177 -1.6560 -0.0983  1.1585
  895TIP3    H224177   6.224   6.657  12.111  0.4430  1.1979 -0.0197
  896TIP3   OH224178   5.828   0.220   5.728 -0.0608 -0.0034  0.1348
  896TIP3    H124179   5.882   0.146   5.701 -0.0191  0.5302 -1.3992
  896TIP3    H224180   5.819   0.273   5.648  0.9442  2.3020  1.4335
  897TIP3   OH224181   0.309   4.125   5.495 -0.0938 -0.1317 -0.1258
  897TIP3    H124182   0.382   4.110   5.434  0.1079 -1.2348  0.3513
  897TIP3    H224183   0.266   4.039   5.502 -1.8449  0.6526 -0.8919
  898TIP3   OH224184   0.218   3.747  12.659 -0.3216  0.4180 -0.2481
  898TIP3    H124185   0.182   3.828  12.622 -0.4657  0.5476  0.1676
  898TIP3    H224186   0.182   3.677  12.604  1.5238  0.7486 -1.9822
  899TIP3   OH224187   1.510   6.509  15.623 -0.1455  0.6088 -0.1223
  899TIP3    H124188   1.493   6.550  15.538 -0.2469  1.9839  0.5343
  899TIP3    H224189   1.604   6.496  15.625 -0.1593  0.4280 -0.5011
  900TIP3   OH224190   5.170   5.776   1.462 -0.0161 -0.2523 -0.5990
  900TIP3    H124191   5.241   5.836   1.440 -0.2148 -0.6910 -2.6351
  900TIP3    H224192   5.104   5.832   1.504  0.0818  0.8586 -1.8536
  901TIP3   OH224193   4.122   2.666   4.211  0.2155  0.3338 -0.5875
  901TIP3    H124194   4.036   2.696   4.240 -0.4011 -1.2011 -0.7344
  901TIP3    H224195   4.159   2.741   4.166 -2.0099  0.3678 -2.5467
  902TIP3   OH224196   3.333   5.034  14.709  0.6390  0.1751  0.3947
  902TIP3    H124197   3.317   4.958  14.652 -2.5500  1.5256 -0.6916
  902TIP3    H224198   3.383   4.998  14.782  2.5851 -2.1725 -1.8723
  903TIP3   OH224199   2.379   6.243   2.844 -0.5242  0.0115 -0.4371
  903TIP3    H124200   2.433   6.315   2.876 -2.2883  0.9593  0.5949
  903TIP3    H224201   2.425   6.164   2.872  1.3062  0.7096 -1.3358
  904TIP3   OH224202   6.097   4.275  11.105 -0.1311  0.1670 -0.1395
  904TIP3    H124203   6.162   4.283  11.035  1.0236 -1.7236  0.6590
  904TIP3    H224204   6.123   4.341  11.170 -1.4029  2.1737 -1.5259
  905TIP3   OH224205   0.638   5.861   4.920 -0.8305 -0.0293 -0.4897
  905TIP3    H124206   0.564   5.818   4.962 -0.7234 -0.4147 -0.6908
  905TIP3    H224207   0.701   5.791   4.904  0.5633  0.6307  1.7103
  906TIP3   OH224208   0.325   6.641  17.138  0.1678  0.6762 -0.3500
  906TIP3    H124209   0.390   6.708  17.120 -0.4112  0.3993 -4.1943
  906TIP3    H224210   0.244   6.675  17.102 -1.3633 -0.0136  2.1878
  907TIP3   OH224211   4.134   5.398  13.354  0.2239  0.2333  0.2102
  907TIP3    H124212   4.115   5.306  13.337  2.6179 -0.5073  1.1090
  907TIP3    H224213   4.078   5.421  13.428  0.7639 -1.0022  1.0273
  908TIP3   OH224214   4.676   4.125  11.335  0.3814 -0.0780 -0.2622
  908TIP3    H124215   4.727   4.078  11.270  0.2956 -0.0227 -0.3699
  908TIP3    H224216   4.586   4.122  11.303  0.2267 -0.6484  0.2027
  909TIP3   OH224217   5.572   1.024  15.118  0.1234  0.8575 -0.0645
  909TIP3    H124218   5.557   1.066  15.033  0.4265 -0.1511 -0.6339
  909TIP3    H224219   5.523   0.943  15.114 -0.5648  1.2050  1.0804
  910TIP3   OH224220   2.105   6.760   0.992 -0.0304 -0.3350 -0.5345
  910TIP3    H124221   2.056   6.679   0.981  1.1156 -1.4178  1.6410
  910TIP3    H224222   2.038   6.829   0.991 -1.6794 -1.7371  2.2405
  911TIP3   OH224223   1.512   1.779  14.384 -0.0941 -0.4384  0.4284
  911TIP3    H124224   1.530   1.708  14.445  1.1254 -0.9535 -0.4847
  911TIP3    H224225   1.583   1.842  14.399 -1.7886  1.2251  2.0595
  912TIP3   OH224226   6.539   5.209   4.735  0.4886 -0.3274 -0.6206
  912TIP3    H124227   6.515   5.155   4.810 -0.2130  0.8131  0.0206
  912TIP3    H224228   6.634   5.207   4.733  0.5289 -0.1519  0.4903
  913TIP3   OH224229   3.586   6.509   3.081  0.1635 -0.2148 -0.9349
  913TIP3    H124230   3.614   6.586   3.130  0.2469 -0.2608 -0.9110
  913TIP3    H224231   3.532   6.460   3.142 -1.3192  0.6824 -1.4761
  914TIP3   OH224232   5.673   1.274  15.182  0.2425 -0.0783  0.3814
  914TIP3    H124233   5.747   1.224  15.147  0.9219  0.4071  1.0747
  914TIP3    H224234   5.703   1.304  15.269 -0.5452  0.6168  0.4321
  915TIP3   OH224235   3.319   0.202  16.957  0.1157  0.5376 -0.0647
  915TIP3    H124236   3.289   0.116  16.928 -0.8751 -0.6501  3.8332
  915TIP3    H224237   3.259   0.264  16.915 -1.2897 -0.9659 -0.3986
  916TIP3   OH224238   0.607   0.662  13.583 -0.2514 -0.3617  0.1306
  916TIP3    H124239   0.572   0.582  13.622 -0.9078 -0.5402 -0.8056
  916TIP3    H224240   0.668   0.631  13.516  0.1044 -0.0665  0.3154
  917TIP3   OH224241   3.947   4.074   1.260 -0.0571 -0.0171  0.7678
  917TIP3    H124242   3.891   4.085   1.184  1.0271 -1.0034 -0.2102
  917TIP3    H224243   3.904   4.007   1.312  0.6429 -1.4648 -0.4493
  918TIP3   OH224244   3.074   5.345   0.098  0.1285  0.5470 -0.2293
  918TIP3    H124245   3.050   5.255   0.119  1.2066  0.1062 -0.8079
  918TIP3    H224246   2.992   5.387   0.072 -0.1325 -0.7379 -1.6006
  919TIP3   OH224247   2.652   5.440  15.629 -0.3730 -0.1514 -0.5713
  919TIP3    H124248   2.625   5.479  15.712  0.6678  1.8000 -1.0799
  919TIP3    H224249   2.581   5.380  15.606 -0.9625 -0.2798  1.4110
  920TIP3   OH224250   0.794   2.247  13.266  0.2775  0.1463 -0.0303
  920TIP3    H124251   0.843   2.168  13.287  1.9175  1.3001  0.6568
  920TIP3    H224252   0.759   2.231  13.178 -1.4949 -2.2781  0.9919
  921TIP3   OH224253   1.752   0.844  14.969  0.0732  0.1990  0.3358
  921TIP3    H124254   1.702   0.925  14.978 -0.2899  0.0726 -0.4628
  921TIP3    H224255   1.802   0.855  14.888 -0.9587 -0.8875 -0.4824
  922TIP3   OH224256   0.170   3.889   2.881  0.5083  0.2725  0.1527
  922TIP3    H124257   0.232   3.937   2.826  0.4293  0.5915  0.3344
  922TIP3    H224258   0.222   3.863   2.958  0.4729  0.3449  0.2015
  923TIP3   OH224259   3.881   4.074   5.005  0.2667 -0.4625 -0.1165
  923TIP3    H124260   3.897   4.138   5.075 -0.4327 -1.4050  0.9346
  923TIP3    H224261   3.832   4.003   5.048 -0.6785 -0.8054 -1.6828
  924TIP3   OH224262   4.307   5.445   2.889  0.2085  0.1695 -0.2801
  924TIP3    H124263   4.215   5.470   2.896  0.0425 -0.6685  0.8244
  924TIP3    H224264   4.342   5.458   2.977  1.8310  2.9046 -1.2103
  925TIP3   OH224265   3.733   1.983  14.990 -0.2657  0.5671 -0.4938
  925TIP3    H124266   3.774   1.984  15.076 -2.5996 -1.2209  0.7602
  925TIP3    H224267   3.767   2.061  14.946  2.3460  0.5801  1.3389
  926TIP3   OH224268   2.493   0.801  12.255 -0.5073  0.4260  0.0353
  926TIP3    H124269   2.467   0.880  12.207 -3.2436 -0.5979 -0.3840
  926TIP3    H224270   2.476   0.730  12.194  1.1246 -0.5784  0.6954
  927TIP3   OH224271   3.169   0.180   5.230 -0.1841  0.3999 -0.1145
  927TIP3    H124272   3.200   0.148   5.314  0.6780  0.5345 -0.3688
  927TIP3    H224273   3.077   0.157   5.228 -0.3299  0.8060  1.0577
  928TIP3   OH224274   4.333   4.990   4.864  0.8534 -0.3144  0.6275
  928TIP3    H124275   4.321   5.022   4.774  1.4932  0.7183  0.8988
  928TIP3    H224276   4.317   5.066   4.919  0.0515 -1.0383  1.4325
  929TIP3   OH224277   1.403   2.443  15.133  0.2502  0.1371  0.0631
  929TIP3    H124278   1.336   2.375  15.124 -0.6763  1.1002 -0.5472
  929TIP3    H224279   1.473   2.401  15.182 -1.0234 -0.7484  1.2011
  930TIP3   OH224280   5.007   3.426   5.976 -0.1551  0.1948  0.2815
  930TIP3    H124281   4.972   3.341   6.002  1.1482 -0.7337 -0.8447
  930TIP3    H224282   4.972   3.487   6.040 -0.0562 -1.3883  1.9317
  931TIP3   OH224283   0.252   4.249   1.329  1.0106 -0.4125 -0.3111
  931TIP3    H124284   0.348   4.244   1.326  1.1012  1.2158 -1.4672
  931TIP3    H224285   0.234   4.324   1.386  0.3202 -2.0191  1.7063
  932TIP3   OH224286   1.702   3.971   4.018  0.0646 -0.0999  0.4692
  932TIP3    H124287   1.766   3.950   3.950  0.6934  0.6750  0.7949
  932TIP3    H224288   1.751   3.959   4.100 -0.1175  0.7238  0.7146
  933TIP3   OH224289   2.087   3.162   0.030 -0.3382 -0.0678  0.0226
  933TIP3    H124290   2.095   3.068   0.047 -2.8737 -0.0781  1.6201
  933TIP3    H224291   2.158   3.202   0.080  0.9043 -1.0769 -0.8420
  934TIP3   OH224292   2.344   3.081   3.796  0.1802 -0.0892 -0.0389
  934TIP3    H124293   2.354   3.161   3.848 -1.1113  0.0587  0.0164
  934TIP3    H224294   2.339   3.112   3.706 -0.0821 -0.1339 -0.0387
  935TIP3   OH224295   0.242   3.258  10.480  0.3053  0.4950 -0.3140
  935TIP3    H124296   0.245   3.301  10.566  0.6073  0.6743 -0.4127
  935TIP3    H224297   0.262   3.328  10.418  0.8185  0.2019 -0.4772
  936TIP3   OH224298   2.055   1.386  11.581  0.8034 -0.3431 -0.6286
  936TIP3    H124299   2.091   1.371  11.669  1.2911  0.3109 -0.7054
  936TIP3    H224300   2.131   1.409  11.528  0.2221  1.9599 -0.5954
  937TIP3   OH224301   3.184   1.116  11.865 -0.1627  0.3018 -0.4150
  937TIP3    H124302   3.090   1.101  11.852 -0.4004 -0.5086  1.8763
  937TIP3    H224303   3.202   1.197  11.817 -1.9020  0.1972 -1.3259
  938TIP3   OH224304   5.998   1.052   5.373  0.2336  0.0975  0.1236
  938TIP3    H124305   5.954   0.975   5.409 -1.2160  0.2578 -1.1776
  938TIP3    H224306   5.976   1.123   5.433  0.0502 -0.1456  0.3476
  939TIP3   OH224307   2.359   1.529  15.468  0.4532  0.4935 -0.4288
  939TIP3    H124308   2.425   1.518  15.399 -0.5359 -0.1098 -1.3214
  939TIP3    H224309   2.281   1.486  15.433  1.1448 -4.3728  2.9843
  940TIP3   OH224310   4.314   1.169  11.744 -0.6921  0.3608 -0.3297
  940TIP3    H124311   4.393   1.206  11.705 -2.0691  0.9548 -2.7669
  940TIP3    H224312   4.283   1.105  11.680 -3.3476  1.7527 -0.6066
  941TIP3   OH224313   4.307   1.885   3.669  0.1656  0.2247  0.3513
  941TIP3    H124314   4.261   1.802   3.685  1.0429 -0.1943  0.8225
  941TIP3    H224315   4.361   1.897   3.747 -0.6918  1.7711  0.7392
  942TIP3   OH224316   5.256   3.994   3.748  0.3478  0.0105 -0.3158
  942TIP3    H124317   5.317   4.036   3.809 -0.0280 -0.0445  0.1078
  942TIP3    H224318   5.244   4.057   3.678 -0.4018  0.7328  0.4306
  943TIP3   OH224319   3.373   1.491  10.843 -0.2014  0.4638  0.0133
  943TIP3    H124320   3.305   1.530  10.789  0.9438  3.0974  0.3333
  943TIP3    H224321   3.455   1.532  10.814  1.2574 -2.2177 -0.0222
  944TIP3   OH224322   5.869   3.594   4.059  0.3465  0.3022 -0.3119
  944TIP3    H124323   5.791   3.641   4.088 -0.6901 -0.2530 -2.0716
  944TIP3    H224324   5.837   3.508   4.034  1.6181 -0.1123 -0.5740
  945TIP3   OH224325   3.838   5.272  11.729 -0.3430 -0.4361  0.1105
  945TIP3    H124326   3.847   5.212  11.655 -1.0900  0.2718 -0.5841
  945TIP3    H224327   3.747   5.301  11.725 -0.3520 -0.2700  1.2304
  946TIP3   OH224328   3.766   3.452  13.557 -0.7210 -0.4657 -0.4448
  946TIP3    H124329   3.774   3.357  13.545  1.6387 -0.3673 -0.2486
  946TIP3    H224330   3.673   3.467  13.576 -1.2513 -2.6494 -1.0840
  947TIP3   OH224331   0.938   3.274  11.594 -0.2757  0.2545  0.6284
  947TIP3    H124332   0.855   3.228  11.580 -0.0236 -0.6297  1.9023
  947TIP3    H224333   0.979   3.277  11.507 -1.0424 -0.4729  0.2290
  948TIP3   OH224334   6.351   5.336  11.865 -0.2788 -1.0128 -0.1356
  948TIP3    H124335   6.371   5.388  11.788  0.3706 -0.6435  0.2726
  948TIP3    H224336   6.374   5.393  11.939 -0.9961 -1.3181  0.3312
  949TIP3   OH224337   4.007   0.761  17.039  0.4173 -0.2221  0.5180
  949TIP3    H124338   3.967   0.674  17.043 -3.1652  1.2238  0.0600
  949TIP3    H224339   4.095   0.745  17.004 -0.5270 -3.5410 -0.7496
  950TIP3   OH224340   3.117   4.682   2.870 -0.3135 -0.1318  0.1878
  950TIP3    H124341   3.072   4.678   2.954 -0.9050 -0.2438 -0.1293
  950TIP3    H224342   3.201   4.723   2.889 -0.4337 -0.1862  0.8363
  951TIP3   OH224343   0.428   0.089   2.037 -0.0462 -0.5009  0.2203
  951TIP3    H124344   0.376   0.168   2.025  0.1333 -0.4702 -0.3783
  951TIP3    H224345   0.518   0.117   2.022  0.1026 -0.6547  0.7907
  952TIP3   OH224346   2.478   6.806  14.107 -0.1304  0.1635 -0.5760
  952TIP3    H124347   2.499   6.713  14.115  1.1556  0.4032 -0.9640
  952TIP3    H224348   2.498   6.827  14.016 -1.8587  0.4952 -0.9201
  953TIP3   OH224349   0.736   3.906   3.615  0.4132  0.7060  0.6974
  953TIP3    H124350   0.712   3.918   3.523  0.6343  1.4284  0.7222
  953TIP3    H224351   0.684   3.972   3.662  0.0961  0.1614  1.1288
  954TIP3   OH224352   1.332   4.794   2.746 -0.6803 -0.3401  0.1003
  954TIP3    H124353   1.407   4.852   2.761 -0.9309 -0.0712  0.3346
  954TIP3    H224354   1.354   4.746   2.666 -1.2539  1.3887 -1.1486
  955TIP3   OH224355   2.911   2.089   4.816 -0.0832  0.0332 -0.3658
  955TIP3    H124356   2.986   2.047   4.773  0.3261  0.3634  0.0192
  955TIP3    H224357   2.909   2.178   4.781  1.6433  1.0642  1.9167
  956TIP3   OH224358   6.778   2.256  16.665  0.3151 -0.2816 -0.3423
  956TIP3    H124359   6.724   2.299  16.731  0.7705 -1.3087  0.7378
  956TIP3    H224360   6.823   2.328  16.621 -1.7324  0.5807 -1.1303
  957TIP3   OH224361   5.822   3.668  15.556 -0.2268  0.1328 -0.1437
  957TIP3    H124362   5.764   3.595  15.579  0.1451  0.1859  1.0336
  957TIP3    H224363   5.905   3.626  15.534 -0.4037  0.1253 -0.8320
  958TIP3   OH224364   1.956   1.418   1.425  0.5309 -0.1941  0.0331
  958TIP3    H124365   1.960   1.440   1.518  1.0999  0.1690 -0.0685
  958TIP3    H224366   1.918   1.496   1.383  0.7980 -0.1352 -0.1034
  959TIP3   OH224367   5.201   0.467  16.246  0.5050  0.5474  0.0326
  959TIP3    H124368   5.142   0.540  16.264  0.6761  0.6047  0.3738
  959TIP3    H224369   5.165   0.394  16.296 -0.3061  0.0849 -1.1933
  960TIP3   OH224370   3.912   4.898  12.215  0.0325 -0.0844 -0.2846
  960TIP3    H124371   3.929   4.944  12.297 -1.4380 -0.1803  0.0955
  960TIP3    H224372   3.941   4.808  12.230  0.9059  0.1837 -0.3035
  961TIP3   OH224373   6.367   1.185  12.134  0.5658  0.0889 -0.1048
  961TIP3    H124374   6.430   1.234  12.080  0.3453  0.4422 -0.0445
  961TIP3    H224375   6.363   1.098  12.094 -0.3423  0.6476 -1.2556
  962TIP3   OH224376   6.486   2.934  13.294 -0.0081 -0.0413 -0.4685
  962TIP3    H124377   6.566   2.882  13.287 -1.4076 -2.2839 -0.7886
  962TIP3    H224378   6.515   3.018  13.330  2.2493 -1.3610  1.0230
  963TIP3   OH224379   2.659   5.812   2.172 -0.2966 -0.4916  0.4756
  963TIP3    H124380   2.694   5.742   2.227  0.2910 -0.6026 -0.0285
  963TIP3    H224381   2.607   5.865   2.232  0.0845 -0.7784  1.0768
  964TIP3   OH224382   2.355   5.959   6.446  0.3127 -0.1264 -0.3806
  964TIP3    H124383   2.424   5.948   6.511 -1.1362  0.7539  1.4190
  964TIP3    H224384   2.354   6.052   6.427 -1.7888  0.2955  1.3887
  965TIP3   OH224385   2.863   6.078  13.562 -0.3566  0.5431 -0.3656
  965TIP3    H124386   2.837   6.161  13.602 -1.0367  0.3936 -0.4788
  965TIP3    H224387   2.782   6.028  13.557  0.2309 -0.6076  0.8029
  966TIP3   OH224388   1.956   2.097   0.368  0.4559  0.3863 -0.0883
  966TIP3    H124389   1.932   2.017   0.321  1.2384 -0.3426  0.7242
  966TIP3    H224390   1.888   2.160   0.344 -0.8494 -0.8607  0.1784
  967TIP3   OH224391   2.574   4.509  15.661  0.0273 -0.9400  0.0625
  967TIP3    H124392   2.511   4.445  15.695  0.3916 -0.5621  1.5308
  967TIP3    H224393   2.591   4.567  15.735  0.4017  0.3189 -0.9770
  968TIP3   OH224394   1.799   3.911   0.871  0.3069  0.6034 -0.1648
  968TIP3    H124395   1.728   3.873   0.923  0.3260  0.6804 -0.0842
  968TIP3    H224396   1.760   3.924   0.784 -0.4007  2.5754  0.4180
  969TIP3   OH224397   0.564   2.932   4.982 -0.5473  0.1568  0.0544
  969TIP3    H124398   0.610   2.912   5.064 -0.2929 -0.5664 -0.2572
  969TIP3    H224399   0.481   2.972   5.010 -0.8237 -0.8320  0.7028
  970TIP3   OH224400   4.827   6.334   6.514  0.5960 -0.5534  0.4289
  970TIP3    H124401   4.770   6.410   6.500  0.5982 -0.5294  0.5578
  970TIP3    H224402   4.879   6.356   6.591  1.2848 -0.2687 -0.0970
  971TIP3   OH224403   1.804   3.206   1.458 -0.0687 -0.0631 -0.2864
  971TIP3    H124404   1.718   3.181   1.491 -0.6141  0.9294 -0.9135
  971TIP3    H224405   1.863   3.139   1.492 -0.4577  1.1778  3.2120
  972TIP3   OH224406   5.394   6.015   4.991  0.2250  0.1189  0.6039
  972TIP3    H124407   5.393   6.002   5.086 -0.2183 -2.8074  0.2738
  972TIP3    H224408   5.475   5.973   4.962 -0.4282 -0.4430 -0.4568
  973TIP3   OH224409   4.862   6.625   5.100  0.2537 -0.7510  0.2507
  973TIP3    H124410   4.929   6.558   5.090  0.6866 -0.1488 -1.1367
  973TIP3    H224411   4.792   6.598   5.041  0.7350  0.3446 -0.8814
  974TIP3   OH224412   5.567   1.684  17.302  0.4426  0.4691 -0.4677
  974TIP3    H124413   5.641   1.680  17.242  0.8838  2.5525 -0.1423
  974TIP3    H224414   5.605   1.697  17.388 -0.1755 -2.8133  0.4174
  975TIP3   OH224415   4.123   3.748  16.491 -0.4908 -0.3227  0.4228
  975TIP3    H124416   4.111   3.688  16.418 -2.2699  0.0332  0.3688
  975TIP3    H224417   4.161   3.694  16.561  1.9357 -0.4984 -0.9474
  976TIP3   OH224418   4.200   6.036  16.076  0.6444 -0.4203  0.5927
  976TIP3    H124419   4.268   6.053  16.142  0.4607 -0.9404  0.9236
  976TIP3    H224420   4.166   5.949  16.099  0.1740 -0.3520  0.1625
  977TIP3   OH224421   5.737   1.456  12.329 -0.2401 -0.3817 -0.3908
  977TIP3    H124422   5.770   1.470  12.241 -0.6993  0.9156 -0.3763
  977TIP3    H224423   5.808   1.411  12.375  1.2533  1.6684 -0.5660
  978TIP3   OH224424   1.667   5.858   4.655 -0.5161 -0.0528  0.1572
  978TIP3    H124425   1.693   5.841   4.745  0.6186 -0.1737 -0.1751
  978TIP3    H224426   1.749   5.864   4.607 -1.0838  0.5112 -0.7852
  979TIP3   OH224427   1.985   5.089   5.479 -0.2000  0.1221 -0.1487
  979TIP3    H124428   1.976   5.165   5.421 -0.9016  0.6629  0.6592
  979TIP3    H224429   2.024   5.124   5.559 -1.1089 -0.2351  0.4695
  980TIP3   OH224430   3.646   2.141   0.600  0.2847  0.6131 -0.3765
  980TIP3    H124431   3.684   2.135   0.687  2.2447 -0.2199 -1.2417
  980TIP3    H224432   3.659   2.054   0.562 -1.8107  0.5313 -1.0263
  981TIP3   OH224433   1.941   3.966   3.703  0.2095  0.5365 -0.5300
  981TIP3    H124434   1.922   3.917   3.624  0.9577  0.8132 -0.8916
  981TIP3    H224435   1.999   3.909   3.753 -0.5867  0.1906  0.0165
  982TIP3   OH224436   6.163   3.234   5.695 -0.4394  0.2748  0.0978
  982TIP3    H124437   6.117   3.253   5.777  0.8827  0.0075  0.9304
  982TIP3    H224438   6.245   3.193   5.722  0.5810  1.2649 -1.2895
  983TIP3   OH224439   0.236   6.375  16.294  0.3176 -0.1454 -0.3638
  983TIP3    H124440   0.206   6.460  16.326  0.9481 -0.0592  0.0259
  983TIP3    H224441   0.158   6.334  16.256 -0.3981 -0.1343  1.0359
  984TIP3   OH224442   2.496   2.327   5.140  0.2731  0.0243  0.1663
  984TIP3    H124443   2.522   2.417   5.120  0.3562 -0.1763 -0.6889
  984TIP3    H224444   2.463   2.330   5.230  1.0953  0.7305  0.4534
  985TIP3   OH224445   2.294   5.439  12.550 -0.3779 -0.6688  0.3925
  985TIP3    H124446   2.351   5.479  12.615  0.1677  2.0767 -1.5685
  985TIP3    H224447   2.211   5.425  12.596 -1.0570  4.0179  1.1497
  986TIP3   OH224448   0.844   0.046   6.429  0.1010  0.7124  0.1025
  986TIP3    H124449   0.838  -0.018   6.359  1.5827  1.9453 -1.2514
  986TIP3    H224450   0.754   0.071   6.448 -0.3627 -0.0953 -0.9551
  987TIP3   OH224451   6.675   2.377  13.619  0.0909 -0.0528 -0.4745
  987TIP3    H124452   6.668   2.320  13.696 -0.7894 -0.3557 -0.7708
  987TIP3    H224453   6.715   2.322  13.551 -0.3114 -0.1738 -0.6146
  988TIP3   OH224454   1.312   4.255  12.497 -0.0314 -0.2714  0.1244
  988TIP3    H124455   1.364   4.268  12.418 -1.5711  1.4329 -0.6933
  988TIP3    H224456   1.360   4.189  12.546  2.9461  1.2403 -0.4854
  989TIP3   OH224457   3.801   0.902  15.406  0.2888  0.4021  0.5850
  989TIP3    H124458   3.870   0.870  15.463  0.3798  0.2210  0.3752
  989TIP3    H224459   3.725   0.846  15.426  0.5980 -0.3140 -0.1589
  990TIP3   OH224460   0.310   1.659  16.750  0.3305 -0.0015 -0.0179
  990TIP3    H124461   0.235   1.659  16.690 -0.2735 -0.7885  0.7112
  990TIP3    H224462   0.299   1.739  16.801  1.7260  1.5281 -1.9649
  991TIP3   OH224463   3.912   4.372   0.150 -0.1720  0.1235  0.2842
  991TIP3    H124464   3.926   4.280   0.127 -0.2779  0.3769 -0.8018
  991TIP3    H224465   3.989   4.394   0.203 -0.1454 -0.5846  0.5631
  992TIP3   OH224466   6.376   5.030   1.666 -0.0400 -0.6529  0.4474
  992TIP3    H124467   6.428   4.993   1.595  0.3330 -2.2281  1.4981
  992TIP3    H224468   6.304   4.969   1.678 -0.2165 -0.3032  1.2874
  993TIP3   OH224469   1.985   4.440  12.274 -0.4308 -0.5593 -0.0845
  993TIP3    H124470   2.030   4.465  12.193  0.7506  1.7704  1.1772
  993TIP3    H224471   1.995   4.345  12.280  1.1570 -0.5366 -1.6958
  994TIP3   OH224472   1.813   1.557   6.484 -0.4918 -0.1265 -0.2295
  994TIP3    H124473   1.788   1.641   6.444 -3.8341 -0.2227  1.2986
  994TIP3    H224474   1.903   1.570   6.513  0.3004  1.6789 -3.0733
  995TIP3   OH224475   3.474   0.467   1.526  0.2789 -0.2667 -0.1170
  995TIP3    H124476   3.560   0.434   1.552 -0.5422 -0.6077  2.3246
  995TIP3    H224477   3.485   0.489   1.433  3.3048  0.7054  0.3480
  996TIP3   OH224478   6.014   0.625  16.003 -0.3556  0.4061  0.3584
  996TIP3    H124479   5.920   0.630  16.021 -0.8064 -3.0073 -0.2909
  996TIP3    H224480   6.020   0.604  15.910  1.0226  0.3437  0.4364
  997TIP3   OH224481   1.850   6.508  12.816  0.3792 -0.0538  0.5583
  997TIP3    H124482   1.917   6.520  12.749  0.9240  0.5112  1.1896
  997TIP3    H224483   1.768   6.510  12.767  0.6726  1.8845  0.0414
  998TIP3   OH224484   1.856   6.442  16.087 -0.6689 -0.0466 -0.1788
  998TIP3    H124485   1.886   6.532  16.098  0.0867 -0.4197  0.9752
  998TIP3    H224486   1.841   6.433  15.993  0.5453  0.8806 -0.4787
  999TIP3   OH224487   2.455   2.747   0.392  0.5529  0.2855 -0.5128
  999TIP3    H124488   2.527   2.703   0.348 -0.1813 -1.1569 -0.3523
  999TIP3    H224489   2.393   2.676   0.412 -0.8621  1.4544 -0.5810
 1000TIP3   OH224490   5.362   4.767  13.505  0.2902  0.4824 -0.4349
 1000TIP3    H124491   5.296   4.807  13.562  0.2910 -2.7653  2.0802
 1000TIP3    H224492   5.312   4.713  13.444  0.5187  0.6700 -0.7997
 1001TIP3   OH224493   2.217   5.678  14.472 -0.2815  0.1209  0.1266
 1001TIP3    H124494   2.162   5.716  14.541 -1.8570  0.6849 -1.3534
 1001TIP3    H224495   2.174   5.705  14.391  2.4473  0.9473 -1.1432
 1002TIP3   OH224496   2.744   2.976  11.615  0.1461 -0.1543 -0.1245
 1002TIP3    H124497   2.667   3.015  11.657  0.4278 -0.0052  0.2674
 1002TIP3    H224498   2.818   3.023  11.654  0.4071  0.1896 -1.0203
 1003TIP3   OH224499   4.113   0.439  16.929  0.1196  0.0305 -0.3746
 1003TIP3    H124500   4.053   0.366  16.947  0.9802 -1.0505 -1.7437
 1003TIP3    H224501   4.155   0.456  17.013 -0.0109 -1.1267 -0.0550
 1004TIP3   OH224502   0.734   5.371  11.083 -0.4666 -0.4874 -0.0387
 1004TIP3    H124503   0.708   5.428  11.011 -0.0118 -1.1416 -0.7423
 1004TIP3    H224504   0.718   5.282  11.050 -0.9836 -0.7855  0.9593
 1005TIP3   OH224505   2.833   5.103   1.285  0.0810  0.0756  0.5661
 1005TIP3    H124506   2.760   5.050   1.251  0.4103  0.5400 -0.9223
 1005TIP3    H224507   2.799   5.192   1.283 -0.3521  0.0007  2.7528
 1006TIP3   OH224508   0.337   3.009   3.598 -0.1578 -0.2499  0.2483
 1006TIP3    H124509   0.307   3.001   3.689 -2.2491 -3.8080 -0.5698
 1006TIP3    H224510   0.257   3.000   3.546  1.2524 -0.5575 -1.9711
 1007TIP3   OH224511   1.230   3.692  16.578  0.1950  0.2562 -0.0435
 1007TIP3    H124512   1.158   3.674  16.638 -0.2837  1.6941 -0.1553
 1007TIP3    H224513   1.189   3.735  16.503  0.8894 -0.8405 -1.0881
 1008TIP3   OH224514   0.438   1.473   4.636  0.0814 -0.1405 -0.0695
 1008TIP3    H124515   0.463   1.557   4.597 -0.5691  0.2970  0.4308
 1008TIP3    H224516   0.354   1.491   4.679 -0.0390 -1.0368  0.0884
 1009TIP3   OH224517   5.186   2.367  14.479  0.6402  0.6580 -0.0290
 1009TIP3    H124518   5.136   2.309  14.420  0.5026  0.0126  0.7100
 1009TIP3    H224519   5.122   2.430  14.511  0.1509 -0.4581  1.2904
 1010TIP3   OH224520   5.576   0.128   1.280 -0.4346 -0.1486 -0.1254
 1010TIP3    H124521   5.640   0.114   1.210  0.5197  1.1808  0.4278
 1010TIP3    H224522   5.598   0.215   1.314 -1.5283 -0.3536  1.1500
 1011TIP3   OH224523   1.924   6.225  11.379  0.2784 -0.3004  0.0126
 1011TIP3    H124524   1.930   6.214  11.284  1.4645 -0.3282  0.0776
 1011TIP3    H224525   1.892   6.141  11.411  2.3653 -1.2133 -0.1500
 1012TIP3   OH224526   6.777   4.748   2.021 -0.1744 -0.1634 -0.5221
 1012TIP3    H124527   6.738   4.807   1.958 -0.5300 -1.7297 -1.8199
 1012TIP3    H224528   6.736   4.663   2.004  0.1168 -0.7565  1.4598
 1013TIP3   OH224529   0.351   5.470  16.351 -0.0231 -0.2255 -0.1436
 1013TIP3    H124530   0.292   5.491  16.423  0.3821 -1.6887  0.6582
 1013TIP3    H224531   0.311   5.510  16.274 -0.1683  1.8556  0.9617
 1014TIP3   OH224532   3.008   6.367   4.945 -0.1218  0.0238 -0.0597
 1014TIP3    H124533   3.045   6.320   4.871 -1.8939 -1.2165 -0.2355
 1014TIP3    H224534   2.914   6.371   4.926 -0.4049  1.0304  1.3895
 1015TIP3   OH224535   5.127   2.820  14.503 -0.1805  0.0547 -0.4518
 1015TIP3    H124536   5.116   2.915  14.510 -0.7620 -0.0143 -0.3934
 1015TIP3    H224537   5.215   2.804  14.538  0.1491  0.6327 -0.9970
 1016TIP3   OH224538   2.526   3.073   2.984 -0.0053  0.1564  0.1169
 1016TIP3    H124539   2.446   3.123   2.994 -1.9075 -2.5534 -0.4502
 1016TIP3    H224540   2.540   3.033   3.070  0.9838  0.8815  0.3124
 1017TIP3   OH224541   1.691   3.768   0.214 -0.2699  0.1312 -0.1782
 1017TIP3    H124542   1.676   3.736   0.303  1.3041 -0.8469 -0.2157
 1017TIP3    H224543   1.605   3.764   0.172 -0.8328 -0.4425  0.9761
 1018TIP3   OH224544   5.716   3.046   5.461  0.5348 -0.2048 -0.2773
 1018TIP3    H124545   5.725   3.076   5.371  0.9373  2.3417  0.5096
 1018TIP3    H224546   5.710   3.127   5.512  1.0624 -1.5470  2.0569
 1019TIP3   OH224547   3.610   5.761  13.122 -0.2856 -0.2905  0.0677
 1019TIP3    H124548   3.655   5.799  13.198 -1.8180  0.4198  0.6615
 1019TIP3    H224549   3.543   5.705  13.160 -1.1406  0.1545 -0.7468
 1020TIP3   OH224550   6.054   2.636  16.917  0.1452  0.0739 -0.1782
 1020TIP3    H124551   6.021   2.567  16.975 -1.0329  0.3543 -0.4881
 1020TIP3    H224552   5.977   2.666  16.869  1.0957 -0.1914 -1.9676
 1021TIP3   OH224553   6.419   5.600   6.623  0.8954  0.4983 -0.4459
 1021TIP3    H124554   6.382   5.683   6.651  0.7717  0.3965 -0.3034
 1021TIP3    H224555   6.512   5.607   6.643  0.6703  0.0958  0.8332
 1022TIP3   OH224556   2.334   5.736   0.098  0.2737 -0.4097  0.5261
 1022TIP3    H124557   2.270   5.735   0.026  0.3333 -1.6770  0.4695
 1022TIP3    H224558   2.295   5.795   0.163  1.0490  2.2530 -1.2388
 1023TIP3   OH224559   3.277   4.998  16.021 -0.5329  0.3451 -0.1604
 1023TIP3    H124560   3.301   4.928  16.082 -0.5475  0.9155  0.5132
 1023TIP3    H224561   3.190   4.975  15.991 -0.8325  0.4354  0.6137
 1024TIP3   OH224562   1.216   5.662  13.962 -0.4048 -0.4616  0.6418
 1024TIP3    H124563   1.269   5.662  13.882 -1.7933 -0.6167 -0.3159
 1024TIP3    H224564   1.264   5.717  14.023  0.4821 -0.0015 -0.4486
 1025TIP3   OH224565   6.579   3.431  12.464 -0.2005  0.5009 -0.0444
 1025TIP3    H124566   6.597   3.480  12.384 -0.3268  0.6082 -0.0063
 1025TIP3    H224567   6.523   3.359  12.436 -0.5262  0.7339  0.0051
 1026TIP3   OH224568   1.410   4.449  15.160  0.1767 -0.8736 -0.1496
 1026TIP3    H124569   1.329   4.498  15.175 -0.7707 -2.4628  0.1479
 1026TIP3    H224570   1.459   4.460  15.242  0.8667  1.1102 -0.7733
 1027TIP3   OH224571   0.694   1.528   3.686 -1.0175  0.6725  0.4641
 1027TIP3    H124572   0.606   1.493   3.670  0.2598 -3.0952  0.7304
 1027TIP3    H224573   0.752   1.468   3.638  1.5945  1.2357  2.7118
 1028TIP3   OH224574   1.906   4.120  13.097  0.4019 -0.0857 -0.0655
 1028TIP3    H124575   1.852   4.194  13.123 -1.1859 -1.3968  0.5812
 1028TIP3    H224576   1.845   4.046  13.092  2.1207 -1.6557  0.7199
 1029TIP3   OH224577   5.916   2.498  13.450 -0.0907  0.2180 -0.0736
 1029TIP3    H124578   5.911   2.482  13.544  0.1776 -0.2459 -0.1377
 1029TIP3    H224579   5.899   2.592  13.441  0.2363  0.3324  0.4641
 1030TIP3   OH224580   0.873   6.559   2.156 -0.0056 -0.3894 -1.1493
 1030TIP3    H124581   0.959   6.520   2.140  1.1182  1.8051 -0.8153
 1030TIP3    H224582   0.892   6.647   2.187 -2.2962 -0.8089  1.9295
 1031TIP3   OH224583   4.760   1.875  12.768  0.4118  0.5588 -0.3364
 1031TIP3    H124584   4.804   1.795  12.740 -0.4579  0.2134 -0.7866
 1031TIP3    H224585   4.694   1.845  12.831  0.7702  1.0533  0.2871
 1032TIP3   OH224586   2.267   4.737   2.801  0.0766 -0.2813 -0.1218
 1032TIP3    H124587   2.330   4.683   2.849 -0.3668 -1.0940 -0.4221
 1032TIP3    H224588   2.191   4.679   2.789 -0.2824  0.3102 -0.7449
 1033TIP3   OH224589   4.894   2.646  10.182 -0.4486  0.0761  0.3664
 1033TIP3    H124590   4.941   2.576  10.227  0.4744 -0.3326 -1.1457
 1033TIP3    H224591   4.890   2.617  10.090 -2.0269  0.9799  0.1029
 1034TIP3   OH224592   5.630   5.012   5.047  0.1718 -0.3688  0.3786
 1034TIP3    H124593   5.665   4.931   5.010 -2.3312 -1.5531  0.3660
 1034TIP3    H224594   5.552   5.030   4.994  0.1388  1.5397  0.9996
 1035TIP3   OH224595   1.430   2.083   3.484 -0.0860 -0.1433  0.0640
 1035TIP3    H124596   1.433   2.118   3.573  2.3763  1.4342 -0.5066
 1035TIP3    H224597   1.409   2.159   3.429  1.0285 -0.4654 -0.8695
 1036TIP3   OH224598   0.216   5.166   4.296  0.1685  0.3315 -0.5842
 1036TIP3    H124599   0.157   5.155   4.370  0.3655 -0.1457 -0.4964
 1036TIP3    H224600   0.179   5.112   4.227 -0.8676  1.9411 -1.3614
 1037TIP3   OH224601   4.810   3.689  11.927 -0.2834  0.3715  0.2700
 1037TIP3    H124602   4.796   3.694  12.022 -1.6593 -1.0263  0.1785
 1037TIP3    H224603   4.725   3.666  11.892 -0.0961  2.0958 -1.4719
 1038TIP3   OH224604   3.925   1.827   6.026  0.3975  0.3371 -0.0573
 1038TIP3    H124605   3.973   1.910   6.033 -0.1778  0.6563  0.2572
 1038TIP3    H224606   3.942   1.783   6.109  2.0084 -0.6026 -0.8536
 1039TIP3   OH224607   1.783   2.990   0.065 -0.1541  0.0776  0.3830
 1039TIP3    H124608   1.836   3.035   0.131  1.3609  2.2692 -2.1668
 1039TIP3    H224609   1.694   2.993   0.101  0.6621  0.7465  2.5212
 1040TIP3   OH224610   2.729   2.561  12.018  0.0717 -0.5068  0.2113
 1040TIP3    H124611   2.652   2.573  12.073  0.6834 -0.9960  1.2061
 1040TIP3    H224612   2.753   2.469  12.029  0.0249 -0.7023 -1.1404
 1041TIP3   OH224613   2.631   2.189  10.483  0.2311 -0.2353 -0.0355
 1041TIP3    H124614   2.626   2.239  10.565 -0.1627  0.2609 -0.3532
 1041TIP3    H224615   2.674   2.249  10.421  1.5008 -0.9928  0.0854
 1042TIP3   OH224616   3.830   0.722   0.132  0.8316  0.0097  0.0680
 1042TIP3    H124617   3.835   0.739   0.226  1.6177 -1.5445  0.3547
 1042TIP3    H224618   3.795   0.803   0.095 -0.0901  0.4451  1.7500
 1043TIP3   OH224619   4.822   3.409   4.970 -0.1322 -0.7805  0.3043
 1043TIP3    H124620   4.800   3.322   4.935  1.0233 -0.3874 -1.5272
 1043TIP3    H224621   4.791   3.470   4.903 -1.9634  0.3807  2.0667
 1044TIP3   OH224622   2.155   0.875   0.803 -0.2207  0.3281 -0.0573
 1044TIP3    H124623   2.212   0.809   0.843  1.2589  2.0910  0.9267
 1044TIP3    H224624   2.067   0.839   0.811  0.4809 -1.3280  0.8198
 1045TIP3   OH224625   5.264   4.747  16.711 -0.1791 -0.1581  0.4672
 1045TIP3    H124626   5.300   4.798  16.638 -0.2517 -1.6196 -0.6272
 1045TIP3    H224627   5.314   4.776  16.787  1.2930 -0.0490 -0.5109
 1046TIP3   OH224628   5.110   4.452   3.004 -0.1014  0.3988 -0.3763
 1046TIP3    H124629   5.052   4.497   3.065 -1.5661 -0.2713 -1.2193
 1046TIP3    H224630   5.197   4.485   3.024 -0.7277  1.1757  1.1671
 1047TIP3   OH224631   2.848   0.648   0.985 -0.5301  0.1961 -0.5633
 1047TIP3    H124632   2.886   0.637   1.072 -0.4168  1.2887 -0.4552
 1047TIP3    H224633   2.764   0.691   1.001 -0.9645 -0.5015 -0.9321
 1048TIP3   OH224634   0.708   0.242   0.328 -0.3353  0.0123 -0.2946
 1048TIP3    H124635   0.626   0.274   0.290 -0.5322 -1.4638 -1.1602
 1048TIP3    H224636   0.684   0.217   0.418 -0.5302  0.7381 -0.1313
 1049TIP3   OH224637   4.774   3.940   2.670  0.2557  0.6217 -0.2185
 1049TIP3    H124638   4.782   3.944   2.574 -0.3833  0.8404 -0.2644
 1049TIP3    H224639   4.825   4.015   2.701  0.3554  0.6263 -0.3879
 1050TIP3   OH224640   1.746   2.860  14.363  0.2550  0.3816  0.4296
 1050TIP3    H124641   1.671   2.806  14.386  0.4859 -0.8268 -1.4510
 1050TIP3    H224642   1.709   2.948  14.351 -1.5007 -0.6295 -3.0130
 1051TIP3   OH224643   3.599   5.603  14.052  0.2111  0.0653  0.1854
 1051TIP3    H124644   3.572   5.515  14.078  0.7763 -0.5629 -1.2656
 1051TIP3    H224645   3.591   5.655  14.132 -2.1853 -0.7960  0.5969
 1052TIP3   OH224646   5.411   3.477   0.049  0.0455 -0.2034  0.3913
 1052TIP3    H124647   5.365   3.393   0.049  1.1087 -0.8038  0.0931
 1052TIP3    H224648   5.488   3.462  -0.006  1.5604  0.2169  2.2792
 1053TIP3   OH224649   3.584   6.118  12.106  0.3789  0.5874 -0.3348
 1053TIP3    H124650   3.604   6.210  12.090 -0.0856  0.9743  1.1248
 1053TIP3    H224651   3.648   6.090  12.171 -0.5961  0.4124  0.5819
 1054TIP3   OH224652   5.321   5.493  17.187 -0.3135  0.4442  0.1257
 1054TIP3    H124653   5.321   5.536  17.102 -1.8688 -2.4777 -1.5007
 1054TIP3    H224654   5.346   5.402  17.168 -0.6380 -0.2835  2.7979
 1055TIP3   OH224655   2.165   1.903  12.307 -0.5548  0.1720 -0.2751
 1055TIP3    H124656   2.203   1.818  12.328  0.2798  0.8273  0.9553
 1055TIP3    H224657   2.201   1.924  12.221  0.7127  0.1051  0.2206
 1056TIP3   OH224658   4.829   6.343  12.354  0.1918  0.3140  0.1881
 1056TIP3    H124659   4.779   6.321  12.275  2.4051 -3.0936 -0.5128
 1056TIP3    H224660   4.896   6.404  12.324 -0.2800  0.7041 -0.0802
 1057TIP3   OH224661   5.059   5.648   0.451  0.0515 -0.6218 -0.1306
 1057TIP3    H124662   5.008   5.585   0.401 -0.2882 -0.2089 -0.3027
 1057TIP3    H224663   5.150   5.627   0.429 -0.1107 -0.1276 -1.3016
 1058TIP3   OH224664   6.169   3.897  11.970 -0.1895 -0.3898  0.4361
 1058TIP3    H124665   6.095   3.924  12.024 -1.6351 -1.9714 -0.6623
 1058TIP3    H224666   6.145   3.810  11.937  2.5235 -1.3446  0.6997
 1059TIP3   OH224667   3.844   3.108  12.389  0.2206 -0.3269 -0.2647
 1059TIP3    H124668   3.863   3.198  12.361  0.7063 -0.4765 -0.4219
 1059TIP3    H224669   3.765   3.116  12.442 -0.1431  0.1043 -0.8526
 1060TIP3   OH224670   1.028   0.699   5.490 -0.6595  0.3081 -0.1984
 1060TIP3    H124671   1.021   0.604   5.484 -3.3100  0.3820  0.4934
 1060TIP3    H224672   1.121   0.718   5.477  0.2450 -2.4930  1.4334
 1061TIP3   OH224673   0.303   4.188  13.777  0.1945 -0.4806 -0.6419
 1061TIP3    H124674   0.346   4.273  13.787  1.6546 -1.4022  1.6499
 1061TIP3    H224675   0.356   4.141  13.712 -0.5649  0.2821 -1.8455
 1062TIP3   OH224676   6.499   6.722   3.959  0.2392 -1.0260 -0.1994
 1062TIP3    H124677   6.464   6.677   4.035 -0.8644  1.6924  1.0475
 1062TIP3    H224678   6.556   6.790   3.995 -0.3258  0.3484 -1.7702
 1063TIP3   OH224679   0.235   5.668   4.091  0.0026  0.6254  0.0876
 1063TIP3    H124680   0.162   5.617   4.055  1.6530 -3.3037  1.7013
 1063TIP3    H224681   0.194   5.730   4.151 -2.1076 -0.2629 -0.3492
 1064TIP3   OH224682   2.308   0.422  14.584 -0.1234  0.4542  0.1360
 1064TIP3    H124683   2.234   0.376  14.546  0.0803  1.3287 -1.3738
 1064TIP3    H224684   2.363   0.352  14.621 -1.8085 -0.1853  1.6079
 1065TIP3   OH224685   3.501   1.053  11.690 -0.1960 -0.1485  0.1552
 1065TIP3    H124686   3.503   1.061  11.786  0.4960 -0.2212  0.1469
 1065TIP3    H224687   3.593   1.054  11.663 -0.3947  0.5086 -0.5650
 1066TIP3   OH224688   3.162   5.231   0.756  0.2112  0.3305  0.6491
 1066TIP3    H124689   3.097   5.299   0.740  0.7939  0.8785  0.5640
 1066TIP3    H224690   3.135   5.191   0.839 -0.5340  0.1814  0.3419
 1067TIP3   OH224691   2.261   5.923   2.182  0.3036 -0.0646 -0.1609
 1067TIP3    H124692   2.342   5.936   2.230  0.9147 -1.3544 -0.8079
 1067TIP3    H224693   2.217   6.009   2.185 -0.2279 -0.3245  3.5700
 1068TIP3   OH224694   1.679   0.799  13.738 -0.2745  0.0310 -0.2180
 1068TIP3    H124695   1.750   0.807  13.802  0.1229  2.7230 -0.8564
 1068TIP3    H224696   1.716   0.747  13.667  0.7770  0.6186 -0.1265
 1069TIP3   OH224697   2.571   2.108  14.135  0.2944 -0.1744 -0.5492
 1069TIP3    H124698   2.541   2.048  14.067  0.6718 -1.3352  0.2690
 1069TIP3    H224699   2.606   2.051  14.203  1.0926  1.0044  0.0657
 1070TIP3   OH224700   3.755   2.085   3.480 -0.3087  0.6074 -0.0357
 1070TIP3    H124701   3.726   2.027   3.410 -0.4842  1.0464 -0.3327
 1070TIP3    H224702   3.851   2.081   3.477 -0.3218  0.0821  0.1635
 1071TIP3   OH224703   4.210   0.074  12.892  0.6585  0.0816  0.1357
 1071TIP3    H124704   4.172   0.159  12.912 -1.9462 -0.2154 -2.6753
 1071TIP3    H224705   4.262   0.088  12.813  2.3289 -0.5150  1.0833
 1072TIP3   OH224706   4.200   3.092   1.938  0.5897 -0.5170 -0.5036
 1072TIP3    H124707   4.173   3.026   2.002  2.5791  1.8152  3.1372
 1072TIP3    H224708   4.135   3.161   1.945  1.8575  0.6369  0.6687
 1073TIP3   OH224709   6.473   4.547  11.749 -0.1319 -0.5188  0.1600
 1073TIP3    H124710   6.487   4.534  11.843  1.5263 -1.4950 -0.1935
 1073TIP3    H224711   6.547   4.505  11.707 -0.1480  1.0222 -1.5648
 1074TIP3   OH224712   4.084   6.519  15.386  0.1342  0.4218  0.3000
 1074TIP3    H124713   4.039   6.482  15.310  2.9457 -0.8180 -0.9099
 1074TIP3    H224714   4.073   6.453  15.455 -0.6664  0.5809  0.3347
 1075TIP3   OH224715   5.602   1.985  14.418 -0.1727  0.3539 -0.3004
 1075TIP3    H124716   5.515   1.989  14.378 -1.4508  1.3208  2.3049
 1075TIP3    H224717   5.587   1.946  14.504  1.9972  0.5217  0.2145
 1076TIP3   OH224718   5.019   5.172  15.764  0.1692 -0.1249  0.2436
 1076TIP3    H124719   4.949   5.117  15.731 -1.4128  1.3589  0.9860
 1076TIP3    H224720   5.017   5.159  15.859  0.8562 -0.0329  0.2753
 1077TIP3   OH224721   2.846   5.830   2.640 -0.0002 -0.0518 -0.0123
 1077TIP3    H124722   2.837   5.881   2.559  1.8865 -0.8943 -0.8198
 1077TIP3    H224723   2.941   5.817   2.649 -0.2031 -0.3946  2.0982
 1078TIP3   OH224724   1.988   0.069   6.083  0.2509  0.1353 -0.5701
 1078TIP3    H124725   1.948   0.140   6.031  0.9723  0.2065 -1.0407
 1078TIP3    H224726   2.042   0.021   6.020  1.4192  0.4370  0.1834
 1079TIP3   OH224727   2.737   6.299   4.760 -0.3251 -0.5428  0.2558
 1079TIP3    H124728   2.658   6.302   4.813 -0.6279 -0.4474 -0.1960
 1079TIP3    H224729   2.787   6.225   4.795 -0.2796 -0.1717  0.9987
 1080TIP3   OH224730   4.057   3.047  14.388  0.0903  0.8328 -0.0341
 1080TIP3    H124731   4.084   3.066  14.478  2.5253  0.9308 -0.7176
 1080TIP3    H224732   3.966   3.018  14.396 -0.7840  3.7196  2.1106
 1081TIP3   OH224733   6.243   0.554   4.884  0.2406 -0.0807  0.7486
 1081TIP3    H124734   6.311   0.604   4.839 -0.5558  0.8494  0.5348
 1081TIP3    H224735   6.181   0.620   4.914 -1.2943 -0.9897 -0.2875
 1082TIP3   OH224736   1.284   5.541   1.477  0.0620  0.3676  0.5493
 1082TIP3    H124737   1.374   5.531   1.447 -0.0911 -3.5064  0.9072
 1082TIP3    H224738   1.289   5.531   1.572 -0.6809  1.1477  0.6860
 1083TIP3   OH224739   6.679   4.288  11.323 -0.5679 -0.4020 -0.3302
 1083TIP3    H124740   6.645   4.200  11.308  0.7017 -0.8214 -0.8972
 1083TIP3    H224741   6.755   4.294  11.266  1.4457 -0.1910  2.2285
 1084TIP3   OH224742   0.391   4.699   1.586 -0.3787  0.4820 -0.0523
 1084TIP3    H124743   0.393   4.611   1.550 -1.2615  0.3883  0.1232
 1084TIP3    H224744   0.426   4.690   1.675  0.9371  0.5667 -0.5408
 1085TIP3   OH224745   5.374   3.525  13.233  0.5523  0.1763 -0.0373
 1085TIP3    H124746   5.293   3.514  13.283  1.5437  0.2032  1.6523
 1085TIP3    H224747   5.387   3.620  13.230 -0.3435  0.2879 -1.8342
 1086TIP3   OH224748   2.949   5.620  11.174 -0.4070  0.3376  0.3707
 1086TIP3    H124749   2.911   5.532  11.176 -0.4747  0.2821 -1.3458
 1086TIP3    H224750   2.879   5.676  11.140 -0.5491  1.1964  1.9736
 1087TIP3   OH224751   6.387   4.790  14.136 -0.2346 -0.5889 -0.0117
 1087TIP3    H124752   6.300   4.813  14.105 -0.0542  0.5800  0.2799
 1087TIP3    H224753   6.416   4.720  14.078 -0.9386 -0.2372 -0.8058
 1088TIP3   OH224754   1.649   3.444  14.019  0.5181  0.2348  0.2650
 1088TIP3    H124755   1.654   3.502  13.943  0.0778  0.5277  0.4573
 1088TIP3    H224756   1.599   3.368  13.987 -0.8521  0.9564  0.6253
 1089TIP3   OH224757   6.772   4.046   2.948 -0.2378 -0.0519 -0.6931
 1089TIP3    H124758   6.763   4.126   2.897  1.1261 -0.3100 -1.3966
 1089TIP3    H224759   6.854   4.008   2.918 -0.1133 -0.9533  0.7056
 1090TIP3   OH224760   5.906   6.226   3.658  0.1882 -0.0854 -0.1046
 1090TIP3    H124761   5.984   6.172   3.654  0.1080 -0.1583 -0.7328
 1090TIP3    H224762   5.933   6.311   3.622  0.1501  0.0955  0.2893
 1091TIP3   OH224763   0.837   5.678   4.839 -0.1924  0.1042  0.3086
 1091TIP3    H124764   0.930   5.660   4.854  0.6018  1.7708 -1.9160
 1091TIP3    H224765   0.797   5.592   4.827  1.5022 -0.5984 -0.7211
 1092TIP3   OH224766   1.456   6.163  15.387 -0.0480  0.4456 -0.5087
 1092TIP3    H124767   1.546   6.142  15.410 -0.3219  0.3802  0.5740
 1092TIP3    H224768   1.451   6.259  15.396  0.4231  0.7071 -2.5501
 1093TIP3   OH224769   2.059   0.367   2.452  0.2334  0.5527  0.3822
 1093TIP3    H124770   2.140   0.376   2.502  1.6704 -1.0316 -1.4955
 1093TIP3    H224771   2.044   0.273   2.445  0.3250  0.6556 -2.3851
 1094TIP3   OH224772   2.346   6.644   2.918 -0.1154  0.3448 -0.1098
 1094TIP3    H124773   2.275   6.700   2.949 -1.5820 -1.1816 -0.5349
 1094TIP3    H224774   2.380   6.604   2.998  1.8556  2.7341  0.3636
 1095TIP3   OH224775   0.429   5.134  16.090 -0.3345 -0.3937  0.1074
 1095TIP3    H124776   0.500   5.165  16.034  0.4638 -0.6675  0.9331
 1095TIP3    H224777   0.443   5.179  16.173 -1.3110 -0.2343  0.1951
 1096TIP3   OH224778   2.301   3.072  15.648 -0.1513 -0.0489  0.1429
 1096TIP3    H124779   2.372   3.009  15.637  1.7741  2.0990 -0.2579
 1096TIP3    H224780   2.321   3.117  15.730 -1.0207  0.6485 -0.0177
 1097TIP3   OH224781   0.171   3.695  13.381 -0.1764 -0.6595 -0.2918
 1097TIP3    H124782   0.247   3.654  13.342 -0.3789  0.2559 -1.7562
 1097TIP3    H224783   0.135   3.750  13.311 -1.0265  0.4666  0.9592
 1098TIP3   OH224784   2.417   4.980  14.605 -0.1162  0.8902 -0.0792
 1098TIP3    H124785   2.452   4.954  14.690 -0.2269 -1.6047 -0.7063
 1098TIP3    H224786   2.393   5.072  14.616  1.2982  1.0752  2.0883
 1099TIP3   OH224787   5.383   4.729   2.844  0.4397  0.1487 -0.3101
 1099TIP3    H124788   5.404   4.798   2.781  0.8350  0.6763  0.3847
 1099TIP3    H224789   5.288   4.718   2.837  0.2926  1.1482 -0.0485
 1100TIP3   OH224790   2.229   5.845  12.056 -0.1288  0.1888 -0.2011
 1100TIP3    H124791   2.192   5.914  12.112  1.0073 -0.2268  1.1190
 1100TIP3    H224792   2.218   5.878  11.967 -2.6810  0.5477  0.1646
 1101TIP3   OH224793   3.024   0.011  12.101  0.1366 -0.2705 -0.1222
 1101TIP3    H124794   3.041   0.058  12.019 -0.0107 -0.7683 -0.4407
 1101TIP3    H224795   3.110   0.002  12.141 -0.0841  2.6839  1.3019
 1102TIP3   OH224796   4.710   0.013   0.195 -0.0325 -0.1658 -0.0043
 1102TIP3    H124797   4.639   0.074   0.216  0.1620 -0.4181  1.5409
 1102TIP3    H224798   4.727  -0.032   0.278  0.1471 -1.9973 -0.9881
 1103TIP3   OH224799   3.122   6.232   4.122  0.0021 -0.5821  0.3138
 1103TIP3    H124800   3.060   6.171   4.161 -0.6818  0.2189  0.4902
 1103TIP3    H224801   3.093   6.318   4.151 -0.9378  0.1343 -2.4385
 1104TIP3   OH224802   2.794   1.548   0.346 -0.5502  0.0626 -0.1100
 1104TIP3    H124803   2.734   1.536   0.272 -0.5817 -1.4244  0.1267
 1104TIP3    H224804   2.876   1.509   0.317 -0.7992 -1.2712  0.9205
 1105TIP3   OH224805   2.694   6.395  11.368  0.2725  0.1083 -0.3221
 1105TIP3    H124806   2.655   6.376  11.282  0.9805 -2.7345 -0.0967
 1105TIP3    H224807   2.638   6.349  11.430  0.9267  0.4720  0.5499
 1106TIP3   OH224808   6.321   4.974  17.006 -0.4714  0.8745 -0.1390
 1106TIP3    H124809   6.363   5.050  17.045  4.2578 -0.8511 -1.1515
 1106TIP3    H224810   6.302   5.001  16.916  0.0914  1.2373 -0.1534
 1107TIP3   OH224811   1.811   5.993   0.516  0.0604 -0.0703 -0.0785
 1107TIP3    H124812   1.816   6.024   0.607  1.1596  1.2218 -0.5510
 1107TIP3    H224813   1.717   5.986   0.498 -0.1743  0.1845  0.9820
 1108TIP3   OH224814   5.114   0.334   1.674 -0.1430  0.1854  0.2475
 1108TIP3    H124815   5.167   0.340   1.753  2.4903 -1.9675 -1.2045
 1108TIP3    H224816   5.130   0.417   1.628  0.8494  0.1379  0.4958
 1109TIP3   OH224817   2.121   3.652  12.647  0.0989  0.5384 -0.6224
 1109TIP3    H124818   2.104   3.585  12.713 -1.2969 -0.0753 -1.5533
 1109TIP3    H224819   2.213   3.639  12.623  0.4646  0.4077  0.7694
 1110TIP3   OH224820   1.699   4.274  16.732  0.0174 -0.0199  0.5070
 1110TIP3    H124821   1.719   4.363  16.703  1.0032 -0.1069  0.8545
 1110TIP3    H224822   1.718   4.274  16.826  0.5765 -0.7244  0.4104
 1111TIP3   OH224823   0.013   6.543   0.768 -0.1624 -0.5824  0.1741
 1111TIP3    H124824  -0.011   6.625   0.812  1.7011  1.1023 -1.7393
 1111TIP3    H224825   0.042   6.485   0.839  1.5783  1.5655  1.3307
 1112TIP3   OH224826   1.681   2.622   1.392  0.4141 -0.0363 -0.1690
 1112TIP3    H124827   1.676   2.697   1.451 -0.4957  0.1311 -0.4423
 1112TIP3    H224828   1.606   2.568   1.416  0.3155 -0.2090 -0.8354
 1113TIP3   OH224829   5.499   2.337  11.336 -0.0560 -0.3804  0.7464
 1113TIP3    H124830   5.544   2.381  11.264 -1.5232  1.4684  0.8925
 1113TIP3    H224831   5.420   2.300  11.297  1.4813 -3.7583  0.4534
 1114TIP3   OH224832   0.227   0.014  16.935 -0.2439  0.1618 -0.8673
 1114TIP3    H124833   0.259  -0.054  16.876  1.0877  0.5142 -0.5864
 1114TIP3    H224834   0.273   0.093  16.908  0.3934  0.3386  0.6037
 1115TIP3   OH224835   5.973   4.881   2.570  0.1027  0.3425  0.4035
 1115TIP3    H124836   5.884   4.884   2.535 -0.1635  1.8619  1.1775
 1115TIP3    H224837   6.028   4.907   2.496 -0.1764  0.4873  0.2454
 1116TIP3   OH224838   2.589   1.759   2.077 -0.8184 -0.2026  0.0056
 1116TIP3    H124839   2.608   1.673   2.115  1.5946  0.3782  0.2610
 1116TIP3    H224840   2.570   1.815   2.153  2.2396  0.5279  0.3624
 1117TIP3   OH224841   0.596   4.757   3.286  0.1571 -0.0435  0.6953
 1117TIP3    H124842   0.618   4.849   3.299 -1.9990  0.8503 -1.2562
 1117TIP3    H224843   0.599   4.744   3.191 -2.0890 -1.2387  0.7224
 1118TIP3   OH224844   2.843   3.294  15.777  0.2975  0.1257  0.1170
 1118TIP3    H124845   2.850   3.229  15.707 -0.5868  0.0199  0.1219
 1118TIP3    H224846   2.749   3.303  15.793  0.4760  0.2040  1.2354
 1119TIP3   OH224847   1.076   4.419  14.230  0.4900 -0.0638  0.6047
 1119TIP3    H124848   1.066   4.502  14.183  0.6341  0.6931  1.8470
 1119TIP3    H224849   1.014   4.360  14.189  1.1466  0.3153 -1.0246
 1120TIP3   OH224850   0.458   5.116  15.792 -0.2129 -0.1659  0.3464
 1120TIP3    H124851   0.388   5.054  15.813  0.7586 -2.2792 -2.1185
 1120TIP3    H224852   0.449   5.131  15.697  2.2859 -0.0471  0.0590
 1121TIP3   OH224853   0.453   1.907   3.095  1.0646 -0.2868  0.6140
 1121TIP3    H124854   0.375   1.870   3.136 -0.3328  0.5243 -1.1848
 1121TIP3    H224855   0.500   1.831   3.059 -0.2274 -0.6188 -0.4571
 1122TIP3   OH224856   5.380   2.725   3.246 -0.1622  0.1623  0.1001
 1122TIP3    H124857   5.297   2.690   3.215  0.1237  1.1811 -1.9663
 1122TIP3    H224858   5.441   2.710   3.174  0.5829  2.6017  0.1362
 1123TIP3   OH224859   6.478   1.339  16.155  0.6693  0.1090  0.3023
 1123TIP3    H124860   6.484   1.432  16.133 -1.0199  0.0694 -0.5324
 1123TIP3    H224861   6.547   1.297  16.103  0.2184  0.6886 -0.7954
 1124TIP3   OH224862   4.118   6.691  13.656  0.4457 -0.3327  0.4661
 1124TIP3    H124863   4.189   6.669  13.596 -0.2696  3.9606 -2.4277
 1124TIP3    H224864   4.162   6.726  13.733  1.4420 -1.2847  0.3523
 1125TIP3   OH224865   6.188   1.842   1.884  0.4895 -0.6377  0.5032
 1125TIP3    H124866   6.271   1.806   1.917  2.4898  1.2025 -2.1762
 1125TIP3    H224867   6.139   1.765   1.855  1.4295 -1.7327  1.6755
 1126TIP3   OH224868   4.834   5.538  10.826  0.0239  0.6646  0.1209
 1126TIP3    H124869   4.868   5.536  10.737  0.5933 -0.6810  0.3530
 1126TIP3    H224870   4.879   5.467  10.871  0.7754  2.1787  1.8817
 1127TIP3   OH224871   3.183   1.588  12.330 -0.0743 -0.2092 -0.0519
 1127TIP3    H124872   3.158   1.674  12.298 -1.9984 -1.3921 -2.0517
 1127TIP3    H224873   3.279   1.588  12.330 -0.0493  1.8003 -0.2963
 1128TIP3   OH224874   5.313   5.279  14.731  0.9576 -0.0865  0.3741
 1128TIP3    H124875   5.373   5.247  14.799  0.8922  1.6721  1.3074
 1128TIP3    H224876   5.236   5.307  14.779  0.3933  0.0140 -0.5775
 1129TIP3   OH224877   4.503   0.023  16.718  0.2643  0.3563  0.2405
 1129TIP3    H124878   4.563  -0.036  16.764  0.3258 -0.2963 -0.6545
 1129TIP3    H224879   4.430  -0.033  16.692  0.2783  0.6846 -0.5399
 1130TIP3   OH224880   2.585   2.807  10.846  0.5943 -0.5400 -0.6897
 1130TIP3    H124881   2.564   2.715  10.830 -0.9452 -0.7029  1.6688
 1130TIP3    H224882   2.511   2.856  10.809  0.0304 -0.4954  0.4483
 1131TIP3   OH224883   5.947   6.445   3.971 -0.2973 -0.4677 -0.0407
 1131TIP3    H124884   5.911   6.484   4.050  0.0030  1.0076 -0.5958
 1131TIP3    H224885   5.991   6.517   3.927 -0.5052 -1.2525 -1.5886
 1132TIP3   OH224886   6.404   0.742   6.468 -0.2486  0.5056  0.6017
 1132TIP3    H124887   6.460   0.673   6.431 -0.4837 -0.0542  1.2685
 1132TIP3    H224888   6.329   0.694   6.503  0.0923  0.9901  2.0438
 1133TIP3   OH224889   4.481   3.862  11.402  0.4685  0.1796 -0.1648
 1133TIP3    H124890   4.497   3.928  11.469 -2.1986  1.0268 -0.2510
 1133TIP3    H224891   4.418   3.802  11.442  0.7526 -0.7443 -1.0612
 1134TIP3   OH224892   4.190   1.829  11.813  0.7292 -0.8366 -0.1048
 1134TIP3    H124893   4.192   1.917  11.776  0.0119 -0.0496  1.5944
 1134TIP3    H224894   4.263   1.827  11.874  0.1996 -1.0698  0.5389
 1135TIP3   OH224895   2.953   5.008  15.384 -0.2774  0.5556 -0.3810
 1135TIP3    H124896   3.028   4.999  15.442  1.2149  0.4925 -2.2044
 1135TIP3    H224897   2.927   5.100  15.393  0.9394  0.9579 -0.7432
 1136TIP3   OH224898   2.484   0.935  11.553  0.1623 -0.1905 -0.0704
 1136TIP3    H124899   2.548   0.999  11.586 -1.4939  1.0010  1.0065
 1136TIP3    H224900   2.435   0.909  11.631 -1.4136 -0.1906 -1.0344
 1137TIP3   OH224901   4.202   1.988  14.573  0.2516  0.0351  0.9327
 1137TIP3    H124902   4.260   1.920  14.538 -0.0507 -1.0817  2.4597
 1137TIP3    H224903   4.134   1.939  14.619 -0.5417  1.3753  1.2273
 1138TIP3   OH224904   1.398   0.850   4.956  0.1842  0.8428  0.1833
 1138TIP3    H124905   1.401   0.784   5.025  0.5384  1.2093  0.5246
 1138TIP3    H224906   1.484   0.845   4.913 -0.6004 -0.5439 -1.3548
 1139TIP3   OH224907   0.821   5.642   5.249  0.0728  0.1255  0.2664
 1139TIP3    H124908   0.738   5.599   5.273  0.5827 -0.1457  1.6336
 1139TIP3    H224909   0.806   5.735   5.268 -0.3579  0.2818 -0.7815
 1140TIP3   OH224910   3.895   1.160  11.058  0.2246  0.4862 -0.9936
 1140TIP3    H124911   3.949   1.237  11.043 -1.1157  2.1844  1.9980
 1140TIP3    H224912   3.806   1.194  11.067 -0.5709 -1.5368 -0.5503
 1141TIP3   OH224913   5.965   0.041   0.668  1.0687  0.0977  0.1490
 1141TIP3    H124914   5.997   0.094   0.596  0.5177 -0.0559 -0.2134
 1141TIP3    H224915   5.959   0.101   0.742 -2.5173  1.4177 -0.9863
 1142TIP3   OH224916   2.472   2.156  16.223 -0.5135  0.0583 -0.5009
 1142TIP3    H124917   2.545   2.126  16.168 -0.5297 -0.4235 -0.2640
 1142TIP3    H224918   2.438   2.233  16.178  0.3527  0.4921 -0.4520
 1143TIP3   OH224919   3.680   0.561   3.075  0.7898  0.1047 -0.0523
 1143TIP3    H124920   3.586   0.547   3.060  0.8976 -1.3426  0.4914
 1143TIP3    H224921   3.701   0.509   3.152  1.7234  1.7452  0.8678
 1144TIP3   OH224922   5.931   5.342  13.015 -0.2427  0.0803 -0.3109
 1144TIP3    H124923   5.952   5.341  13.108  2.3869 -1.4076 -0.8301
 1144TIP3    H224924   5.836   5.354  13.012 -0.1702  2.3101  2.4558
 1145TIP3   OH224925   6.603   5.282  16.490 -0.0926  0.5864  0.3884
 1145TIP3    H124926   6.579   5.328  16.410 -1.7822  2.4836  1.8854
 1145TIP3    H224927   6.654   5.345  16.540  1.3076 -0.7166  0.7012
 1146TIP3   OH224928   6.784   6.571   0.481 -0.6585  0.5159  0.1370
 1146TIP3    H124929   6.736   6.489   0.469  1.4829 -0.5927 -1.3839
 1146TIP3    H224930   6.786   6.584   0.576 -2.3939 -0.2849  0.3242
 1147TIP3   OH224931   4.244   2.075  10.540 -0.5304  0.7732 -0.0943
 1147TIP3    H124932   4.250   1.988  10.579 -1.7834  1.0064  0.6425
 1147TIP3    H224933   4.160   2.110  10.570 -0.4269  1.9129 -1.0529
 1148TIP3   OH224934   4.916   4.636   4.377 -0.3311  0.0533 -0.5952
 1148TIP3    H124935   4.940   4.723   4.407  0.1141 -0.4812  0.6657
 1148TIP3    H224936   4.893   4.647   4.285  1.9742  1.0974 -1.1093
 1149TIP3   OH224937   0.806   2.584  14.672  0.1588 -0.2289  0.4067
 1149TIP3    H124938   0.768   2.669  14.650 -1.3430  0.0631  3.5448
 1149TIP3    H224939   0.734   2.522  14.662  0.5499 -0.7204  0.5754
 1150TIP3   OH224940   5.490   0.534  12.086  0.0999  0.0325  0.2890
 1150TIP3    H124941   5.482   0.627  12.108 -1.7716 -0.5130  2.3549
 1150TIP3    H224942   5.563   0.503  12.140  0.8621  0.3113 -0.5584
 1151TIP3   OH224943   1.828   6.527  15.823  0.2283 -0.8168 -0.1368
 1151TIP3    H124944   1.885   6.514  15.746 -0.4666 -2.0304 -0.4728
 1151TIP3    H224945   1.776   6.605  15.801  0.8821 -0.4336 -0.3622
 1152TIP3   OH224946   6.667   3.979   0.241 -0.1388  0.3071 -0.0365
 1152TIP3    H124947   6.650   4.031   0.319  2.0190  0.0180  0.6819
 1152TIP3    H224948   6.657   3.888   0.270  1.9187  0.1420  0.3019
 1153TIP3   OH224949   3.714   1.357   3.326 -0.4011  0.5842 -0.2590
 1153TIP3    H124950   3.699   1.417   3.399 -0.9851  0.3011 -0.1418
 1153TIP3    H224951   3.753   1.279   3.366  0.6762  0.9969 -0.4546
 1154TIP3   OH224952   4.815   3.975  14.040  1.3128 -0.3276 -0.6231
 1154TIP3    H124953   4.851   3.890  14.067  0.4083 -1.0560 -1.6327
 1154TIP3    H224954   4.854   4.037  14.101 -1.2616 -1.9516  3.0265
 1155TIP3   OH224955   6.698   6.523   3.951 -0.5852 -0.5554  0.3215
 1155TIP3    H124956   6.620   6.577   3.946  1.0771  2.1612  1.2975
 1155TIP3    H224957   6.771   6.584   3.941  1.4684 -2.9855 -1.0158
 1156TIP3   OH224958   6.190   3.846   5.292 -0.3313 -0.5007  0.1495
 1156TIP3    H124959   6.097   3.861   5.311  0.6963  3.1659  3.5198
 1156TIP3    H224960   6.207   3.894   5.211 -0.9025  1.0532  0.9250
 1157TIP3   OH224961   2.393   0.886   3.278  0.0058  0.1348 -0.5101
 1157TIP3    H124962   2.403   0.791   3.275 -2.7504 -0.2305 -3.6852
 1157TIP3    H224963   2.302   0.900   3.303  0.3790  1.9653 -0.0640
 1158TIP3   OH224964   1.274   4.662  12.009  0.0389 -0.8597 -0.1564
 1158TIP3    H124965   1.298   4.753  11.987 -1.9843 -0.2855 -0.2163
 1158TIP3    H224966   1.307   4.611  11.935 -0.6377  0.1290 -1.1761
 1159TIP3   OH224967   6.305   5.191   5.820  0.1360  0.5992  0.0467
 1159TIP3    H124968   6.383   5.166   5.869  2.2967  2.1791 -2.3435
 1159TIP3    H224969   6.283   5.113   5.768  0.3075  0.2330  0.5183
 1160TIP3   OH224970   5.675   4.120  11.627 -0.6422 -0.2433  0.7855
 1160TIP3    H124971   5.700   4.123  11.535 -2.3831 -1.3335  0.2304
 1160TIP3    H224972   5.619   4.197  11.640  0.7193  0.7035  1.3434
 1161TIP3   OH224973   1.212   1.089  14.015 -0.3696  0.1543  0.6146
 1161TIP3    H124974   1.124   1.112  13.984 -0.7759 -0.0134  1.6089
 1161TIP3    H224975   1.246   1.029  13.948 -0.7746  0.6857 -0.0793
 1162TIP3   OH224976   5.929   1.022  11.429  0.2897 -0.0799  0.0788
 1162TIP3    H124977   5.906   1.105  11.387 -0.0451 -0.2660 -0.1070
 1162TIP3    H224978   5.946   1.046  11.520  1.8467  0.4660 -0.3167
 1163TIP3   OH224979   6.266   0.823  15.328 -0.7471 -0.8035  0.4034
 1163TIP3    H124980   6.223   0.760  15.270 -0.6897 -0.1436 -0.3665
 1163TIP3    H224981   6.334   0.771  15.372  1.2110 -0.7419 -2.3143
 1164TIP3   OH224982   5.192   5.003  10.986 -0.1807  0.1249  0.5571
 1164TIP3    H124983   5.217   5.090  11.016 -1.1658  0.3092  0.8536
 1164TIP3    H224984   5.190   5.010  10.891  0.7619  0.1324  0.5252
 1165TIP3   OH224985   3.866   5.588  11.855  0.0009  0.4492  0.1011
 1165TIP3    H124986   3.826   5.670  11.828 -1.5612 -0.5004 -0.6011
 1165TIP3    H224987   3.925   5.565  11.783 -2.2089 -0.7661 -1.4464
 1166TIP3   OH224988   0.756   0.550  13.346 -0.4429 -0.2918  0.0680
 1166TIP3    H124989   0.674   0.517  13.309  0.1511  0.3499 -1.8966
 1166TIP3    H224990   0.820   0.480  13.329 -0.2996 -0.2838  0.5391
 1167TIP3   OH224991   5.963   4.278  12.267 -0.0001 -0.1078 -0.3267
 1167TIP3    H124992   6.050   4.280  12.225  1.2731 -1.1132  2.0557
 1167TIP3    H224993   5.913   4.345  12.221  2.1406  0.7487 -1.5839
 1168TIP3   OH224994   1.734   6.127   5.139 -0.3303  0.2199  0.4888
 1168TIP3    H124995   1.667   6.105   5.075  2.0462 -1.6968 -1.5339
 1168TIP3    H224996   1.690   6.119   5.224 -2.8041 -0.2330 -0.7553
 1169TIP3   OH224997   3.459   2.528   0.765 -0.3095  0.0705 -0.0837
 1169TIP3    H124998   3.456   2.510   0.671 -0.9469 -0.3529  0.0074
 1169TIP3    H224999   3.457   2.624   0.771  0.4994  0.1197 -0.5155
 1170TIP3   OH225000   3.418   2.773   1.140 -0.0607 -0.0726  0.6449
 1170TIP3    H125001   3.357   2.706   1.109  0.9603 -0.8189  0.2267
 1170TIP3    H225002   3.504   2.742   1.113  0.4863  1.1251  0.9583
 1171TIP3   OH225003   2.698   3.420   2.975  0.2911  0.5647 -0.0300
 1171TIP3    H125004   2.787   3.426   3.009  0.6129 -1.4460 -0.4431
 1171TIP3    H225005   2.651   3.369   3.041 -0.4375  1.1220 -0.1033
 1172TIP3   OH225006   2.089   6.074  14.863  0.0314  0.3279  0.1220
 1172TIP3    H125007   2.109   6.129  14.787 -1.7055  0.5028 -0.2594
 1172TIP3    H225008   1.997   6.051  14.852  0.1774 -0.9944  1.3491
 1173TIP3   OH225009   4.046   2.352  13.445  0.0651  0.2624 -0.2715
 1173TIP3    H125010   4.061   2.269  13.399  0.3392 -1.0880  2.0923
 1173TIP3    H225011   4.098   2.416  13.397  1.0094 -1.2176 -1.3136
 1174TIP3   OH225012   0.830   3.564  14.868  0.1997 -0.0068 -0.0596
 1174TIP3    H125013   0.808   3.634  14.928 -0.8481 -0.5720  0.2440
 1174TIP3    H225014   0.775   3.579  14.791 -1.1454 -1.2723  0.5904
 1175TIP3   OH225015   4.440   4.654  10.813 -0.3810  0.3867 -0.4053
 1175TIP3    H125016   4.472   4.742  10.791 -0.4541  0.3118 -0.8219
 1175TIP3    H225017   4.345   4.665  10.820 -0.2249  0.8121  1.7574
 1176TIP3   OH225018   1.493   1.267   5.503  0.1539 -0.1233 -0.1623
 1176TIP3    H125019   1.509   1.276   5.597 -0.2124  0.8871 -0.1818
 1176TIP3    H225020   1.466   1.355   5.475  1.0791 -0.2067 -1.3822
 1177TIP3   OH225021   0.432   5.393  10.443  0.1048 -0.3872 -0.7975
 1177TIP3    H125022   0.353   5.392  10.389 -0.4812  1.7429 -0.0774
 1177TIP3    H225023   0.401   5.414  10.531  1.2265 -2.0680  0.0492
 1178TIP3   OH225024   3.645   2.760  17.179 -0.0920  0.6926 -0.2472
 1178TIP3    H125025   3.569   2.812  17.203  0.4529  1.9676 -1.1723
 1178TIP3    H225026   3.678   2.726  17.262 -0.8032  1.3361  0.3118
 1179TIP3   OH225027   5.424   6.431  16.627  0.4947 -0.0375 -0.0639
 1179TIP3    H125028   5.491   6.403  16.564  0.1137 -2.5051  0.5474
 1179TIP3    H225029   5.470   6.495  16.682  1.3775  0.7437 -1.6070
 1180TIP3   OH225030   3.528   0.336  14.317  0.2720 -0.0709 -0.6011
 1180TIP3    H125031   3.622   0.337  14.299  0.9989  0.7914  2.5915
 1180TIP3    H225032   3.515   0.258  14.370 -0.1281  1.3543  1.5502
 1181TIP3   OH225033   3.472   3.348   2.216  0.5923 -0.2039  0.1001
 1181TIP3    H125034   3.454   3.256   2.238  1.7450 -1.1357 -2.4346
 1181TIP3    H225035   3.409   3.368   2.147  1.3191  0.4115 -0.3984
 1182TIP3   OH225036   3.264   3.428   2.067 -0.0170  0.2938  0.6874
 1182TIP3    H125037   3.205   3.440   1.992  0.0585  1.9285  0.8431
 1182TIP3    H225038   3.224   3.358   2.118  0.3939 -1.4788 -1.2924
 1183TIP3   OH225039   3.882   6.497  14.267 -0.2406 -1.0810  0.3890
 1183TIP3    H125040   3.857   6.480  14.177  1.2381  0.9771 -0.4855
 1183TIP3    H225041   3.969   6.535  14.261 -0.9936  1.2277  2.4748
 1184TIP3   OH225042   3.742   2.936  15.047 -0.3084  0.3925  0.0302
 1184TIP3    H125043   3.805   3.000  15.013  0.1859  0.0610  0.3068
 1184TIP3    H225044   3.661   2.955  15.001 -0.3411  1.6243  0.5444
 1185TIP3   OH225045   2.790   6.353  15.039 -0.1040 -0.0064  0.1808
 1185TIP3    H125046   2.852   6.327  14.971  0.2616 -1.6583  1.0839
 1185TIP3    H225047   2.754   6.270  15.071 -0.9503  0.7907  1.3553
 1186TIP3   OH225048   2.229   4.555  15.074  0.5661  0.3028  0.8574
 1186TIP3    H125049   2.303   4.607  15.044  0.0236  0.8259  0.4042
 1186TIP3    H225050   2.227   4.481  15.014 -1.4074  2.0781 -1.4730
 1187TIP3   OH225051   4.909   3.961  12.451  0.0939 -0.0653 -0.2117
 1187TIP3    H125052   4.935   3.952  12.359 -0.4802  0.7315 -0.4660
 1187TIP3    H225053   4.849   4.035  12.451  0.4366  0.2223  0.8869
 1188TIP3   OH225054   4.213   4.183   0.746 -0.0558 -0.2626  0.0415
 1188TIP3    H125055   4.236   4.153   0.834 -0.2037  0.3315  0.2820
 1188TIP3    H225056   4.130   4.140   0.727 -1.2353  1.4095  1.1343
 1189TIP3   OH225057   1.683   0.916   0.692 -0.4770 -0.0411 -0.4535
 1189TIP3    H125058   1.610   0.971   0.665 -0.5325 -0.3050 -0.8446
 1189TIP3    H225059   1.751   0.978   0.719  0.7004  0.3809 -3.9786
 1190TIP3   OH225060   0.832   3.221   2.643 -0.2231 -0.3144  0.2644
 1190TIP3    H125061   0.914   3.263   2.668  0.9581 -1.4128 -1.4637
 1190TIP3    H225062   0.770   3.246   2.710  0.9724  2.3014  0.5065
 1191TIP3   OH225063   6.634   1.768   4.325 -0.2188  0.1820  0.2086
 1191TIP3    H125064   6.628   1.786   4.419  0.6125  0.1486  0.2807
 1191TIP3    H225065   6.654   1.674   4.320  1.2749  0.4837  0.0741
 1192TIP3   OH225066   1.833   2.581  11.806  0.2331  0.7981 -0.3034
 1192TIP3    H125067   1.806   2.517  11.739 -1.1312 -0.1639  1.0911
 1192TIP3    H225068   1.756   2.590  11.862  2.1115 -0.5548  2.7518
 1193TIP3   OH225069   1.335   2.900  16.456  0.2270 -0.3109 -0.5421
 1193TIP3    H125070   1.361   2.879  16.366  0.2744  1.4336 -0.9754
 1193TIP3    H225071   1.413   2.941  16.494 -0.3754  0.7058 -0.3513
 1194TIP3   OH225072   0.486   1.648   0.079 -0.4902 -0.0373  0.2000
 1194TIP3    H125073   0.433   1.727   0.070 -0.8019  0.0400  2.2710
 1194TIP3    H225074   0.438   1.582   0.029 -0.9080  0.7667 -0.4877
 1195TIP3   OH225075   6.152   3.251   3.422  0.1723  0.1441  0.3339
 1195TIP3    H125076   6.143   3.157   3.435 -0.2674  0.2072  0.5234
 1195TIP3    H225077   6.216   3.278   3.488  1.1551 -0.1871 -0.4599
 1196TIP3   OH225078   6.236   0.109  14.621  0.3568  0.0130 -0.4539
 1196TIP3    H125079   6.165   0.055  14.587  1.0405 -1.4215  0.3100
 1196TIP3    H225080   6.191   0.178  14.671 -0.5327  0.2557 -1.5350
 1197TIP3   OH225081   5.845   2.331   3.326 -1.2165  0.8764 -0.2033
 1197TIP3    H125082   5.785   2.287   3.265 -0.8839 -1.8813  1.2740
 1197TIP3    H225083   5.795   2.336   3.408  0.4022 -1.4826  1.0661
 1198TIP3   OH225084   0.881   5.258   3.703  0.3078  0.2887 -0.0707
 1198TIP3    H125085   0.918   5.296   3.622 -0.1894  0.4102 -0.2434
 1198TIP3    H225086   0.908   5.319   3.772  1.8289 -0.4750  0.0681
 1199TIP3   OH225087   5.114   0.544  14.417  0.4337 -0.0000 -0.1776
 1199TIP3    H125088   5.210   0.554  14.418  0.3392  1.0345 -0.7188
 1199TIP3    H225089   5.082   0.608  14.480  0.0634  0.0437 -0.4064
 1200TIP3   OH225090   4.743   0.004   0.638  0.4957  0.4197  0.1167
 1200TIP3    H125091   4.677   0.027   0.704 -0.3018  0.7407 -0.7696
 1200TIP3    H225092   4.821   0.053   0.664  0.1084  0.7600  0.6665
 1201TIP3   OH225093   1.831   6.174   4.747  0.6549  0.6178  1.2618
 1201TIP3    H125094   1.759   6.236   4.733  1.0588  1.1591  1.5176
 1201TIP3    H225095   1.819   6.142   4.836 -0.5258 -0.9880  0.5855
 1202TIP3   OH225096   5.568   2.042   0.246  0.6816  0.2116  0.3364
 1202TIP3    H125097   5.486   2.053   0.197 -0.1239 -2.4556  0.9045
 1202TIP3    H225098   5.552   2.087   0.329  0.7123  1.6936 -0.4281
 1203TIP3   OH225099   5.600   5.921  14.712 -0.4136 -0.5584 -0.3587
 1203TIP3    H125100   5.609   6.015  14.695  0.4661 -1.0091 -2.7454
 1203TIP3    H225101   5.552   5.917  14.795  0.0317  1.9814  0.1303
 1204TIP3   OH225102   3.448   1.503  12.689  0.0066  0.4248  0.3857
 1204TIP3    H125103   3.521   1.533  12.635  0.9944  0.7733  1.8529
 1204TIP3    H225104   3.401   1.582  12.713  0.2784  0.4105  0.9936
 1205TIP3   OH225105   1.929   5.193  11.094  0.8345 -0.2225 -0.1552
 1205TIP3    H125106   2.001   5.224  11.039  1.3805 -0.5687  0.3522
 1205TIP3    H225107   1.950   5.227  11.181  0.5299 -0.5619  0.0524
 1206TIP3   OH225108   0.838   1.030  13.582  0.1969 -0.2467  0.2646
 1206TIP3    H125109   0.887   1.112  13.573  1.0581 -0.7038  0.6078
 1206TIP3    H225110   0.891   0.977  13.642 -0.9844 -0.5790  1.0464
 1207TIP3   OH225111   0.470   1.248  16.538 -0.0225 -0.1143  0.1254
 1207TIP3    H125112   0.552   1.202  16.518  0.4404  0.7474  0.0168
 1207TIP3    H225113   0.411   1.178  16.567  0.8528 -0.7099  0.5512
 1208TIP3   OH225114   0.112   2.925   4.516  0.5928  0.3586  0.3628
 1208TIP3    H125115   0.148   2.949   4.601  0.8870  2.0252 -0.1925
 1208TIP3    H225116   0.172   2.858   4.483  0.4537 -0.3363  1.4639
 1209TIP3   OH225117   3.087   2.371  11.274 -0.2225 -0.1207 -0.4394
 1209TIP3    H125118   3.131   2.308  11.332 -0.9750 -0.4853 -0.2472
 1209TIP3    H225119   3.157   2.404  11.217  0.5600  0.3396  0.7475
 1210TIP3   OH225120   3.575   3.942  11.786  0.0486 -0.0425  0.0391
 1210TIP3    H125121   3.606   4.022  11.744  1.6187 -0.2262  0.7487
 1210TIP3    H225122   3.480   3.949  11.785  0.0983  0.8320 -1.8055
 1211TIP3   OH225123   0.362   2.789   2.031 -0.9182  0.8520  0.0594
 1211TIP3    H125124   0.336   2.868   2.078 -0.6003 -0.3679  2.4291
 1211TIP3    H225125   0.281   2.740   2.020 -0.6202 -0.2123  2.1038
 1212TIP3   OH225126   0.826   2.154   3.173  0.1701  0.2570 -0.1918
 1212TIP3    H125127   0.801   2.227   3.230  2.8128  0.7298  0.4914
 1212TIP3    H225128   0.797   2.180   3.086  0.7452  2.0006  0.0978
 1213TIP3   OH225129   6.590   1.906   2.891  0.4449 -0.6407 -0.2571
 1213TIP3    H125130   6.679   1.907   2.927 -0.1002 -0.6174  1.1323
 1213TIP3    H225131   6.536   1.868   2.960 -1.1158  2.0156  0.1280
 1214TIP3   OH225132   1.334   4.537  11.298  0.2623 -0.1784  0.1642
 1214TIP3    H125133   1.397   4.479  11.256  0.1901 -0.6205  0.6508
 1214TIP3    H225134   1.377   4.565  11.379  0.1930  0.2455  0.0590
 1215TIP3   OH225135   0.685   3.827  12.678  0.0783  0.1079  0.0118
 1215TIP3    H125136   0.705   3.883  12.603  2.1113 -1.0720 -0.4290
 1215TIP3    H225137   0.757   3.843  12.740 -0.5056 -0.3734  0.8408
 1216TIP3   OH225138   4.674   4.184   4.432  0.0701  0.2669  0.8147
 1216TIP3    H125139   4.704   4.145   4.350  0.9680 -0.5965  1.5458
 1216TIP3    H225140   4.585   4.215   4.412 -0.7204 -2.1761  0.2093
 1217TIP3   OH225141   5.280   4.366   6.113 -0.4202  0.2465  0.0044
 1217TIP3    H125142   5.224   4.386   6.188  1.1634  0.6145  1.1357
 1217TIP3    H225143   5.327   4.286   6.139  1.8250  1.6086  0.4492
 1218TIP3   OH225144   1.875   6.784   4.106 -0.5493  0.2893  0.3781
 1218TIP3    H125145   1.800   6.754   4.157 -0.5993  0.5737  0.4748
 1218TIP3    H225146   1.919   6.704   4.077 -1.2060  0.1193 -0.1531
 1219TIP3   OH225147   0.607   5.783  13.040 -0.1133  0.1221 -0.2771
 1219TIP3    H125148   0.583   5.720  13.108 -0.2840  0.8090  0.3203
 1219TIP3    H225149   0.594   5.736  12.958  0.7554 -0.9550  0.1758
 1220TIP3   OH225150   2.431   0.542   3.075  0.0936 -0.2571  0.1862
 1220TIP3    H125151   2.444   0.475   3.007  1.2400 -0.1671  0.3030
 1220TIP3    H225152   2.341   0.571   3.062 -0.1607 -1.2395 -0.3966
 1221TIP3   OH225153   0.737   3.759  14.516  0.2463 -0.0514 -0.2516
 1221TIP3    H125154   0.659   3.706  14.501 -0.0278  0.1994  0.2727
 1221TIP3    H225155   0.715   3.845  14.481 -0.8694  0.9110  2.5867
 1222TIP3   OH225156   3.943   1.980  13.914 -0.1843 -0.1154 -0.1605
 1222TIP3    H125157   3.866   2.021  13.875  0.4841 -0.6860 -2.2373
 1222TIP3    H225158   4.013   1.995  13.851  1.2277 -0.3426  1.2771
 1223TIP3   OH225159   6.118   4.147   1.865 -0.2594  0.3569  0.5824
 1223TIP3    H125160   6.091   4.076   1.923  0.7490 -0.2284  0.3629
 1223TIP3    H225161   6.041   4.167   1.813 -0.1415 -1.6911 -0.4741
 1224TIP3   OH225162   0.222   3.066  15.537  0.2094 -0.0227 -0.2505
 1224TIP3    H125163   0.278   3.048  15.613  0.6701 -0.6629 -0.7356
 1224TIP3    H225164   0.268   3.136  15.490  0.0279  0.2298 -0.0578
 1225TIP3   OH225165   3.532   2.781  11.925  0.5350  0.0910 -0.4955
 1225TIP3    H125166   3.627   2.766  11.923  0.4825 -0.3503  0.1721
 1225TIP3    H225167   3.498   2.725  11.855  0.7360  0.0304 -0.5475
 1226TIP3   OH225168   5.476   6.071   0.528 -0.1573 -0.1753  0.1572
 1226TIP3    H125169   5.405   6.096   0.470 -0.1483 -0.6365 -0.0575
 1226TIP3    H225170   5.545   6.135   0.510  0.3628 -1.0940 -1.3388
 1227TIP3   OH225171   0.726   1.331   0.200  0.1611 -0.5177  0.0735
 1227TIP3    H125172   0.680   1.403   0.245  0.9784  0.2562 -0.2933
 1227TIP3    H225173   0.768   1.373   0.125  1.2040 -1.2637  0.2254
 1228TIP3   OH225174   2.157   3.566  11.781 -0.0340 -0.2370 -0.1643
 1228TIP3    H125175   2.067   3.558  11.813 -0.3811  1.8859 -0.4230
 1228TIP3    H225176   2.212   3.541  11.855 -0.8340  2.5199  1.5400
 1229TIP3   OH225177   2.040   4.510   2.362 -0.0027 -0.3962  0.2155
 1229TIP3    H125178   2.055   4.426   2.318  0.7505 -1.2803  2.0512
 1229TIP3    H225179   1.944   4.515   2.371 -0.0636 -1.0203  0.0138
 1230TIP3   OH225180   1.937   0.431   5.705  0.2349 -0.0183 -0.5850
 1230TIP3    H125181   1.868   0.384   5.658 -0.8346 -1.3770  2.1659
 1230TIP3    H225182   1.898   0.514   5.729  0.5961  0.4390 -1.5025
 1231TIP3   OH225183   2.416   6.736   4.278  0.3046 -0.7466 -0.0756
 1231TIP3    H125184   2.392   6.706   4.191  1.1667  0.6323 -0.8246
 1231TIP3    H225185   2.340   6.716   4.332 -0.5713 -0.8801 -1.3241
 1232TIP3   OH225186   1.479   0.430  11.111 -0.0293 -0.1165  0.0399
 1232TIP3    H125187   1.492   0.482  11.032 -1.1545  1.3758  0.7771
 1232TIP3    H225188   1.492   0.492  11.183  1.1170 -1.4634  1.0720
 1233TIP3   OH225189   2.420   4.845  12.175 -0.1374  0.4308  0.4438
 1233TIP3    H125190   2.431   4.885  12.261  1.3469 -3.2555  2.1705
 1233TIP3    H225191   2.458   4.909  12.114  0.5677  2.3239  2.7372
 1234TIP3   OH225192   1.429   0.570   3.202 -0.2650  0.2942  0.6068
 1234TIP3    H125193   1.473   0.622   3.269 -0.2278  1.0527  0.0007
 1234TIP3    H225194   1.457   0.480   3.219  1.7042  0.7632  0.1104
 1235TIP3   OH225195   6.691   0.110   6.106  0.8409  0.2345 -0.2222
 1235TIP3    H125196   6.732   0.031   6.139 -0.1802  0.0915  0.7717
 1235TIP3    H225197   6.653   0.152   6.183  0.5952  1.2290 -0.8591
 1236TIP3   OH225198   2.328   0.336  17.061 -0.2022  0.8010  0.1485
 1236TIP3    H125199   2.367   0.253  17.035  0.6691  0.5425  2.1313
 1236TIP3    H225200   2.387   0.403  17.026 -0.6405  0.6124 -1.0154
 1237TIP3   OH225201   1.594   1.429   4.692 -0.6028  0.1486  0.0680
 1237TIP3    H125202   1.510   1.461   4.660  0.5211  3.0250 -0.3837
 1237TIP3    H225203   1.657   1.456   4.625  0.7637 -1.4044  0.6580
 1238TIP3   OH225204   3.723   5.737  16.069 -0.2989 -0.2906 -0.4884
 1238TIP3    H125205   3.666   5.797  16.020 -2.0767 -1.1216  0.4595
 1238TIP3    H225206   3.716   5.654  16.021  4.1273  0.6143 -3.3226
 1239TIP3   OH225207   1.923   5.456  14.306  0.3042  0.0683  0.2155
 1239TIP3    H125208   1.887   5.367  14.302 -1.3235  0.5790  2.0737
 1239TIP3    H225209   2.013   5.444  14.336 -0.4924 -0.8816  2.4026
 1240TIP3   OH225210   4.359   3.812   4.125  0.1067 -0.0205 -0.4704
 1240TIP3    H125211   4.407   3.883   4.166  1.4382 -0.7162 -0.7585
 1240TIP3    H225212   4.401   3.732   4.158 -0.0955 -0.6291 -1.6073
 1241TIP3   OH225213   3.949   0.066  10.769  0.8058 -0.1641 -0.2677
 1241TIP3    H125214   4.018   0.061  10.703 -0.2013  2.7142 -1.6808
 1241TIP3    H225215   3.901  -0.017  10.760  2.4960 -1.1135 -1.0034
 1242TIP3   OH225216   5.992   3.974   4.402 -0.1223 -0.0793  0.2628
 1242TIP3    H125217   6.047   4.052   4.397 -0.4536  0.2997  1.9472
 1242TIP3    H225218   6.051   3.902   4.380  0.2469  0.5901 -1.0727
 1243TIP3   OH225219   3.682   0.769  11.986 -0.3393  0.2389  0.0130
 1243TIP3    H125220   3.648   0.697  11.932 -1.6555  1.1209 -0.3872
 1243TIP3    H225221   3.685   0.732  12.075  2.3495 -1.3986 -0.6558
 1244TIP3   OH225222   0.966   2.957   4.408 -0.3519  0.3135  0.0830
 1244TIP3    H125223   1.054   2.920   4.409 -0.6872 -0.5375 -0.7152
 1244TIP3    H225224   0.971   3.032   4.468  0.6141 -0.3769  0.8941
 1245TIP3   OH225225   5.266   1.510   1.948 -0.6794  0.1834 -0.3445
 1245TIP3    H125226   5.275   1.457   1.869 -0.2353 -1.3522  0.7100
 1245TIP3    H225227   5.234   1.450   2.015  3.3939  0.1839  1.9257
 1246TIP3   OH225228   4.405   5.117   0.912 -0.2979 -0.5685 -0.3896
 1246TIP3    H125229   4.443   5.073   0.836 -3.3439 -0.2628 -2.2921
 1246TIP3    H225230   4.350   5.186   0.875 -0.3420  0.9757  2.2470
 1247TIP3   OH225231   1.221   2.604   1.454  0.3235  0.3474  0.0504
 1247TIP3    H125232   1.283   2.538   1.484 -0.7918 -0.5154  0.5338
 1247TIP3    H225233   1.236   2.679   1.512  0.9030  0.1446  0.1681
 1248TIP3   OH225234   5.183   2.115  10.826  0.2890 -0.3884 -0.2544
 1248TIP3    H125235   5.231   2.070  10.895 -0.8256 -0.0952  0.7393
 1248TIP3    H225236   5.122   2.173  10.872 -0.5893 -0.2951 -1.4818
 1249TIP3   OH225237   3.904   4.332   4.396 -0.0091 -0.7978 -0.4714
 1249TIP3    H125238   3.858   4.342   4.313  0.4540 -0.0933 -0.6583
 1249TIP3    H225239   3.970   4.402   4.396 -0.8995  0.1049  1.0939
 1250TIP3   OH225240   4.985   4.142  15.402  0.0091  0.4578  0.5391
 1250TIP3    H125241   4.890   4.149  15.394 -0.1168  0.8577  2.1253
 1250TIP3    H225242   5.008   4.068  15.345 -1.1723  0.6709 -0.2530
 1251TIP3   OH225243   6.166   1.727   0.836  0.2448 -1.1029 -0.2507
 1251TIP3    H125244   6.182   1.633   0.823 -2.0069 -1.6481  0.5368
 1251TIP3    H225245   6.196   1.744   0.925  0.8255 -0.9985 -0.4564
 1252TIP3   OH225246   0.207   2.069   6.224 -0.8193  0.2273  0.4062
 1252TIP3    H125247   0.166   2.147   6.260 -0.1953 -0.0538  1.7999
 1252TIP3    H225248   0.228   2.015   6.300  0.7601 -0.3062 -0.3408
 1253TIP3   OH225249   4.061   0.253  12.184  0.3213  0.0520  0.3062
 1253TIP3    H125250   4.150   0.281  12.164  0.4263  0.6402  1.5377
 1253TIP3    H225251   4.004   0.314  12.137  0.4741 -2.1156 -3.0290
 1254TIP3   OH225252   5.766   3.411  14.535 -0.0772  0.0485  0.2596
 1254TIP3    H125253   5.855   3.379  14.520  0.1716  0.5246  0.6818
 1254TIP3    H225254   5.738   3.445  14.450 -1.0438 -2.8841 -0.7078
 1255TIP3   OH225255   1.568   2.083  11.769  0.0905 -0.6925  0.0594
 1255TIP3    H125256   1.609   2.117  11.849 -1.4996  0.2330  0.5374
 1255TIP3    H225257   1.640   2.078  11.705  0.8511  1.5256  0.6376
 1256TIP3   OH225258   1.226   6.404   2.104  0.0655  0.3480 -0.2326
 1256TIP3    H125259   1.213   6.321   2.150 -1.2292 -0.0313 -1.1944
 1256TIP3    H225260   1.311   6.436   2.135  0.5164 -1.2450  0.2980
 1257TIP3   OH225261   4.186   4.078   2.228  0.0687  0.1223 -0.5147
 1257TIP3    H125262   4.167   4.140   2.157 -0.8310  0.4039 -0.0507
 1257TIP3    H225263   4.278   4.056   2.217 -0.1770 -0.2377 -2.0776
 1258TIP3   OH225264   1.945   4.655  14.587 -0.0319  0.1186  0.4497
 1258TIP3    H125265   2.017   4.595  14.571 -1.2301 -0.8758 -1.6085
 1258TIP3    H225266   1.979   4.717  14.652  1.5278 -2.2328  2.0149
 1259TIP3   OH225267   3.573   0.374  13.036  0.2049 -0.2301 -0.4735
 1259TIP3    H125268   3.611   0.387  13.123 -0.8225 -1.2343  0.1669
 1259TIP3    H225269   3.632   0.313  12.992  0.4667 -0.1116 -0.2845
 1260TIP3   OH225270   6.729   3.915  14.083  0.0188  0.3945  0.2931
 1260TIP3    H125271   6.685   3.998  14.065  1.5637  1.2281  0.1567
 1260TIP3    H225272   6.822   3.936  14.080  0.4465 -1.0617  1.6819
 1261TIP3   OH225273   2.099   3.020   6.183 -0.0634 -0.4609 -0.1765
 1261TIP3    H125274   2.032   3.087   6.194 -0.7093 -1.1471  0.1721
 1261TIP3    H225275   2.085   2.959   6.255  1.0041 -0.5706 -0.0374
 1262TIP3   OH225276   2.116   1.818  17.121  1.0695 -0.4752 -0.4009
 1262TIP3    H125277   2.034   1.866  17.137  0.0632 -1.8880 -1.0991
 1262TIP3    H225278   2.147   1.850  17.037  1.3706  0.2156 -0.0371
 1263TIP3   OH225279   2.866   5.304   2.343  0.2732 -0.2880 -0.4997
 1263TIP3    H125280   2.860   5.209   2.331  1.0880 -0.3113 -0.7773
 1263TIP3    H225281   2.823   5.341   2.266 -0.7791 -0.4224  0.0099
 1264TIP3   OH225282   3.842   0.278  14.714 -0.3378 -0.0700  0.0987
 1264TIP3    H125283   3.760   0.319  14.686 -0.1852 -0.0613 -0.3493
 1264TIP3    H225284   3.852   0.203  14.656 -0.9972 -1.2011  1.3995
 1265TIP3   OH225285   3.475   3.812  14.056 -0.1384 -0.1173  0.3814
 1265TIP3    H125286   3.539   3.793  13.987 -0.5945  0.6146 -0.2640
 1265TIP3    H225287   3.407   3.864  14.012 -0.4350  0.3701  1.3805
 1266TIP3   OH225288   6.068   0.705   5.831 -0.0671 -0.4889  0.3373
 1266TIP3    H125289   6.047   0.746   5.915  2.7057  1.1855  0.3259
 1266TIP3    H225290   6.112   0.623   5.854  0.6397 -0.0572  0.5394
 1267TIP3   OH225291   5.360   5.556   3.216  0.1317  0.1558  0.4194
 1267TIP3    H125292   5.294   5.600   3.163  1.1657 -1.2078 -2.1476
 1267TIP3    H225293   5.440   5.608   3.204  0.2766  0.0975  1.0642
 1268TIP3   OH225294   1.857   4.550  11.443 -0.5082 -0.0404 -0.1496
 1268TIP3    H125295   1.928   4.574  11.384 -1.2444  2.2126 -0.2136
 1268TIP3    H225296   1.901   4.516  11.521  0.6048  0.1906 -0.6544
 1269TIP3   OH225297   5.831   2.469   1.963  0.0053 -0.0384 -0.1484
 1269TIP3    H125298   5.780   2.449   2.042  0.2089  0.5672  0.1423
 1269TIP3    H225299   5.897   2.532   1.993  0.2459 -0.0046 -0.7482
 1270TIP3   OH225300   6.225   3.903   3.286 -0.2639 -0.0449 -0.3630
 1270TIP3    H125301   6.189   3.952   3.212 -0.0078  0.2487 -0.2973
 1270TIP3    H225302   6.319   3.923   3.284 -0.3345  0.4000  0.3607
 1271TIP3   OH225303   2.503   1.014  14.047 -0.1375  0.1360 -0.5736
 1271TIP3    H125304   2.512   0.997  14.141 -1.0670  0.2140 -0.4600
 1271TIP3    H225305   2.462   0.935  14.012  0.1595  0.1259 -0.9137
 1272TIP3   OH225306   5.143   1.173   5.546  0.2065 -0.4181 -0.4620
 1272TIP3    H125307   5.228   1.139   5.573  1.3916  2.4575 -0.2189
 1272TIP3    H225308   5.157   1.203   5.456 -0.4523  0.3544 -0.3175
 1273TIP3   OH225309   6.790   2.626  15.354  0.4122  0.1583  0.3578
 1273TIP3    H125310   6.750   2.670  15.428 -1.2283  3.7190 -2.3747
 1273TIP3    H225311   6.884   2.646  15.361  0.5087 -0.7680  2.1279
 1274TIP3   OH225312   3.748   2.699  16.104  0.2248  0.3027  0.1387
 1274TIP3    H125313   3.662   2.733  16.131  0.4190 -0.5645  2.0765
 1274TIP3    H225314   3.730   2.610  16.075  0.5931 -0.4864  2.1156
 1275TIP3   OH225315   4.878   4.872   2.538 -0.7114  0.3236  0.4148
 1275TIP3    H125316   4.882   4.943   2.602 -0.4686 -1.2317  2.2169
 1275TIP3    H225317   4.824   4.805   2.580 -0.2958 -0.8855 -0.8895
 1276TIP3   OH225318   0.627   0.108   3.289  0.1057 -0.1616 -0.5737
 1276TIP3    H125319   0.550   0.068   3.248 -0.4963  2.4708 -2.2535
 1276TIP3    H225320   0.648   0.050   3.362 -0.9800 -3.1414 -2.4677
 1277TIP3   OH225321   0.650   3.190   5.881 -0.4158 -0.2916  0.3789
 1277TIP3    H125322   0.734   3.234   5.866 -0.1092 -0.4135  1.6142
 1277TIP3    H225323   0.660   3.150   5.968 -1.8372 -0.1274  0.6275
 1278TIP3   OH225324   6.013   1.144   1.591 -0.3643 -0.2805 -0.3172
 1278TIP3    H125325   6.056   1.205   1.531  2.4198 -0.2361  1.5369
 1278TIP3    H225326   6.035   1.057   1.556  0.8352 -0.2491  0.3182
 1279TIP3   OH225327   1.908   0.777   0.895  0.3155  0.0280  0.6415
 1279TIP3    H125328   1.819   0.808   0.906  0.0860 -0.0492 -0.8379
 1279TIP3    H225329   1.957   0.820   0.965 -0.6387  1.0694  0.6977
 1280TIP3   OH225330   0.287   1.398  13.849 -0.0835 -0.9786  0.0430
 1280TIP3    H125331   0.378   1.427  13.855  0.0091 -1.5526  2.2849
 1280TIP3    H225332   0.286   1.334  13.778  0.6807  0.8723 -1.7478
 1281TIP3   OH225333   4.409   0.414  10.867 -0.3806  0.3269 -0.9049
 1281TIP3    H125334   4.387   0.471  10.941  1.2770 -0.3419  0.1665
 1281TIP3    H225335   4.333   0.357  10.858 -0.9759  0.9908 -0.2960
 1282TIP3   OH225336   2.672   3.756  14.899 -0.1827  0.0496 -0.0051
 1282TIP3    H125337   2.767   3.761  14.884  0.1597  2.6407  2.3072
 1282TIP3    H225338   2.637   3.832  14.854 -0.4468  1.8433  2.9851
 1283TIP3   OH225339   1.075   4.836   5.461  0.5742  0.2914  0.0513
 1283TIP3    H125340   1.048   4.749   5.432 -1.4427  0.8260  0.1829
 1283TIP3    H225341   1.094   4.826   5.554  0.6347 -0.0550  0.0030
 1284TIP3   OH225342   5.881   1.854   6.121  0.3646  0.0903 -0.2202
 1284TIP3    H125343   5.918   1.940   6.140  1.2325 -0.4429  0.6378
 1284TIP3    H225344   5.802   1.872   6.071  0.8993  1.3565 -0.6672
 1285TIP3   OH225345   3.431   0.561  14.792  0.4045  0.0751  0.2251
 1285TIP3    H125346   3.432   0.482  14.846 -0.2903  0.0136  0.1657
 1285TIP3    H225347   3.483   0.625  14.841  2.3179 -0.8729 -0.4722
 1286TIP3   OH225348   0.437   2.478  14.929  0.1969 -0.1147 -0.3482
 1286TIP3    H125349   0.369   2.531  14.970  0.3970  0.3388 -0.6056
 1286TIP3    H225350   0.415   2.388  14.954  0.3300  0.1556  0.7837
 1287TIP3   OH225351   3.043   0.693   0.233 -0.2132  0.0767  0.3730
 1287TIP3    H125352   3.088   0.638   0.169  0.7040  0.7492  0.4318
 1287TIP3    H225353   3.113   0.739   0.279 -0.9181  0.4555  1.0914
 1288TIP3   OH225354   1.723   0.892  16.071 -0.0955  0.1084  0.1309
 1288TIP3    H125355   1.668   0.963  16.103 -0.6639 -0.7217  1.0908
 1288TIP3    H225356   1.705   0.887  15.978 -0.6735  0.6823  0.2061
 1289TIP3   OH225357   2.529   1.310   1.283  0.1082 -0.5734  0.1913
 1289TIP3    H125358   2.565   1.339   1.366 -0.4312 -0.9397  0.5594
 1289TIP3    H225359   2.527   1.389   1.229  1.0280 -0.4639  0.3165
 1290TIP3   OH225360   3.969   1.134   4.839 -0.5019 -0.4115  0.1021
 1290TIP3    H125361   3.948   1.055   4.888  3.0461 -1.3725  0.3702
 1290TIP3    H225362   3.947   1.112   4.748  0.5560 -1.8375  0.1503
 1291TIP3   OH225363   6.314   2.347   3.127 -0.4821  0.3713  0.4597
 1291TIP3    H125364   6.374   2.392   3.067 -1.7731  2.7936  0.8581
 1291TIP3    H225365   6.360   2.344   3.210 -0.4451  1.2230  0.4826
 1292TIP3   OH225366   5.140   4.658  14.688  0.3851  0.3407  0.1047
 1292TIP3    H125367   5.191   4.716  14.744 -0.1861 -0.5721  1.6450
 1292TIP3    H225368   5.179   4.668  14.601  2.1337  0.8649  0.8966
 1293TIP3   OH225369   1.869   2.316  12.016 -0.2701 -0.0983  0.6241
 1293TIP3    H125370   1.917   2.345  12.094 -0.8745  1.8320  0.3160
 1293TIP3    H225371   1.933   2.323  11.945 -0.4137  0.4776  0.5518
 1294TIP3   OH225372   0.402   0.160   2.462 -0.0986  0.2723 -0.2286
 1294TIP3    H125373   0.411   0.246   2.503  0.1432  0.1651 -0.0586
 1294TIP3    H225374   0.479   0.111   2.490 -0.3249 -0.0601 -0.1798
 1295TIP3   OH225375   2.389   0.241   4.312 -0.8765  0.0693  0.5932
 1295TIP3    H125376   2.468   0.246   4.366 -0.9123  1.5354  0.5347
 1295TIP3    H225377   2.383   0.327   4.270 -3.4979  0.6709  2.0022
 1296TIP3   OH225378   2.880   0.351  14.376  0.2668 -0.2373  0.2501
 1296TIP3    H125379   2.836   0.319  14.297  0.4983  2.3400 -1.0282
 1296TIP3    H225380   2.908   0.271  14.422  0.4781 -1.8501 -2.4452
 1297TIP3   OH225381   0.873   4.310  11.887 -0.4371  0.3618  0.2218
 1297TIP3    H125382   0.944   4.286  11.827 -0.0886 -2.2081  1.5433
 1297TIP3    H225383   0.810   4.357  11.832  0.7081 -0.2964 -1.7366
 1298TIP3   OH225384   2.887   3.766  12.809 -0.5789  0.0816  0.3391
 1298TIP3    H125385   2.823   3.711  12.763 -0.6780 -0.2581  0.8675
 1298TIP3    H225386   2.917   3.828  12.743  0.2683 -1.2351 -0.5606
 1299TIP3   OH225387   1.274   3.039  12.213  0.3225 -0.4264 -0.6898
 1299TIP3    H125388   1.227   3.074  12.288  0.5676 -0.1474 -0.6640
 1299TIP3    H225389   1.366   3.045  12.237  0.3564 -1.8481 -0.3557
 1300TIP3   OH225390   5.877   3.825   0.687  0.0724 -0.1052  0.6297
 1300TIP3    H125391   5.816   3.834   0.760 -0.8837 -0.3921 -0.1107
 1300TIP3    H225392   5.964   3.828   0.727 -0.4153  0.6753  1.6687
 1301TIP3   OH225393   0.255   4.768  12.431 -0.3276 -0.6003  0.0081
 1301TIP3    H125394   0.295   4.805  12.510 -0.1170  0.6760 -0.6669
 1301TIP3    H225395   0.223   4.682  12.458 -0.7248  0.0183  1.6182
 1302TIP3   OH225396   5.793   4.714   3.173 -0.2685 -0.0743 -0.0725
 1302TIP3    H125397   5.853   4.776   3.132 -0.7950  0.9060  0.5902
 1302TIP3    H225398   5.727   4.695   3.106  0.4734 -0.7367 -0.6204
 1303TIP3   OH225399   4.373   0.983   1.521  0.1391  0.0375 -0.0142
 1303TIP3    H125400   4.386   1.076   1.503 -0.7257  0.1032 -0.3471
 1303TIP3    H225401   4.427   0.939   1.455 -0.3682  0.3012 -0.6192
 1304TIP3   OH225402   1.053   0.718   0.394  0.1770 -0.2280 -0.2227
 1304TIP3    H125403   1.119   0.785   0.377 -1.3996  1.3584 -0.3713
 1304TIP3    H225404   1.075   0.647   0.333  1.4323  0.4621 -0.6161
 1305TIP3   OH225405   1.944   4.717   2.666  0.1247 -0.3328 -0.5965
 1305TIP3    H125406   1.939   4.635   2.617  0.8340 -0.9658  0.3573
 1305TIP3    H225407   1.884   4.705   2.740  2.3217 -1.1759  1.1703
 1306TIP3   OH225408   0.470   6.137  11.198 -0.1651  1.1282 -0.4382
 1306TIP3    H125409   0.507   6.213  11.153 -1.6503  1.0969 -1.8307
 1306TIP3    H225410   0.437   6.082  11.127  1.0364 -0.9253  0.5303
 1307TIP3   OH225411   5.192   2.056  10.541 -0.2191  0.0865  0.1624
 1307TIP3    H125412   5.208   2.091  10.628  1.0504  1.3369 -0.5275
 1307TIP3    H225413   5.146   2.126  10.495 -1.5804 -0.8562  0.0281
 1308TIP3   OH225414   3.778   1.501  14.284  0.0226 -0.1449  1.2066
 1308TIP3    H125415   3.801   1.410  14.268  0.7211 -0.1757  2.2646
 1308TIP3    H225416   3.683   1.505  14.269  0.1718 -0.7619 -0.0070
 1309TIP3   OH225417   4.488   4.500  13.899  0.5645 -0.1436  0.5938
 1309TIP3    H125418   4.466   4.514  13.806 -2.7569  1.1119  1.4357
 1309TIP3    H225419   4.508   4.406  13.904 -0.6744 -0.5815 -1.1790
 1310TIP3   OH225420   3.782   5.634   2.118 -0.1785 -0.2746 -0.2264
 1310TIP3    H125421   3.699   5.680   2.130  0.7475  1.1312  1.3071
 1310TIP3    H225422   3.804   5.602   2.205  0.7284 -0.9238 -0.6823
 1311TIP3   OH225423   4.929   0.865   5.359  0.1655  0.3282 -0.5850
 1311TIP3    H125424   4.859   0.882   5.422 -0.6592 -0.1996 -1.3367
 1311TIP3    H225425   4.957   0.951   5.329 -0.2438  0.5385 -0.3579
 1312TIP3   OH225426   3.295   1.236  15.661  0.3369 -0.0860 -0.4428
 1312TIP3    H125427   3.243   1.156  15.657  1.2456 -0.7269  0.2072
 1312TIP3    H225428   3.251   1.297  15.601 -1.2314 -0.5447  0.2171
 1313TIP3   OH225429   3.045   6.491   4.501  0.0117  0.5256  0.0764
 1313TIP3    H125430   3.039   6.430   4.574 -0.6563 -0.1000 -0.4908
 1313TIP3    H225431   2.954   6.505   4.473  0.2070  1.2573 -0.2232
 1314TIP3   OH225432   4.638   5.121   0.233  0.5237 -0.2232 -0.4571
 1314TIP3    H125433   4.679   5.151   0.152  0.1676  1.1058 -0.1661
 1314TIP3    H225434   4.592   5.198   0.267  2.2475 -0.1880  2.0255
 1315TIP3   OH225435   2.573   6.450   2.867 -0.7329 -0.0275  0.2923
 1315TIP3    H125436   2.609   6.461   2.779  1.6447  1.5572  1.3807
 1315TIP3    H225437   2.507   6.519   2.874  0.2965  0.9900  0.3058
 1316TIP3   OH225438   4.854   4.599  11.831 -0.2837 -0.1663  0.0914
 1316TIP3    H125439   4.819   4.688  11.839 -0.8376 -0.2842 -0.8693
 1316TIP3    H225440   4.777   4.543  11.839 -0.0388 -0.5260 -0.1028
 1317TIP3   OH225441   1.321   5.447  12.164  0.2747 -0.1869  0.2482
 1317TIP3    H125442   1.237   5.401  12.171  0.1651 -0.4018 -1.9206
 1317TIP3    H225443   1.384   5.389  12.206 -0.1435 -1.5527 -0.9386
 1318TIP3   OH225444   5.241   5.699   2.395 -0.0476 -0.1202  0.5796
 1318TIP3    H125445   5.270   5.696   2.486  1.5885  1.2969  0.1620
 1318TIP3    H225446   5.182   5.775   2.392  1.3576  1.0042  0.1309
 1319TIP3   OH225447   3.476   0.908  13.779  0.0996 -0.3691  0.3563
 1319TIP3    H125448   3.477   0.998  13.812 -0.3227  0.5649 -2.0201
 1319TIP3    H225449   3.511   0.914  13.691 -0.0294 -2.5465  0.1018
 1320TIP3   OH225450   3.679   1.610  11.825 -0.7248 -0.0029  0.8942
 1320TIP3    H125451   3.584   1.598  11.834 -0.7523 -0.3670  0.1793
 1320TIP3    H225452   3.711   1.525  11.795 -0.6115  0.9889 -2.1136
 1321TIP3   OH225453   5.534   4.570  14.888 -0.4364  0.2159 -0.1767
 1321TIP3    H125454   5.471   4.500  14.903  1.9243 -1.7632  1.2254
 1321TIP3    H225455   5.582   4.544  14.810  0.2338  0.4285  0.1519
 1322TIP3   OH225456   1.895   4.351   1.616 -0.1864 -0.4468  0.5187
 1322TIP3    H125457   1.938   4.267   1.632 -0.5294 -0.7432 -0.0964
 1322TIP3    H225458   1.815   4.328   1.569  0.2888  0.3178 -0.6889
 1323TIP3   OH225459   6.669   2.534   2.106 -0.2271  0.2856 -0.0819
 1323TIP3    H125460   6.713   2.510   2.024 -2.3475 -0.0894 -1.1897
 1323TIP3    H225461   6.671   2.630   2.107  0.4481  0.2758 -0.2035
 1324TIP3   OH225462   1.979   3.262  16.238  0.4395  0.0179 -0.1515
 1324TIP3    H125463   1.919   3.285  16.309 -0.9399  1.3841 -1.6828
 1324TIP3    H225464   2.028   3.343  16.222  1.2838 -0.5023 -0.2835
 1325TIP3   OH225465   1.351   2.377  13.884  0.2291 -0.0553 -0.0986
 1325TIP3    H125466   1.420   2.367  13.950  0.4100  0.1251 -0.2610
 1325TIP3    H225467   1.382   2.448  13.828 -0.3601  0.4254  0.1775
 1326TIP3   OH225468   4.373   2.087  14.301  0.2439 -0.0183 -0.1868
 1326TIP3    H125469   4.394   2.150  14.370 -1.1218 -0.4860  0.6959
 1326TIP3    H225470   4.368   2.003  14.347 -0.1653 -0.4203 -0.9563
 1327TIP3   OH225471   6.337   2.116  15.988  0.1567 -0.4581  0.1664
 1327TIP3    H125472   6.347   2.114  15.893 -0.7187 -2.2108  0.0696
 1327TIP3    H225473   6.368   2.203  16.013 -2.2594  1.2028 -2.0405
 1328TIP3   OH225474   4.774   2.862  12.558  0.0002 -0.9526 -0.1237
 1328TIP3    H125475   4.702   2.836  12.500 -1.2842  0.3267  0.8127
 1328TIP3    H225476   4.820   2.780  12.577 -2.5110 -2.2292  0.9073
 1329TIP3   OH225477   6.045   6.254  16.291  0.0582 -0.1030 -0.6938
 1329TIP3    H125478   6.074   6.181  16.346 -1.5062 -0.6141 -0.4950
 1329TIP3    H225479   5.957   6.228  16.261 -0.2254  1.3711 -1.2216
 1330TIP3   OH225480   4.682   0.839  12.333 -0.2346 -0.8335 -0.3335
 1330TIP3    H125481   4.733   0.896  12.391 -0.9413  0.9205 -1.3663
 1330TIP3    H225482   4.591   0.854  12.359 -0.4698 -1.1067 -0.9800
 1331TIP3   OH225483   1.719   3.308  11.885  0.3417 -0.3064 -0.3851
 1331TIP3    H125484   1.681   3.343  11.965 -0.3887  0.1583 -0.9201
 1331TIP3    H225485   1.778   3.238  11.914  0.1288 -0.1046  0.5485
 1332TIP3   OH225486   1.111   5.971   5.704  0.1934  0.3204 -0.0364
 1332TIP3    H125487   1.154   5.970   5.790  0.1614 -1.1956 -0.0100
 1332TIP3    H225488   1.179   6.000   5.644  0.4370  0.6502  0.3867
 1333TIP3   OH225489   2.944   1.900  14.226  0.2196 -0.7527 -0.5683
 1333TIP3    H125490   2.859   1.856  14.238  0.0122 -0.1333  0.3614
 1333TIP3    H225491   2.945   1.925  14.133 -0.8980 -0.2276 -0.4565
 1334TIP3   OH225492   6.263   0.006   0.078 -0.2730 -0.1573  0.2013
 1334TIP3    H125493   6.209  -0.039   0.143  0.1751 -0.9127  0.0637
 1334TIP3    H225494   6.224   0.093   0.071 -1.6564 -0.7731 -0.1262
 1335TIP3   OH225495   6.774   4.138   0.863 -0.4368 -0.1736 -0.1631
 1335TIP3    H125496   6.708   4.125   0.930 -0.7265  1.4648 -0.0837
 1335TIP3    H225497   6.834   4.064   0.874  0.6394  1.0259  3.2321
 1336TIP3   OH225498   0.222   6.029  15.220  0.4734  0.4764 -0.2309
 1336TIP3    H125499   0.129   6.021  15.242  0.3930  1.0358 -0.3398
 1336TIP3    H225500   0.238   5.959  15.158  0.2777 -0.0206  0.2758
 1337TIP3   OH225501   0.217   4.632  11.480  0.2330 -0.0717  0.0402
 1337TIP3    H125502   0.243   4.630  11.572  1.4711 -0.6766 -0.2980
 1337TIP3    H225503   0.131   4.590  11.478  0.2818 -0.2268  0.8859
 1338TIP3   OH225504   6.012   0.913  12.223 -0.0257 -0.3608  0.6361
 1338TIP3    H125505   6.059   0.849  12.276 -0.2242 -1.2082 -0.1832
 1338TIP3    H225506   5.984   0.864  12.145  1.0629  1.0571 -0.7100
 1339TIP3   OH225507   5.677   3.199   3.621  0.3208 -0.4803 -0.0283
 1339TIP3    H125508   5.724   3.196   3.538  0.6604 -1.0443  0.1823
 1339TIP3    H225509   5.613   3.128   3.614  0.0496 -0.2416  0.0167
 1340TIP3   OH225510   4.156   3.176   3.825  0.5313 -0.4473  0.1183
 1340TIP3    H125511   4.071   3.218   3.826  1.2530  1.2978 -2.3921
 1340TIP3    H225512   4.211   3.229   3.882  1.0547  1.2920 -1.8899
 1341TIP3   OH225513   1.776   5.511   4.453  0.3052 -0.1966  0.1036
 1341TIP3    H125514   1.763   5.569   4.377 -0.1528 -1.5590 -0.9098
 1341TIP3    H225515   1.819   5.566   4.518  1.4039  0.8330 -1.4159
 1342TIP3   OH225516   3.310   0.104  12.169 -0.0113 -0.5159  0.0358
 1342TIP3    H125517   3.341   0.176  12.224  2.2764 -0.4678 -1.2028
 1342TIP3    H225518   3.279   0.148  12.089 -1.7704 -0.7011  0.5846
 1343TIP3   OH225519   3.447   3.194  12.271 -0.0601  0.1809  0.0093
 1343TIP3    H125520   3.464   3.195  12.365  1.0015  0.4924 -0.1699
 1343TIP3    H225521   3.413   3.106  12.254  1.9658 -0.7338  0.3380
 1344TIP3   OH225522   0.286   1.220   4.396 -0.0046 -0.2989 -0.0699
 1344TIP3    H125523   0.296   1.312   4.371  1.2332 -0.4146 -0.0647
 1344TIP3    H225524   0.376   1.190   4.412 -0.4397 -1.3678  0.4291
 1345TIP3   OH225525   3.390   6.797  14.960 -0.3231 -0.5975  0.4456
 1345TIP3    H125526   3.345   6.748  15.030 -0.3373  0.3284  1.1096
 1345TIP3    H225527   3.374   6.889  14.982  0.9828 -0.2645  0.0825
 1346TIP3   OH225528   1.850   3.310  16.842 -0.9949  0.4264  0.0404
 1346TIP3    H125529   1.931   3.300  16.891 -0.8328  0.7057 -0.1704
 1346TIP3    H225530   1.861   3.391  16.792 -1.2205  0.2301 -0.3375
 1347TIP3   OH225531   0.356   4.592   2.293  0.6587  0.1819  0.0356
 1347TIP3    H125532   0.272   4.615   2.332 -0.1583 -1.5097 -0.6478
 1347TIP3    H225533   0.416   4.586   2.368 -0.7590 -2.5096  1.1091
 1348TIP3   OH225534   0.696   0.230   0.941  0.0501 -0.4870  0.0414
 1348TIP3    H125535   0.607   0.202   0.962  0.4289 -0.9117  1.1111
 1348TIP3    H225536   0.743   0.228   1.024  1.4044 -1.4990 -0.7142
 1349TIP3   OH225537   1.593   3.026  11.247  0.0720 -0.5500  0.0154
 1349TIP3    H125538   1.521   2.975  11.285  1.0237 -0.4278  2.1139
 1349TIP3    H225539   1.656   2.959  11.217  0.3074 -0.6512  0.7140
 1350TIP3   OH225540   6.739   0.568  13.893 -0.0232 -0.2507  0.4478
 1350TIP3    H125541   6.721   0.585  13.986 -3.3050  0.9599 -0.2411
 1350TIP3    H225542   6.740   0.473  13.886 -0.4782 -0.3653  1.6329
 1351TIP3   OH225543   5.312   6.477   5.713 -0.0331 -0.0322  0.3534
 1351TIP3    H125544   5.311   6.572   5.727 -0.9228  0.4075 -2.1841
 1351TIP3    H225545   5.246   6.444   5.774  0.5947  0.8784  1.5883
 1352TIP3   OH225546   0.136   1.051   5.954 -0.3129 -0.4870  0.2079
 1352TIP3    H125547   0.108   1.020   5.868 -2.6377  1.5771  0.1188
 1352TIP3    H225548   0.185   0.977   5.991 -0.1254 -1.7941 -2.4440
 1353TIP3   OH225549   5.149   6.065  16.864  0.3313 -0.2061  0.4643
 1353TIP3    H125550   5.186   6.102  16.944  0.3379  1.6720 -0.3581
 1353TIP3    H225551   5.076   6.123  16.842 -0.4955 -1.4631 -0.1887
 1354TIP3   OH225552   5.170   4.014  16.218 -0.4475 -0.3159 -0.6576
 1354TIP3    H125553   5.106   4.002  16.148  0.0435  0.7247 -1.3195
 1354TIP3    H225554   5.122   4.061  16.286 -0.6031 -0.2190 -0.8306
 1355TIP3   OH225555   3.842   4.088  14.572  0.3867  0.2270 -0.0259
 1355TIP3    H125556   3.923   4.058  14.531  0.6811  0.2235  0.5539
 1355TIP3    H225557   3.773   4.043  14.523  0.6257  1.4356 -1.5675
 1356TIP3   OH225558   4.500   0.082  15.808 -0.4136  0.0437  0.0763
 1356TIP3    H125559   4.528  -0.005  15.778 -0.2023  0.7601 -1.9328
 1356TIP3    H225560   4.406   0.082  15.795 -0.2406  0.6113 -1.4603
 1357TIP3   OH225561   2.485   5.705  12.483 -1.0324 -0.3160 -0.0128
 1357TIP3    H125562   2.390   5.700  12.493 -1.1745  1.6466 -0.1116
 1357TIP3    H225563   2.499   5.778  12.423  0.5820  0.0470  0.7705
 1358TIP3   OH225564   5.007   5.936   5.526  0.5925  0.6055 -0.1314
 1358TIP3    H125565   5.098   5.959   5.506  0.3345  0.6706 -1.2656
 1358TIP3    H225566   4.972   6.014   5.568  0.7545  0.9727 -0.6717
 1359TIP3   OH225567   0.012   4.135  15.689  0.1234  0.2013  0.2783
 1359TIP3    H125568   0.093   4.182  15.711  0.9588 -1.0424 -0.0135
 1359TIP3    H225569  -0.057   4.185  15.732  0.9175  1.8520 -0.2526
 1360TIP3   OH225570   2.738   5.328  17.131 -0.0225  0.4006  0.2838
 1360TIP3    H125571   2.794   5.390  17.085 -1.5373  0.4692 -1.5870
 1360TIP3    H225572   2.692   5.281  17.061 -0.8296 -1.0378  1.7128
 1361TIP3   OH225573   0.514   4.050  13.664 -0.0660  0.2216  0.1352
 1361TIP3    H125574   0.534   4.050  13.570 -1.9547  0.2377 -0.2953
 1361TIP3    H225575   0.542   3.964  13.694  0.9497  0.3690 -0.3290
 1362TIP3   OH225576   5.019   2.742  12.386  0.2298 -0.3664 -0.1987
 1362TIP3    H125577   4.976   2.734  12.301 -1.2976 -1.3011  0.6258
 1362TIP3    H225578   4.961   2.698  12.448  0.6662  1.3562  1.5691
 1363TIP3   OH225579   0.237   6.320  11.617 -0.3614 -0.6302  0.6270
 1363TIP3    H125580   0.214   6.337  11.526  1.1068  0.7709  0.4730
 1363TIP3    H225581   0.332   6.320  11.619 -0.3253  0.6501  2.3421
 1364TIP3   OH225582   1.865   6.212  15.108 -0.3711 -0.1642 -0.0788
 1364TIP3    H125583   1.945   6.162  15.124 -0.2795 -0.5178 -1.4561
 1364TIP3    H225584   1.870   6.235  15.015 -0.5438  2.2114  0.4394
 1365TIP3   OH225585   3.114   2.493  11.571  0.1605  0.1257  0.6596
 1365TIP3    H125586   3.061   2.572  11.568 -1.8939 -1.2313 -0.6124
 1365TIP3    H225587   3.086   2.448  11.651 -0.0418 -0.2299  0.3891
 1366TIP3   OH225588   3.814   5.419  12.772 -0.3727  0.1453  0.0313
 1366TIP3    H125589   3.859   5.499  12.798  3.8885 -1.2018 -2.2365
 1366TIP3    H225590   3.783   5.435  12.683 -0.7382 -0.3320  0.0622
 1367TIP3   OH225591   3.991   3.554   4.551 -0.2772 -0.4109 -0.0516
 1367TIP3    H125592   4.032   3.626   4.600 -0.2216  0.0813 -0.8068
 1367TIP3    H225593   3.897   3.572   4.557 -0.2379  0.0725 -0.7445
 1368TIP3   OH225594   2.607   2.927  17.285 -0.4649 -0.2605  0.4188
 1368TIP3    H125595   2.569   2.962  17.366  0.3100 -0.4282  0.8644
 1368TIP3    H225596   2.700   2.947  17.292  0.0849 -2.6792  0.8818
 1369TIP3   OH225597   0.271   0.550  15.959 -0.2726 -0.0084 -0.4487
 1369TIP3    H125598   0.324   0.473  15.978 -0.1545  0.3691  0.8125
 1369TIP3    H225599   0.230   0.572  16.042 -1.4425  0.4463 -1.1239
 1370TIP3   OH225600   3.143   5.971  17.095  0.2726  0.6130  0.2333
 1370TIP3    H125601   3.185   5.910  17.034 -0.5394 -0.3942  0.6714
 1370TIP3    H225602   3.185   5.953  17.179  1.2947  1.9109  0.0455
 1371TIP3   OH225603   5.759   4.238  11.985  0.2340  0.5198  0.5159
 1371TIP3    H125604   5.762   4.168  11.920 -0.0720 -1.0532  2.1129
 1371TIP3    H225605   5.758   4.193  12.069  0.8732  2.4792  1.6524
 1372TIP3   OH225606   5.043   1.471  14.094 -0.4614 -0.0806  0.1652
 1372TIP3    H125607   4.969   1.526  14.068 -1.1214 -1.4128 -0.9164
 1372TIP3    H225608   5.007   1.411  14.160  0.0797  0.3339  0.8456
 1373TIP3   OH225609   6.389   1.738  15.161  0.3736 -0.3337  0.0787
 1373TIP3    H125610   6.419   1.747  15.252 -1.5215  1.6177  0.6144
 1373TIP3    H225611   6.450   1.790  15.110 -0.5848  1.6124  0.8119
 1374TIP3   OH225612   6.434   2.158   2.918  0.0965  0.1306  0.5277
 1374TIP3    H125613   6.423   2.106   2.998 -0.0644  2.4336  2.0994
 1374TIP3    H225614   6.517   2.204   2.931  0.7966 -0.5377 -1.3274
 1375TIP3   OH225615   2.405   6.011   0.455 -0.5184  0.2054 -0.6804
 1375TIP3    H125616   2.399   6.107   0.452  1.7778  0.3742 -1.1931
 1375TIP3    H225617   2.480   5.993   0.511 -1.2049 -1.3471 -0.1909
 1376TIP3   OH225618   4.858   3.965  13.289  0.1751  0.1736 -0.4399
 1376TIP3    H125619   4.880   4.054  13.261  2.2607  1.0626  3.3061
 1376TIP3    H225620   4.904   3.909  13.227  2.2273  1.8726 -0.5820
 1377TIP3   OH225621   3.694   0.659   4.470  0.5910  0.0765  0.0583
 1377TIP3    H125622   3.782   0.689   4.447  0.7369 -0.4153 -0.0391
 1377TIP3    H225623   3.652   0.641   4.386  0.8511 -0.9564  0.1404
 1378TIP3   OH225624   1.873   3.769   1.321 -0.3510  0.6337  0.3113
 1378TIP3    H125625   1.847   3.759   1.412 -0.5329  0.2946  0.2238
 1378TIP3    H225626   1.795   3.743   1.271  0.1239 -0.3191  0.0469
 1379TIP3   OH225627   5.983   2.193   2.843 -0.4115 -0.3658  0.1540
 1379TIP3    H125628   5.931   2.269   2.816 -1.7921 -0.5301  2.1781
 1379TIP3    H225629   6.074   2.222   2.834 -0.9059  1.4052  0.5098
 1380TIP3   OH225630   4.399   2.467   4.913 -0.2199  0.5041 -0.2262
 1380TIP3    H125631   4.313   2.508   4.911 -0.3962  0.4026  2.2976
 1380TIP3    H225632   4.461   2.539   4.904 -0.5337  0.6965 -0.9368
 1381TIP3   OH225633   5.638   6.035   4.746  0.0813 -0.1047  0.1228
 1381TIP3    H125634   5.572   6.104   4.738  0.3695 -0.0008 -2.3562
 1381TIP3    H225635   5.708   6.075   4.796 -0.8960  0.4584  1.0847
 1382TIP3   OH225636   2.619   4.749  14.217 -0.1553 -0.2561 -0.1033
 1382TIP3    H125637   2.583   4.776  14.133 -1.0536 -1.3760 -0.1021
 1382TIP3    H225638   2.600   4.822  14.276 -0.7161 -0.0246 -0.5638
 1383TIP3   OH225639   6.478   6.249   4.616  0.1750  0.9522 -0.0387
 1383TIP3    H125640   6.557   6.295   4.645  0.0073  1.5211 -0.4651
 1383TIP3    H225641   6.465   6.278   4.526 -1.2688  1.9096  0.4374
 1384TIP3   OH225642   6.290   6.523   1.938 -0.5081 -0.0698  0.0323
 1384TIP3    H125643   6.242   6.605   1.949 -0.5077 -0.0335 -0.2331
 1384TIP3    H225644   6.295   6.510   1.843 -1.0547 -0.6913  0.0805
 1385TIP3   OH225645   2.531   0.672   2.523 -0.1251 -0.2207 -0.1051
 1385TIP3    H125646   2.486   0.692   2.441  1.0502  0.0500 -0.7025
 1385TIP3    H225647   2.533   0.754   2.571  0.4673 -0.0246 -0.4543
 1386TIP3   OH225648   1.140   2.902   1.377 -0.1921  0.6931 -0.2052
 1386TIP3    H125649   1.076   2.971   1.361 -3.3127 -1.9854 -0.2920
 1386TIP3    H225650   1.103   2.850   1.448  1.5874 -1.3272 -0.6413
 1387TIP3   OH225651   5.660   2.516  13.215  0.6300 -0.0461 -0.3232
 1387TIP3    H125652   5.688   2.607  13.223 -0.2822  0.3136 -1.0126
 1387TIP3    H225653   5.740   2.465  13.224  1.2046  0.8472 -0.3054
 1388TIP3   OH225654   1.810   5.226  16.142  0.3024 -0.3416  0.2354
 1388TIP3    H125655   1.761   5.304  16.170  0.2356 -0.6678  1.0594
 1388TIP3    H225656   1.815   5.234  16.047 -0.7345  0.0636  0.1987
 1389TIP3   OH225657   4.495   5.787  12.044 -0.2935  0.3279  0.1402
 1389TIP3    H125658   4.482   5.693  12.060  0.2912  0.3193  0.6261
 1389TIP3    H225659   4.461   5.830  12.122 -0.8866  0.5457 -0.2377
 1390TIP3   OH225660   5.424   2.780  10.169  0.1657  0.1603  0.6275
 1390TIP3    H125661   5.476   2.794  10.090 -0.0279  1.9841  0.7862
 1390TIP3    H225662   5.348   2.731  10.139  0.5260  0.0602 -0.1502
 1391TIP3   OH225663   4.084   2.305  10.551  0.1985 -0.1613  0.3903
 1391TIP3    H125664   4.003   2.298  10.602  0.6992 -0.4901  1.1541
 1391TIP3    H225665   4.055   2.338  10.466 -0.5875  1.0808  1.0926
 1392TIP3   OH225666   2.317   4.476   2.124  0.7066 -0.0788 -0.2006
 1392TIP3    H125667   2.298   4.509   2.212  0.2842  0.1080 -0.3567
 1392TIP3    H225668   2.375   4.402   2.139 -0.0893 -0.6251  0.3058
 1393TIP3   OH225669   6.289   1.241  16.700  0.2856  0.4611  0.6837
 1393TIP3    H125670   6.253   1.222  16.614  0.8982 -2.4537  0.9460
 1393TIP3    H225671   6.235   1.311  16.734 -2.0220 -0.4506 -0.8326
 1394TIP3   OH225672   4.351   6.566   1.212  0.6408 -0.0313 -0.5762
 1394TIP3    H125673   4.432   6.516   1.208  1.1114  0.6566  0.0271
 1394TIP3    H225674   4.320   6.553   1.302  1.3168  1.5596 -0.0734
 1395TIP3   OH225675   4.555   0.512   0.578  0.1810 -0.5038  0.1680
 1395TIP3    H125676   4.520   0.601   0.580  3.5206  0.9690  0.0457
 1395TIP3    H225677   4.593   0.503   0.491  1.8241 -1.1575  0.9078
 1396TIP3   OH225678   5.763   5.148   2.077  0.0688 -0.0931 -0.6947
 1396TIP3    H125679   5.726   5.228   2.116  0.7821  2.0031 -3.8674
 1396TIP3    H225680   5.687   5.091   2.065 -0.5094  0.1413  1.4259
 1397TIP3   OH225681   0.812   3.992   4.918 -0.0373 -0.2028 -0.1648
 1397TIP3    H125682   0.856   3.928   4.861 -0.1027  0.8832 -1.4850
 1397TIP3    H225683   0.722   3.959   4.925  0.2250 -0.8803  0.1568
 1398TIP3   OH225684   6.806   5.954  15.344 -0.1354 -0.1319 -0.5283
 1398TIP3    H125685   6.725   5.992  15.309 -0.7315  0.3911  1.3325
 1398TIP3    H225686   6.778   5.870  15.382  0.1206  0.2058  0.4187
 1399TIP3   OH225687   3.133   0.405  14.111  0.1389 -0.1652  1.2557
 1399TIP3    H125688   3.117   0.325  14.161 -0.5734 -1.3647 -0.7604
 1399TIP3    H225689   3.222   0.431  14.135 -0.2120 -0.5996  3.1868
 1400TIP3   OH225690   5.509   6.662  12.785  0.1037 -0.1735  0.4439
 1400TIP3    H125691   5.441   6.688  12.723  0.2538  0.2247  0.4417
 1400TIP3    H225692   5.483   6.575  12.815  0.6389 -0.8895 -1.0523
 1401TIP3   OH225693   2.412   5.282   2.912 -0.1104 -0.2107  0.0620
 1401TIP3    H125694   2.422   5.373   2.884  0.6472 -0.0488  0.8022
 1401TIP3    H225695   2.467   5.232   2.852 -0.4978 -0.1754 -0.3228
 1402TIP3   OH225696   2.410   3.150  13.377 -0.4000  0.9634  0.1461
 1402TIP3    H125697   2.373   3.220  13.323 -1.9242  0.6495  0.7434
 1402TIP3    H225698   2.352   3.075  13.362 -0.7684  0.8218  2.0852
 1403TIP3   OH225699   0.322   5.247   4.613 -0.0053  0.2307 -0.9260
 1403TIP3    H125700   0.290   5.233   4.702 -0.1063  2.6836 -0.5069
 1403TIP3    H225701   0.252   5.213   4.557 -1.1714  1.0608 -0.0295
 1404TIP3   OH225702   1.912   5.522   4.172 -0.1342 -0.2243  0.4364
 1404TIP3    H125703   1.822   5.489   4.182 -0.4881  0.6706  0.3587
 1404TIP3    H225704   1.911   5.565   4.086  0.4801 -0.5251  0.2757
 1405TIP3   OH225705   6.339   2.130   5.495  0.1434 -0.1985  0.0880
 1405TIP3    H125706   6.345   2.201   5.431 -0.2746 -1.5794 -1.5517
 1405TIP3    H225707   6.275   2.161   5.559 -0.1137  0.8681 -0.6591
 1406TIP3   OH225708   5.159   0.602  13.498  0.1904  0.0468 -0.4499
 1406TIP3    H125709   5.068   0.589  13.524  0.6845  0.0326  1.3628
 1406TIP3    H225710   5.196   0.514  13.493  0.2783  0.0880 -0.5401
 1407TIP3   OH225711   2.818   2.433   3.454  1.1470  0.1685 -0.2972
 1407TIP3    H125712   2.858   2.513   3.422 -0.2086  0.4563 -1.3940
 1407TIP3    H225713   2.727   2.458   3.474  0.8374 -0.9732 -0.1941
 1408TIP3   OH225714   3.867   0.590  14.722 -0.1279  0.2544 -0.4567
 1408TIP3    H125715   3.814   0.535  14.779 -0.3343 -0.7747 -1.6001
 1408TIP3    H225716   3.940   0.618  14.777  0.0595 -1.2827  0.1292
 1409TIP3   OH225717   6.111   5.672   6.718  0.5001  0.0843 -0.3217
 1409TIP3    H125718   6.193   5.716   6.701  0.0928  0.1831 -2.2566
 1409TIP3    H225719   6.136   5.581   6.737  1.1097  0.3515  0.1761
 1410TIP3   OH225720   5.697   5.894  15.077  0.1540 -0.3719  0.1830
 1410TIP3    H125721   5.715   5.822  15.137  2.8980 -1.1745 -1.4700
 1410TIP3    H225722   5.610   5.874  15.042  0.1923 -2.0056  0.9162
 1411TIP3   OH225723   0.625   6.105  13.829  0.4198 -0.0032 -0.1481
 1411TIP3    H125724   0.537   6.143  13.826  1.2111  2.1584  1.3176
 1411TIP3    H225725   0.681   6.173  13.791  1.6880 -0.4982  0.7827
 1412TIP3   OH225726   0.389   3.203   2.512 -0.2900  0.0753 -0.3750
 1412TIP3    H125727   0.431   3.118   2.507  0.2319  0.3411 -0.5520
 1412TIP3    H225728   0.458   3.266   2.489 -0.9364  0.4757 -1.2907
 1413TIP3   OH225729   1.337   5.200  14.335  0.4119  0.3213 -0.5178
 1413TIP3    H125730   1.351   5.128  14.396 -0.0572 -0.0180 -0.8125
 1413TIP3    H225731   1.330   5.277  14.391  2.8983  0.4794 -0.2743
 1414TIP3   OH225732   4.150   6.622  12.795  0.1518  0.2553 -0.3870
 1414TIP3    H125733   4.160   6.709  12.832 -0.0249  0.0135  0.2524
 1414TIP3    H225734   4.101   6.635  12.714 -1.9179  0.5374  0.8238
 1415TIP3   OH225735   5.956   2.963  10.853  0.0967 -0.0393  0.2334
 1415TIP3    H125736   5.906   3.033  10.811 -2.2083 -1.7692 -0.1258
 1415TIP3    H225737   6.031   2.948  10.794 -0.8242  0.3646 -1.0762
 1416TIP3   OH225738   2.090   2.198   3.507 -0.5263  0.1249  0.1516
 1416TIP3    H125739   2.024   2.220   3.573  1.2501  1.2968  1.6390
 1416TIP3    H225740   2.143   2.130   3.549  1.4219  1.7942  0.5428
 1417TIP3   OH225741   1.454   2.913  15.039  0.0643  0.0696  0.3184
 1417TIP3    H125742   1.359   2.903  15.032  0.1350 -0.7469  0.4642
 1417TIP3    H225743   1.472   2.997  14.996 -0.8709  0.8845  1.4538
 1418TIP3   OH225744   4.427   1.108   1.098  0.0566  0.2261 -0.2015
 1418TIP3    H125745   4.464   1.191   1.066  0.2637  0.3496  0.3512
 1418TIP3    H225746   4.349   1.134   1.147  1.9887  0.4611  2.9857
 1419TIP3   OH225747   1.913   0.672   0.293  0.1237 -0.4337 -0.5496
 1419TIP3    H125748   1.928   0.582   0.263 -0.8748 -0.6176 -0.5386
 1419TIP3    H225749   1.902   0.723   0.213  1.2424 -0.1989 -0.5742
 1420TIP3   OH225750   5.760   2.624  11.333 -0.2609  0.4137  0.3135
 1420TIP3    H125751   5.775   2.610  11.426 -2.0577 -0.6309  0.4952
 1420TIP3    H225752   5.814   2.699  11.310  0.9378  0.1029  1.9768
 1421TIP3   OH225753   2.860   5.353  11.310  0.3865  0.0290  0.2546
 1421TIP3    H125754   2.837   5.351  11.217 -0.5185  0.3800  0.4609
 1421TIP3    H225755   2.796   5.295  11.351 -1.2094  2.2440  1.0615
 1422TIP3   OH225756   1.062   4.974  10.771  0.3177 -0.3543 -0.2883
 1422TIP3    H125757   1.030   4.895  10.815 -0.0889 -0.3982 -0.6512
 1422TIP3    H225758   1.150   4.988  10.806 -0.0011 -0.3812  0.5438
 1423TIP3   OH225759   1.113   6.047  16.979  0.2876 -0.4141 -0.4534
 1423TIP3    H125760   1.183   6.110  16.995  0.4610 -1.1185  1.8640
 1423TIP3    H225761   1.084   6.066  16.890 -0.1847  3.4337  0.3497
 1424TIP3   OH225762   4.058   0.787  15.473 -0.1648 -0.2403  0.6106
 1424TIP3    H125763   4.065   0.843  15.550  2.7239 -0.6594  0.7848
 1424TIP3    H225764   4.145   0.791  15.433 -0.7459 -2.2608 -1.0458
 1425TIP3   OH225765   0.921   4.216   2.698  0.0858  0.7659  0.1843
 1425TIP3    H125766   0.965   4.255   2.773  0.3398  1.0545 -0.1125
 1425TIP3    H225767   0.917   4.122   2.718  0.4114  0.8032  0.4265
 1426TIP3   OH225768   5.417   4.329  15.409  0.7872  0.0332  0.0316
 1426TIP3    H125769   5.429   4.322  15.503 -0.1708 -0.3219  0.1401
 1426TIP3    H225770   5.505   4.342  15.374  1.3454 -1.3117  0.8540
 1427TIP3   OH225771   5.312   5.348  16.015  0.2117  0.1393  0.1729
 1427TIP3    H125772   5.350   5.280  15.960 -1.1121 -0.4174 -0.0931
 1427TIP3    H225773   5.365   5.426  15.996  1.4799 -0.6988  0.1715
 1428TIP3   OH225774   1.907   1.350   1.930 -0.4120  0.1967 -0.2328
 1428TIP3    H125775   1.991   1.328   1.969  0.0604  3.7359  1.1238
 1428TIP3    H225776   1.843   1.304   1.983  0.5690 -1.6888 -0.6164
 1429TIP3   OH225777   2.387   6.190  14.777 -0.0356 -0.1914 -0.4768
 1429TIP3    H125778   2.315   6.221  14.723 -1.5733 -0.8472  1.1279
 1429TIP3    H225779   2.402   6.099  14.748  0.4922  0.0827 -1.1108
 1430TIP3   OH225780   0.516   0.881   3.660 -0.3017 -0.4968  0.1940
 1430TIP3    H125781   0.444   0.907   3.718 -0.5634  2.4180 -1.2699
 1430TIP3    H225782   0.594   0.918   3.701 -0.4482  1.3105 -1.0560
 1431TIP3   OH225783   5.110   3.259  14.172 -0.2651  0.0856  0.0929
 1431TIP3    H125784   5.171   3.288  14.239  1.1874 -2.6451  0.0794
 1431TIP3    H225785   5.080   3.173  14.202 -3.2293  0.7775 -0.5157
 1432TIP3   OH225786   5.712   6.247  15.627 -0.1326  0.5666  0.0970
 1432TIP3    H125787   5.719   6.238  15.532  0.0859  1.1919  0.0550
 1432TIP3    H225788   5.725   6.158  15.660  3.3571  0.8525 -0.2228
 1433TIP3   OH225789   0.161   0.889  13.571 -0.1152  0.1946 -0.7094
 1433TIP3    H125790   0.252   0.872  13.548  0.3915  0.6943  0.8147
 1433TIP3    H225791   0.122   0.925  13.491  0.0282 -3.3050 -2.5403
 1434TIP3   OH225792   1.982   3.494   2.106  0.0608  0.1937 -0.9455
 1434TIP3    H125793   1.931   3.491   2.025 -1.2493 -0.8955 -0.1332
 1434TIP3    H225794   1.925   3.540   2.168 -0.0111 -1.1148  0.0052
 1435TIP3   OH225795   0.543   4.595   2.569 -0.4618 -0.4586  0.6870
 1435TIP3    H125796   0.514   4.685   2.560 -0.2105 -0.4720 -0.5062
 1435TIP3    H225797   0.603   4.596   2.643 -1.8408 -0.0247  1.8521
 1436TIP3   OH225798   1.346   4.523  14.491  0.0274 -0.0643  0.4353
 1436TIP3    H125799   1.436   4.499  14.514 -0.0090  1.7462  2.9031
 1436TIP3    H225800   1.292   4.455  14.530  0.2448  0.0519  0.9484
 1437TIP3   OH225801   6.180   5.395   6.741  0.3096  0.0056 -0.1355
 1437TIP3    H125802   6.098   5.357   6.709  0.7897 -1.3965  0.2005
 1437TIP3    H225803   6.248   5.353   6.688  0.8737  0.2579  0.3704
 1438TIP3   OH225804   5.855   4.614   1.253  0.2570  0.3361  0.4401
 1438TIP3    H125805   5.774   4.665   1.260  1.1227  2.1768 -1.7457
 1438TIP3    H225806   5.826   4.524   1.239 -1.3913  0.8131  0.5731
 1439TIP3   OH225807   3.231   5.106  12.181  0.2554 -0.1663  0.0359
 1439TIP3    H125808   3.279   5.188  12.191 -0.3887  0.7985 -3.3655
 1439TIP3    H225809   3.293   5.038  12.207  2.0486  1.2426 -0.3462
 1440TIP3   OH225810   6.585   1.911   5.636  0.3705 -0.2099 -0.5128
 1440TIP3    H125811   6.505   1.951   5.669  1.0504  0.0311  0.9247
 1440TIP3    H225812   6.591   1.941   5.545  0.3122  2.1968  0.1987
 1441TIP3   OH225813   1.666   1.914  14.573  0.2074  0.0243  0.4923
 1441TIP3    H125814   1.638   1.990  14.624  0.8730  0.1044  0.7493
 1441TIP3    H225815   1.730   1.869  14.629 -2.0612 -2.2124  1.4822
 1442TIP3   OH225816   4.040   4.401  15.466  0.2013  0.4927 -0.2984
 1442TIP3    H125817   4.043   4.386  15.560 -0.6979  0.5643 -0.2516
 1442TIP3    H225818   4.126   4.372  15.434 -0.2555 -1.5387  0.2410
 1443TIP3   OH225819   6.133   6.278  11.058  0.1698  0.4401 -0.2020
 1443TIP3    H125820   6.111   6.228  10.980  1.0078  1.3625 -1.0562
 1443TIP3    H225821   6.228   6.271  11.066  0.0942  0.3105  0.7839
 1444TIP3   OH225822   3.811   4.976  16.509 -0.0101  0.3593  0.4079
 1444TIP3    H125823   3.807   4.956  16.415 -1.8926 -2.9019  1.0219
 1444TIP3    H225824   3.900   4.952  16.534  0.0800 -0.1094 -0.3119
 1445TIP3   OH225825   0.210   3.547   4.430  0.5743 -0.4051  0.1447
 1445TIP3    H125826   0.187   3.457   4.452  0.5625 -0.5876 -0.5820
 1445TIP3    H225827   0.300   3.542   4.398  0.2006 -0.3384 -0.9499
 1446TIP3   OH225828   1.400   3.411  13.186  0.3474 -0.3093 -0.7136
 1446TIP3    H125829   1.350   3.484  13.222  1.9944  0.3679  0.3083
 1446TIP3    H225830   1.422   3.438  13.097 -1.5925 -0.9028 -1.4299
 1447TIP3   OH225831   0.635   1.532   6.084 -0.2501 -0.2093 -0.4941
 1447TIP3    H125832   0.569   1.585   6.129  2.4504  0.5657  3.0494
 1447TIP3    H225833   0.638   1.450   6.133 -1.5467 -2.1318 -3.4108
 1448TIP3   OH225834   0.017   5.539  11.152  0.0506 -0.0955 -0.5037
 1448TIP3    H125835  -0.075   5.565  11.153  0.4490  1.4953 -1.5817
 1448TIP3    H225836   0.021   5.470  11.086 -0.4316 -0.5186 -0.1060
 1449TIP3   OH225837   3.593   0.505   2.633  0.0499 -0.1234  0.3403
 1449TIP3    H125838   3.552   0.529   2.550  0.0384  1.3701  0.7530
 1449TIP3    H225839   3.529   0.531   2.700  0.2902 -0.8099  0.8414
 1450TIP3   OH225840   5.701   6.800  15.149  0.0131  0.0579  0.0458
 1450TIP3    H125841   5.685   6.713  15.112 -0.7556  0.0990  0.2594
 1450TIP3    H225842   5.613   6.835  15.165  0.0427  2.6673 -4.0494
 1451TIP3   OH225843   4.939   3.590   2.770  0.4774  0.3146  0.2083
 1451TIP3    H125844   4.921   3.500   2.743  1.2227 -0.1016  1.0292
 1451TIP3    H225845   4.895   3.599   2.855 -0.0191  0.8946 -0.1029
 1452TIP3   OH225846   0.992   0.689  13.236  0.2182  0.0067 -0.1234
 1452TIP3    H125847   0.928   0.636  13.284  0.8325  0.0610  0.7622
 1452TIP3    H225848   0.968   0.676  13.144 -0.8486 -0.2534  0.1735
 1453TIP3   OH225849   2.106   1.372  11.048 -0.4958 -0.0290 -0.1004
 1453TIP3    H125850   2.193   1.372  11.008 -1.2577  1.5106 -1.9281
 1453TIP3    H225851   2.061   1.298  11.009 -0.9836  1.0159 -1.5856
 1454TIP3   OH225852   1.896   6.713   2.702  0.1813 -0.1803 -0.5934
 1454TIP3    H125853   1.942   6.634   2.730 -1.7056 -0.5717  1.7834
 1454TIP3    H225854   1.807   6.683   2.682 -0.7288  1.3373  0.8913
 1455TIP3   OH225855   2.359   4.984   5.031 -0.2135 -0.2807  0.1180
 1455TIP3    H125856   2.324   4.977   5.120 -1.4154 -1.8281 -0.4415
 1455TIP3    H225857   2.306   5.053   4.990 -0.7303 -0.6716  0.1215
 1456TIP3   OH225858   3.421   0.622   2.803 -0.3471 -0.2161 -0.4255
 1456TIP3    H125859   3.406   0.716   2.799  0.5420 -0.0539 -0.2528
 1456TIP3    H225860   3.392   0.597   2.891 -1.5555 -0.2956 -0.8377
 1457TIP3   OH225861   1.444   6.499   4.865  0.2048  0.2785 -0.0011
 1457TIP3    H125862   1.487   6.415   4.852 -0.2340 -0.1819  1.4077
 1457TIP3    H225863   1.351   6.478   4.873 -0.0241  1.0066 -0.6286
 1458TIP3   OH225864   2.636   3.135   4.317  0.5181 -0.5333 -0.4520
 1458TIP3    H125865   2.599   3.070   4.377  1.7397 -0.8600 -0.0133
 1458TIP3    H225866   2.565   3.195   4.299 -0.2164 -1.1417  0.3494
 1459TIP3   OH225867   4.852   3.294   5.670  0.4731  0.4891  0.7315
 1459TIP3    H125868   4.868   3.280   5.577 -1.7421  0.3882  0.3145
 1459TIP3    H225869   4.878   3.384   5.686 -0.1008  0.8339 -0.2337
 1460TIP3   OH225870   3.518   6.600   5.070  0.3844 -0.6289  0.9402
 1460TIP3    H125871   3.460   6.675   5.061  1.1713 -0.0758  0.3007
 1460TIP3    H225872   3.482   6.534   5.011  0.8074 -0.0200 -0.0216
 1461TIP3   OH225873   1.072   4.500  16.212  0.1646 -0.3002 -0.6085
 1461TIP3    H125874   1.067   4.458  16.298 -0.1546  2.3328  0.7669
 1461TIP3    H225875   1.166   4.509  16.195  0.2518 -1.7967 -1.1202
 1462TIP3   OH225876   2.760   0.756   6.183 -0.1007  0.4458 -0.1547
 1462TIP3    H125877   2.732   0.672   6.145 -0.1131 -0.1769  1.1658
 1462TIP3    H225878   2.765   0.816   6.109 -2.1977 -0.1584 -0.8614
 1463TIP3   OH225879   3.163   3.315   2.884 -0.1286 -0.8115 -0.5448
 1463TIP3    H125880   3.228   3.311   2.954  0.8940 -1.6004 -1.5185
 1463TIP3    H225881   3.103   3.385   2.912  0.2231 -1.1217  1.1241
 1464TIP3   OH225882   5.968   5.225   1.861  0.3374  0.3149  0.0721
 1464TIP3    H125883   5.895   5.209   1.921  0.6136  0.2047  0.3783
 1464TIP3    H225884   5.935   5.195   1.776  0.7550 -1.7349  0.5778
 1465TIP3   OH225885   2.664   1.380   2.515  0.2770  0.7206  1.0577
 1465TIP3    H125886   2.607   1.315   2.556 -0.5277 -0.3956 -1.6038
 1465TIP3    H225887   2.735   1.328   2.477  0.5047  1.5660  0.3007
 1466TIP3   OH225888   0.848   0.909  14.669 -0.0730 -0.2423 -0.3265
 1466TIP3    H125889   0.768   0.857  14.661 -0.8456  0.8648  0.0430
 1466TIP3    H225890   0.841   0.953  14.753  1.8631 -1.6178  0.6453
 1467TIP3   OH225891   0.254   5.663  13.740  0.5680 -0.1892 -0.2058
 1467TIP3    H125892   0.294   5.729  13.797 -1.0860 -0.5631  1.4805
 1467TIP3    H225893   0.270   5.580  13.785 -0.7205 -0.5050 -0.2874
 1468TIP3   OH225894   4.892   2.442  13.894 -0.4137  0.7029 -0.1138
 1468TIP3    H125895   4.821   2.488  13.850 -0.2883  0.6428 -0.3788
 1468TIP3    H225896   4.884   2.351  13.864  0.5851  0.9531 -1.1900
 1469TIP3   OH225897   1.310   1.734   2.791 -0.6146  0.3178 -0.1381
 1469TIP3    H125898   1.290   1.801   2.726 -2.7110  1.0259  1.1610
 1469TIP3    H225899   1.239   1.671   2.784  1.4206 -2.0177 -1.4860
 1470TIP3   OH225900   5.327   3.239   5.260  0.8438  0.2834 -0.5556
 1470TIP3    H125901   5.286   3.288   5.189  0.9049  0.8430 -0.2089
 1470TIP3    H225902   5.421   3.242   5.240  0.8113 -0.0796 -0.7734
 1471TIP3   OH225903   3.064   3.479  11.789  0.2580  0.1824 -0.1247
 1471TIP3    H125904   3.059   3.390  11.824  0.3188  0.5035  0.7260
 1471TIP3    H225905   3.002   3.480  11.716  0.1497 -0.5101 -0.0473
 1472TIP3   OH225906   1.294   1.578  11.282  0.0907  0.5245 -0.2065
 1472TIP3    H125907   1.344   1.530  11.216  0.4924  2.4808 -1.4029
 1472TIP3    H225908   1.261   1.656  11.236 -2.2369  0.4163  1.1232
 1473TIP3   OH225909   1.220   3.103  16.083  0.5769 -0.0987 -0.1076
 1473TIP3    H125910   1.182   3.103  16.171 -1.4806 -0.8219 -0.9259
 1473TIP3    H225911   1.200   3.190  16.048  0.4112 -0.1913 -0.2443
 1474TIP3   OH225912   2.957   6.689  14.352  0.4022 -0.3887  0.1679
 1474TIP3    H125913   2.978   6.597  14.342 -0.3952 -0.5927  0.3091
 1474TIP3    H225914   2.865   6.690  14.379  0.3002  0.4545 -0.1679
 1475TIP3   OH225915   6.325   6.547   5.606  0.2451  0.3604 -0.4106
 1475TIP3    H125916   6.262   6.548   5.679 -1.2557 -0.4670 -1.6351
 1475TIP3    H225917   6.399   6.496   5.639 -1.2599 -1.7120 -0.0833
 1476TIP3   OH225918   0.658   2.212  15.939 -0.2930  0.2918  0.5233
 1476TIP3    H125919   0.751   2.238  15.940 -0.1647 -0.1152  1.9785
 1476TIP3    H225920   0.656   2.132  15.887  0.3122 -0.1264  1.1210
 1477TIP3   OH225921   0.197   5.219  13.256 -0.2519 -0.2703  0.6795
 1477TIP3    H125922   0.293   5.215  13.255 -0.2650 -1.0472  1.7040
 1477TIP3    H225923   0.172   5.196  13.166  0.5237  0.3061  0.2984
 1478TIP3   OH225924   5.730   4.641  16.088  0.0575  0.0787 -0.0692
 1478TIP3    H125925   5.758   4.556  16.121  2.0506  0.8502  0.3549
 1478TIP3    H225926   5.636   4.644  16.106  0.3998 -0.9853  2.2431
 1479TIP3   OH225927   4.213   3.041  15.838 -0.7882 -0.2264 -0.1940
 1479TIP3    H125928   4.270   2.995  15.901 -0.0750  0.8302 -0.0275
 1479TIP3    H225929   4.125   3.013  15.860 -0.3605 -1.6987 -0.2689
 1480TIP3   OH225930   1.792   0.718  12.602  0.2554  0.5296 -0.3226
 1480TIP3    H125931   1.806   0.624  12.614 -0.1051  0.5630  0.3937
 1480TIP3    H225932   1.860   0.744  12.540  0.0632 -0.2904 -0.9071
 1481TIP3   OH225933   0.327   6.094   0.735 -0.1418  0.0965  0.5829
 1481TIP3    H125934   0.388   6.094   0.808  1.5751  0.9846 -0.7613
 1481TIP3    H225935   0.319   6.003   0.709  1.1335  0.0214  0.4053
 1482TIP3   OH225936   6.015   2.082   3.286 -0.5951 -0.1117  0.0914
 1482TIP3    H125937   6.003   2.177   3.291 -0.9831  0.0821 -2.8187
 1482TIP3    H225938   5.926   2.047   3.286 -0.4663 -0.4454  0.7177
 1483TIP3   OH225939   4.901   6.059   6.765  0.4199 -0.5932 -0.1618
 1483TIP3    H125940   4.934   6.140   6.803  0.0294 -0.4990 -0.0194
 1483TIP3    H225941   4.866   6.010   6.839  1.9832 -1.5516 -0.0186
 1484TIP3   OH225942   2.654   5.877   6.103 -0.1264  0.6587  0.1765
 1484TIP3    H125943   2.692   5.955   6.061  0.1439  0.2384 -0.3829
 1484TIP3    H225944   2.562   5.877   6.074 -0.0363  0.5787 -0.1160
 1485TIP3   OH225945   3.009   5.826  12.455  0.5527 -0.2530  0.3619
 1485TIP3    H125946   2.953   5.748  12.455  0.0489  0.0938  1.2974
 1485TIP3    H225947   3.082   5.802  12.512 -0.7020  0.6906  2.4587
 1486TIP3   OH225948   3.563   0.581  16.647 -0.4621 -0.1314 -0.1927
 1486TIP3    H125949   3.472   0.552  16.647 -0.0840 -1.3573 -0.1313
 1486TIP3    H225950   3.573   0.629  16.565 -1.7044  1.8481  0.7520
 1487TIP3   OH225951   5.604   2.024   4.927 -0.5165  0.4904  0.7596
 1487TIP3    H125952   5.511   2.002   4.917 -0.3942  0.3914 -0.3419
 1487TIP3    H225953   5.647   1.978   4.855  0.5138 -0.1601  1.7612
 1488TIP3   OH225954   6.383   0.974   3.400 -0.2813  0.7282  0.9446
 1488TIP3    H125955   6.417   1.063   3.393  1.9761 -0.1653 -1.7961
 1488TIP3    H225956   6.353   0.953   3.311 -1.0952 -1.1122  1.6011
 1489TIP3   OH225957   5.169   1.413  10.956 -0.0095 -0.3102 -0.2993
 1489TIP3    H125958   5.191   1.389  10.866  0.1662 -1.7649  0.1055
 1489TIP3    H225959   5.241   1.471  10.983  0.4170 -0.5908 -0.7946
 1490TIP3   OH225960   0.185   0.790   4.986 -0.4899  0.4500  0.4449
 1490TIP3    H125961   0.149   0.857   5.044 -1.6469 -0.7701  1.2179
 1490TIP3    H225962   0.113   0.727   4.976 -0.5437  0.8682 -2.8008
 1491TIP3   OH225963   5.794   5.970  11.981  0.7460 -0.7180  0.0021
 1491TIP3    H125964   5.761   5.919  12.054 -0.6992  0.5189  0.2629
 1491TIP3    H225965   5.761   5.924  11.903 -0.5477 -0.2341  0.2324
 1492TIP3   OH225966   5.364   6.053  11.740  0.0642 -0.1215  0.4081
 1492TIP3    H125967   5.274   6.049  11.773  0.3920 -1.3954  1.2226
 1492TIP3    H225968   5.376   5.969  11.696  1.8283 -1.3619  2.9944
 1493TIP3   OH225969   0.309   6.610  16.782  0.4031 -0.0911 -0.1735
 1493TIP3    H125970   0.400   6.625  16.755  0.5816 -0.9080 -0.0459
 1493TIP3    H225971   0.300   6.515  16.784 -0.4495 -0.0166 -0.1528
 1494TIP3   OH225972   2.225   3.949   3.550 -0.4494  0.4210  0.4581
 1494TIP3    H125973   2.194   3.960   3.639  1.5697  0.7374  1.1738
 1494TIP3    H225974   2.162   3.890   3.510  0.2155 -2.2543  3.0315
 1495TIP3   OH225975   3.595   2.474  15.128  0.3872  0.1017  0.4260
 1495TIP3    H125976   3.650   2.441  15.199  0.4856 -1.4759 -0.3559
 1495TIP3    H225977   3.508   2.482  15.167  0.5582 -0.2140  0.8822
 1496TIP3   OH225978   0.703   6.562  12.316 -0.2440 -0.1328 -0.1655
 1496TIP3    H125979   0.784   6.511  12.305  0.3620  0.8537 -0.5224
 1496TIP3    H225980   0.716   6.609  12.398 -0.5443 -0.1209 -0.1269
 1497TIP3   OH225981   5.902   5.251  14.645 -0.7013 -0.1072  0.3358
 1497TIP3    H125982   5.872   5.342  14.649 -2.0505 -0.4884 -0.4068
 1497TIP3    H225983   5.958   5.241  14.722  0.8870  1.8098 -0.4952
 1498TIP3   OH225984   2.816   5.918  17.058 -0.1587 -0.4488 -0.3523
 1498TIP3    H125985   2.836   5.927  16.965  1.3824 -1.2749 -0.1460
 1498TIP3    H225986   2.901   5.927  17.102 -0.3050 -3.1850  0.7070
 1499TIP3   OH225987   0.312   6.503  13.375  0.0763 -0.7339 -0.2488
 1499TIP3    H125988   0.398   6.464  13.390 -0.0661 -0.8331  0.3225
 1499TIP3    H225989   0.325   6.596  13.389 -0.0075 -0.8010  0.2871
 1500TIP3   OH225990   5.368   3.528  16.822  0.6855  0.1783  0.0161
 1500TIP3    H125991   5.447   3.582  16.822  1.3660 -0.7974 -0.6864
 1500TIP3    H225992   5.304   3.579  16.872  2.3106  0.1813  2.2487
 1501TIP3   OH225993   0.310   0.703   1.582 -0.5814 -0.3925  0.0782
 1501TIP3    H125994   0.312   0.711   1.487  1.3197 -0.6179  0.0451
 1501TIP3    H225995   0.246   0.767   1.611  0.6329  1.5267 -1.2267
 1502TIP3   OH225996   3.725   1.347  13.947 -0.5086  0.1474 -0.4591
 1502TIP3    H125997   3.792   1.301  13.896  1.7512  1.6612  0.9040
 1502TIP3    H225998   3.708   1.427  13.898 -1.8400 -0.5231 -1.1164
 1503TIP3   OH225999   3.626   5.745   2.563  0.1026  0.1451  0.6482
 1503TIP3    H126000   3.671   5.816   2.518  0.1636 -0.4489 -0.2563
 1503TIP3    H226001   3.667   5.665   2.529 -0.9656 -0.3745  0.5395
 1504TIP3   OH226002   4.459   2.446   1.896 -0.6389  0.2763  0.2990
 1504TIP3    H126003   4.473   2.379   1.829  1.6112 -1.2953  2.1844
 1504TIP3    H226004   4.396   2.408   1.956  0.3054 -0.0309  1.1305
 1505TIP3   OH226005   3.799   6.139   4.386  0.3331 -0.4821 -0.0953
 1505TIP3    H126006   3.860   6.211   4.371  1.8319 -1.6167  0.2501
 1505TIP3    H226007   3.842   6.063   4.347 -1.8470 -0.9861 -1.7005
 1506TIP3   OH226008   6.114   3.354  16.943  0.0789 -0.0864  0.7503
 1506TIP3    H126009   6.205   3.336  16.968 -0.0139 -2.4801 -0.4086
 1506TIP3    H226010   6.064   3.280  16.976 -1.3651  0.7864  0.6396
 1507TIP3   OH226011   2.615   4.398   0.126  0.2278 -0.2277 -0.1092
 1507TIP3    H126012   2.663   4.420   0.206  1.3803 -2.8211 -0.0074
 1507TIP3    H226013   2.652   4.456   0.059  1.0609  0.1808  0.6869
 1508TIP3   OH226014   6.410   6.714  14.245 -0.2900 -0.4087  0.5086
 1508TIP3    H126015   6.398   6.780  14.314 -0.2048 -0.2066  0.3328
 1508TIP3    H226016   6.321   6.691  14.219 -0.3321  0.4844 -0.2198
 1509TIP3   OH226017   6.420   1.810  15.421  0.2039  0.2208 -0.3336
 1509TIP3    H126018   6.387   1.881  15.476  0.2463 -0.2280  0.2773
 1509TIP3    H226019   6.356   1.740  15.431  0.1710  0.1581 -0.9236
 1510TIP3   OH226020   1.542   2.938  11.802  0.3610 -0.3223 -0.1432
 1510TIP3    H126021   1.482   2.931  11.876  0.9191 -0.9009  0.2585
 1510TIP3    H226022   1.487   2.970  11.730 -0.2646 -0.1132  0.4133
 1511TIP3   OH226023   2.320   3.478   4.115 -0.0479 -0.1382  0.6452
 1511TIP3    H126024   2.341   3.530   4.193  0.2972 -1.8105  1.7332
 1511TIP3    H226025   2.401   3.432   4.094 -0.4835 -0.6660  0.0701
 1512TIP3   OH226026   3.335   2.137   3.184 -0.7848  0.1522 -0.3529
 1512TIP3    H126027   3.310   2.229   3.191 -0.0595  0.5725 -2.6324
 1512TIP3    H226028   3.421   2.138   3.143 -0.4939 -1.5441  0.1148
 1513TIP3   OH226029   4.418   6.319   4.336 -0.0035 -0.5067  0.4836
 1513TIP3    H126030   4.411   6.382   4.408  0.2792 -0.7442  0.7165
 1513TIP3    H226031   4.472   6.248   4.370 -0.4275 -0.9465  0.2680
 1514TIP3   OH226032   4.085   2.088  16.228 -0.1275  0.3850  0.5049
 1514TIP3    H126033   4.031   2.009  16.232 -2.3219  1.7819  0.1339
 1514TIP3    H226034   4.164   2.061  16.179 -2.1680 -0.8684 -2.3909
 1515TIP3   OH226035   0.291   6.392  12.318 -0.0310 -0.1002  0.1282
 1515TIP3    H126036   0.372   6.346  12.295  1.0888  0.5539  2.4809
 1515TIP3    H226037   0.251   6.337  12.385 -1.6370 -0.4442 -1.0411
 1516TIP3   OH226038   2.948   4.646   5.379  0.4661  0.7739 -0.2715
 1516TIP3    H126039   2.912   4.557   5.380  2.1091  0.0840 -0.4206
 1516TIP3    H226040   2.895   4.693   5.314 -1.5213  0.4157  0.9953
 1517TIP3   OH226041   4.497   2.223  10.564  0.9252 -0.2058 -0.2933
 1517TIP3    H126042   4.445   2.299  10.589 -0.1018  0.1674 -3.1498
 1517TIP3    H226043   4.434   2.150  10.565  1.5453 -0.7489  0.9509
 1518TIP3   OH226044   0.499   2.218   2.245  0.1305  0.2802  0.5043
 1518TIP3    H126045   0.455   2.135   2.266  0.1166  0.1833  0.0976
 1518TIP3    H226046   0.446   2.284   2.290 -1.1965  0.2988 -0.9738
 1519TIP3   OH226047   3.659   0.195   1.092  0.3249 -0.3342  0.9721
 1519TIP3    H126048   3.639   0.142   1.015 -0.1013  2.4989 -1.0342
 1519TIP3    H226049   3.741   0.158   1.126  0.6744 -1.5307 -1.0043
 1520TIP3   OH226050   3.977   3.991   3.964  0.3186  0.0171 -0.0517
 1520TIP3    H126051   4.011   3.905   3.989  1.9450  0.2714 -1.1908
 1520TIP3    H226052   3.959   4.035   4.047 -0.5395 -1.4055  0.5433
 1521TIP3   OH226053   3.694   4.536   2.536 -0.6525  0.4614 -0.0101
 1521TIP3    H126054   3.698   4.574   2.448 -0.9035  0.4764 -0.0153
 1521TIP3    H226055   3.619   4.476   2.534  0.7100 -1.3043 -0.4937
 1522TIP3   OH226056   2.565   2.178   5.466  0.4436 -0.4076 -0.1122
 1522TIP3    H126057   2.597   2.142   5.383 -0.2531  0.5709 -0.8323
 1522TIP3    H226058   2.513   2.255   5.440 -1.2171 -1.0633  1.0994
 1523TIP3   OH226059   4.907   5.148   2.934 -0.0728 -0.2467 -0.5224
 1523TIP3    H126060   4.972   5.213   2.958 -1.0652  0.7892 -0.5615
 1523TIP3    H226061   4.836   5.160   2.998 -0.9408 -0.2465 -1.4631
 1524TIP3   OH226062   2.095   1.108   3.929  0.3064 -0.0973 -0.0144
 1524TIP3    H126063   2.046   1.186   3.954  2.0928  1.8660 -2.1331
 1524TIP3    H226064   2.047   1.035   3.968 -2.3601  1.9151  0.7247
 1525TIP3   OH226065   0.796   0.310   1.191  0.4273 -0.4811 -0.0588
 1525TIP3    H126066   0.748   0.265   1.261  0.5150 -1.3640 -0.5464
 1525TIP3    H226067   0.874   0.344   1.233  0.2645 -0.6295  0.3643
 1526TIP3   OH226068   1.078   3.411  10.568  0.3368 -0.0044 -0.0445
 1526TIP3    H126069   0.989   3.438  10.546  0.4298  0.6297  0.3511
 1526TIP3    H226070   1.074   3.315  10.570 -0.4756  0.0311  0.5484
 1527TIP3   OH226071   1.250   5.908   4.680 -0.2530  0.1661  0.2491
 1527TIP3    H126072   1.250   5.877   4.770 -2.5975 -1.4824 -0.2177
 1527TIP3    H226073   1.184   5.978   4.678 -0.2560  0.1572 -0.1905
 1528TIP3   OH226074   4.997   1.131  12.080 -0.3741 -0.3306  0.0839
 1528TIP3    H126075   4.923   1.086  12.040 -0.9657  2.4416 -2.2872
 1528TIP3    H226076   4.985   1.118  12.174 -3.0808 -1.1531 -0.2848
 1529TIP3   OH226077   3.065   0.949  14.141  0.6681 -0.5124  0.2760
 1529TIP3    H126078   3.042   0.897  14.218  0.7050 -0.1741  0.5174
 1529TIP3    H226079   3.030   1.036  14.159  0.6782 -0.4316 -0.0894
 1530TIP3   OH226080   0.226   6.193  16.899  0.1521  0.5750  0.2931
 1530TIP3    H126081   0.154   6.255  16.917 -0.1943  0.3011 -0.1274
 1530TIP3    H226082   0.285   6.241  16.842  0.8425  1.1653  1.4726
 1531TIP3   OH226083   5.588   5.185   1.004 -0.2474 -0.0586 -0.0945
 1531TIP3    H126084   5.600   5.224   1.091 -0.4301 -0.7312  0.2429
 1531TIP3    H226085   5.612   5.254   0.943  0.5062  0.2135  0.4980
 1532TIP3   OH226086   4.173   1.696   2.407  0.4446 -0.1977 -0.2944
 1532TIP3    H126087   4.205   1.687   2.318  2.5617  1.2620  0.2705
 1532TIP3    H226088   4.195   1.612   2.449  0.4822 -0.4491 -0.8132
 1533TIP3   OH226089   6.269   6.027   6.381 -0.2367 -0.7972 -0.1267
 1533TIP3    H126090   6.363   6.027   6.362  0.3995 -1.7235  2.5232
 1533TIP3    H226091   6.239   5.940   6.354 -1.0746  0.3720 -3.5334
 1534TIP3   OH226092   3.009   5.000   1.659 -0.1953  0.3591  0.1002
 1534TIP3    H126093   3.004   4.911   1.695  2.6506  0.2778  0.5092
 1534TIP3    H226094   3.083   5.040   1.703 -0.0638  2.2164 -1.6589
 1535TIP3   OH226095   2.093   0.021   3.902 -0.3130  0.3447 -0.7616
 1535TIP3    H126096   2.003   0.023   3.935 -0.6141  0.2174 -1.5624
 1535TIP3    H226097   2.099   0.095   3.843  1.1783  2.5416  1.9021
 1536TIP3   OH226098   2.814   0.736  11.845  0.0476  0.4652  0.1850
 1536TIP3    H126099   2.737   0.731  11.902 -0.8466 -0.1427 -1.0323
 1536TIP3    H226100   2.887   0.704  11.899 -0.8420 -0.4509  0.8771
 1537TIP3   OH226101   0.295   5.285  16.896 -0.2198 -0.0197 -0.1129
 1537TIP3    H126102   0.363   5.225  16.866 -1.4737 -0.5096 -2.2016
 1537TIP3    H226103   0.222   5.229  16.922 -0.2214  0.5284  1.1607
 1538TIP3   OH226104   5.804   5.908   2.705  0.8217 -0.1524  0.0413
 1538TIP3    H126105   5.780   6.000   2.718  0.2640 -0.5298  1.9960
 1538TIP3    H226106   5.899   5.910   2.690  0.9187  0.7113  0.6743
 1539TIP3   OH226107   6.794   0.191  15.494 -0.4649 -0.1417  0.4046
 1539TIP3    H126108   6.703   0.166  15.513 -0.2360 -1.8693 -0.6165
 1539TIP3    H226109   6.847   0.123  15.535  0.2302 -0.8343 -1.5658
 1540TIP3   OH226110   6.762   4.698  12.616  0.0791 -0.6635  0.0784
 1540TIP3    H126111   6.698   4.673  12.683 -1.5651 -0.0884 -1.2010
 1540TIP3    H226112   6.755   4.629  12.549  2.6599 -1.9664  1.0154
 1541TIP3   OH226113   2.858   2.085  13.772 -0.1759 -0.2744  0.2105
 1541TIP3    H126114   2.817   2.144  13.709  0.1731 -0.4926 -0.2188
 1541TIP3    H226115   2.812   2.002  13.762 -1.6949  0.3018  1.8575
 1542TIP3   OH226116   4.433   3.936   2.570 -0.4531 -0.5449  0.3685
 1542TIP3    H126117   4.362   3.893   2.522 -0.6169 -0.9869  0.9987
 1542TIP3    H226118   4.510   3.880   2.554 -0.5304 -0.7462  0.7066
 1543TIP3   OH226119   1.766   0.376  13.467 -0.7510 -0.3165  0.4583
 1543TIP3    H126120   1.818   0.330  13.401 -0.1734 -0.4702  1.0156
 1543TIP3    H226121   1.685   0.326  13.473 -1.1817  0.1918 -0.7576
 1544TIP3   OH226122   1.441   3.582  17.109 -0.2837  0.0319  0.1363
 1544TIP3    H126123   1.515   3.634  17.139  0.2386 -0.9089  0.5282
 1544TIP3    H226124   1.370   3.645  17.097 -0.2411  0.6001  2.4617
 1545TIP3   OH226125   1.948   5.600   5.891 -0.4453  0.1037 -0.8516
 1545TIP3    H126126   1.963   5.528   5.829  4.1490  0.2608 -0.2754
 1545TIP3    H226127   2.002   5.672   5.859 -0.7007  1.4355  1.4307
 1546TIP3   OH226128   5.099   6.741  15.251 -0.0101 -0.0518 -0.4391
 1546TIP3    H126129   5.019   6.794  15.246 -1.4106 -2.0675 -0.3804
 1546TIP3    H226130   5.125   6.746  15.343 -0.1737  0.4659 -0.4182
 1547TIP3   OH226131   1.181   1.860   5.120  0.5717  0.4570  0.4900
 1547TIP3    H126132   1.144   1.778   5.088  1.2944 -0.8349  2.7118
 1547TIP3    H226133   1.110   1.924   5.111 -0.5628 -0.7966  0.2144
 1548TIP3   OH226134   3.000   1.246   2.822 -0.5213 -0.1873  0.2969
 1548TIP3    H126135   2.905   1.249   2.808 -0.5969 -2.8304 -0.1999
 1548TIP3    H226136   3.030   1.333   2.796 -2.5580  0.0535 -1.5994
 1549TIP3   OH226137   5.235   2.956   3.431  0.3844 -0.4346  0.2966
 1549TIP3    H126138   5.272   3.034   3.473  0.2630 -0.3229  0.1994
 1549TIP3    H226139   5.308   2.918   3.383  0.6504 -0.8640  1.0464
 1550TIP3   OH226140   2.083   4.611  11.264 -0.3301  0.3809  0.4348
 1550TIP3    H126141   2.137   4.585  11.190  0.3230 -0.3945  1.1561
 1550TIP3    H226142   2.042   4.693  11.237 -0.3269 -0.0346 -0.8763
 1551TIP3   OH226143   0.225   5.338   3.233 -0.5916  0.2745 -0.4521
 1551TIP3    H126144   0.234   5.254   3.189 -0.5303  0.7423 -1.3568
 1551TIP3    H226145   0.136   5.367   3.215 -0.2391  0.9596 -1.1952
 1552TIP3   OH226146   2.291   3.636   6.437  0.0438 -0.1676 -0.9883
 1552TIP3    H126147   2.345   3.573   6.485 -1.3574 -0.9705 -0.3984
 1552TIP3    H226148   2.299   3.609   6.345  0.4530 -0.4199 -0.8829
 1553TIP3   OH226149   0.904   3.902  14.694 -0.3126  0.3442  0.6224
 1553TIP3    H126150   0.871   3.841  14.628 -1.4340 -0.2058  1.6539
 1553TIP3    H226151   0.996   3.878  14.705 -0.3871 -0.2418  0.0318
 1554TIP3   OH226152   0.509   2.899   4.207 -0.0532  0.2960 -0.0354
 1554TIP3    H126153   0.561   2.820   4.194 -0.2480  0.0610  0.6128
 1554TIP3    H226154   0.545   2.962   4.144  0.7875  0.0281  0.1749
 1555TIP3   OH226155   4.099   4.825  14.815 -0.6588  0.0578  0.0093
 1555TIP3    H126156   4.028   4.885  14.837 -0.4989  0.5580 -0.8005
 1555TIP3    H226157   4.145   4.868  14.743  0.0710 -0.5688  0.0893
 1556TIP3   OH226158   6.376   6.310   4.117 -0.2783 -0.3354  0.4173
 1556TIP3    H126159   6.348   6.294   4.027  1.5061 -0.1369 -0.2182
 1556TIP3    H226160   6.426   6.232   4.141 -0.1804 -0.1008  0.9907
 1557TIP3   OH226161   3.724   5.996  15.088  0.1240  0.0243 -0.1803
 1557TIP3    H126162   3.647   5.989  15.031 -0.9070 -1.1510  1.2537
 1557TIP3    H226163   3.706   6.072  15.144 -0.3246 -0.6210  0.5748
 1558TIP3   OH226164   5.160   0.048  15.786  0.2898 -0.7373  0.4176
 1558TIP3    H126165   5.158   0.007  15.699 -0.9504 -1.8896  0.9599
 1558TIP3    H226166   5.071   0.080  15.799  0.8818  0.9454  0.5978
 1559TIP3   OH226167   0.152   0.980   3.008  0.1864 -0.3753  0.1764
 1559TIP3    H126168   0.092   1.004   3.078  0.1309 -0.3436  0.1183
 1559TIP3    H226169   0.126   0.891   2.984  0.8893 -0.7954  0.9175
 1560TIP3   OH226170   0.843   0.111   2.489  0.4188 -0.0981 -0.0700
 1560TIP3    H126171   0.831   0.204   2.508 -0.5526 -0.6087  2.0715
 1560TIP3    H226172   0.755   0.078   2.477  0.7078 -0.9244  0.0659
 1561TIP3   OH226173   2.184   0.329  16.172 -0.2468  0.4332  0.1055
 1561TIP3    H126174   2.271   0.365  16.158  0.0979 -0.5687 -0.4767
 1561TIP3    H226175   2.143   0.330  16.086 -0.3125 -0.3052  0.1142
 1562TIP3   OH226176   2.325   2.688   2.550 -0.1488 -0.2737 -0.4296
 1562TIP3    H126177   2.289   2.640   2.624  0.7452  0.2395  0.3639
 1562TIP3    H226178   2.350   2.773   2.586  1.6054 -0.5141 -0.9806
 1563TIP3   OH226179   4.374   5.308  14.315 -0.2259  0.4642 -0.6391
 1563TIP3    H126180   4.376   5.369  14.242 -0.5791 -2.5588 -3.4025
 1563TIP3    H226181   4.465   5.284  14.329 -0.2806 -0.1965 -1.3114
 1564TIP3   OH226182   1.634   1.200   2.043  0.4599 -0.1155  0.2985
 1564TIP3    H126183   1.573   1.151   2.097  1.8315 -1.5915  0.5914
 1564TIP3    H226184   1.606   1.183   1.953  0.3654 -0.7073  0.4351
 1565TIP3   OH226185   0.889   2.680   2.129 -0.4873  0.1136 -0.3814
 1565TIP3    H126186   0.800   2.710   2.116  0.4587  2.8617 -1.2858
 1565TIP3    H226187   0.931   2.691   2.043  0.6452 -1.5013 -0.0908
 1566TIP3   OH226188   5.564   2.506  11.089 -0.1015 -0.0449 -0.0494
 1566TIP3    H126189   5.617   2.466  11.021  1.0173  0.1151  0.6894
 1566TIP3    H226190   5.617   2.580  11.119 -0.3586 -0.3809  1.2885
 1567TIP3   OH226191   1.019   4.336  11.228 -0.0843 -0.1798  0.0950
 1567TIP3    H126192   1.033   4.422  11.188  0.1639 -0.3074 -0.0949
 1567TIP3    H226193   0.944   4.348  11.285 -1.0206 -0.2168 -1.0938
 1568TIP3   OH226194   2.607   1.931  13.671 -0.1822  0.4525  0.8169
 1568TIP3    H126195   2.581   1.851  13.716 -1.0894 -0.2500 -0.8488
 1568TIP3    H226196   2.532   1.991  13.683 -1.0884 -0.2619 -0.8994
 1569TIP3   OH226197   6.303   5.554   1.912  0.0716  0.7755  0.0743
 1569TIP3    H126198   6.217   5.513   1.916  0.8144 -0.7041  2.0692
 1569TIP3    H226199   6.349   5.522   1.989  3.3954 -0.6385 -2.2534
 1570TIP3   OH226200   3.421   2.866  14.240 -0.0318  0.0348 -0.1045
 1570TIP3    H126201   3.508   2.830  14.257 -0.1494 -0.4615 -0.5387
 1570TIP3    H226202   3.394   2.825  14.158 -0.1832  1.0698 -0.5943
 1571TIP3   OH226203   0.328   6.632   3.528  0.8368 -0.2168  0.5486
 1571TIP3    H126204   0.367   6.710   3.489  0.8945  0.3907  1.7608
 1571TIP3    H226205   0.245   6.663   3.565  0.9051 -0.7042  1.1171
 1572TIP3   OH226206   0.458   1.142   4.113  0.5664  0.0414 -0.1586
 1572TIP3    H126207   0.475   1.236   4.110 -2.2082  0.6808  0.8339
 1572TIP3    H226208   0.482   1.116   4.202 -1.0113  0.4346  0.4317
 1573TIP3   OH226209   3.991   4.103   5.455  0.1331 -0.1940  0.5683
 1573TIP3    H126210   4.032   4.017   5.454 -0.4513 -0.5522  2.5787
 1573TIP3    H226211   4.048   4.158   5.402  0.3227 -1.8713 -1.0680
 1574TIP3   OH226212   1.445   3.475   3.893 -0.0553  0.0965 -0.3724
 1574TIP3    H126213   1.532   3.490   3.930 -1.2779  0.5213  2.6706
 1574TIP3    H226214   1.459   3.416   3.820  2.6545 -0.9682  0.8923
 1575TIP3   OH226215   2.168   5.396   0.827  0.2057  0.8319  0.2065
 1575TIP3    H126216   2.233   5.443   0.774  0.4131 -0.8556 -1.1350
 1575TIP3    H226217   2.115   5.465   0.867  1.8998  2.2259  0.1691
 1576TIP3   OH226218   0.504   4.697  11.666  0.0417 -0.1939 -0.7343
 1576TIP3    H126219   0.518   4.790  11.649 -0.3308 -0.0870 -0.4687
 1576TIP3    H226220   0.574   4.673  11.727 -0.1347  0.0224 -0.4461
 1577TIP3   OH226221   1.906   5.201   1.283  0.0215 -0.1135  0.5368
 1577TIP3    H126222   1.853   5.214   1.362 -2.7868 -1.3016 -1.0120
 1577TIP3    H226223   1.901   5.107   1.267  1.0874  0.0298 -0.7205
 1578TIP3   OH226224   1.126   2.769   2.441  0.0865 -0.8555  0.0638
 1578TIP3    H126225   1.099   2.850   2.398 -1.1118 -1.9641 -1.3852
 1578TIP3    H226226   1.081   2.769   2.525 -0.2560 -0.2384 -0.1179
 1579TIP3   OH226227   1.934   4.297  10.886  0.4683 -0.1493  0.0263
 1579TIP3    H126228   1.924   4.280  10.979  1.7056  0.0043  0.2078
 1579TIP3    H226229   1.907   4.215  10.844  0.8214 -0.5527  0.5734
 1580TIP3   OH226230   4.335   4.085  14.414  0.4803  0.0982 -0.1511
 1580TIP3    H126231   4.359   4.067  14.323  1.3874  1.1423 -0.1396
 1580TIP3    H226232   4.404   4.143  14.446 -0.1826  0.2758  1.0132
 1581TIP3   OH226233   1.734   2.752   2.116 -0.5958  0.1544  0.5863
 1581TIP3    H126234   1.733   2.738   2.210 -0.4331  0.6318  0.6603
 1581TIP3    H226235   1.809   2.810   2.101 -0.9995  0.5953  0.2349
 1582TIP3   OH226236   0.587   4.510  12.068  0.0599 -0.1077  0.4224
 1582TIP3    H126237   0.626   4.547  12.147  0.9080  0.8787 -0.4195
 1582TIP3    H226238   0.619   4.566  11.997  0.8576 -2.0697 -0.8434
 1583TIP3   OH226239   6.342   4.777  11.382  0.1547 -0.5804 -0.9072
 1583TIP3    H126240   6.317   4.811  11.296  1.3873  0.2353 -0.9707
 1583TIP3    H226241   6.429   4.813  11.397  0.9919 -2.6536 -0.3780
 1584TIP3   OH226242   5.535   1.130   1.812 -0.1121  0.1026 -0.7583
 1584TIP3    H126243   5.569   1.151   1.725 -2.8617  0.7322 -1.7668
 1584TIP3    H226244   5.520   1.035   1.810 -1.6008  0.3226 -1.5863
 1585TIP3   OH226245   2.271   4.526   5.012  0.2809 -0.2062 -0.4323
 1585TIP3    H126246   2.177   4.534   5.032  0.3205  0.9154 -0.6449
 1585TIP3    H226247   2.297   4.613   4.984  1.4516 -0.4535 -0.1672
 1586TIP3   OH226248   5.323   1.790  11.250  0.1288  0.2593 -0.6164
 1586TIP3    H126249   5.412   1.824  11.258  0.0734  0.6913 -1.6906
 1586TIP3    H226250   5.299   1.767  11.339  1.3630  0.0087 -0.3224
 1587TIP3   OH226251   1.227   5.257  15.947 -0.4525  0.2106 -0.1440
 1587TIP3    H126252   1.194   5.295  15.866 -1.7249  0.9344  0.6769
 1587TIP3    H226253   1.178   5.175  15.957  2.2718 -1.8107 -1.9033
 1588TIP3   OH226254   2.788   1.502  13.279 -0.8189  0.0104 -0.4663
 1588TIP3    H126255   2.787   1.465  13.367 -1.5179  1.1717  0.0346
 1588TIP3    H226256   2.855   1.570  13.281  0.9029 -1.5560 -1.5608
 1589TIP3   OH226257   2.439   1.610  10.722 -0.3323 -0.5698 -0.0565
 1589TIP3    H126258   2.530   1.582  10.713  0.1992  0.9542  0.2360
 1589TIP3    H226259   2.402   1.603  10.634  0.2857 -0.4557 -0.3262
 1590TIP3   OH226260   3.067   6.249   4.694  0.1253  0.3884  0.2703
 1590TIP3    H126261   3.148   6.198   4.684  0.4563  1.2205 -1.9558
 1590TIP3    H226262   3.001   6.198   4.647 -0.9447 -0.6899  2.7402
 1591TIP3   OH226263   6.350   4.511  15.695  0.2205  0.2195  0.0114
 1591TIP3    H126264   6.312   4.424  15.710 -1.9232  1.2828  1.3810
 1591TIP3    H226265   6.297   4.569  15.750  0.1354  2.7105 -2.4784
 1592TIP3   OH226266   2.582   6.672   1.337 -0.2579 -0.1597 -0.0673
 1592TIP3    H126267   2.546   6.641   1.420 -0.1796 -1.3208 -0.4619
 1592TIP3    H226268   2.545   6.614   1.271 -0.5480  0.9338 -0.8994
 1593TIP3   OH226269   6.203   2.535  11.783 -0.0208 -0.0732  0.1441
 1593TIP3    H126270   6.262   2.593  11.735 -0.3070 -0.4111 -0.6310
 1593TIP3    H226271   6.223   2.448  11.749 -1.2380 -0.1503 -0.4365
 1594TIP3   OH226272   0.393   0.968  15.600 -0.2449 -0.4948 -0.3736
 1594TIP3    H126273   0.323   0.969  15.534 -0.1435  1.7730 -0.5380
 1594TIP3    H226274   0.457   0.906  15.567 -0.5052  0.1084 -2.1114
 1595TIP3   OH226275   5.035   6.762  13.838 -0.2527  0.3313 -0.2639
 1595TIP3    H126276   5.071   6.822  13.773 -0.3089  0.8005  0.1388
 1595TIP3    H226277   5.110   6.711  13.868 -0.2014  0.2139 -0.5908
 1596TIP3   OH226278   1.548   2.225  16.487  0.3056 -0.3271  0.2294
 1596TIP3    H126279   1.501   2.276  16.422 -0.2833 -1.6117 -0.3840
 1596TIP3    H226280   1.640   2.233  16.462  0.0518 -1.2034 -1.1011
 1597TIP3   OH226281   1.815   6.722   5.747 -0.3029  0.3367 -0.1520
 1597TIP3    H126282   1.895   6.695   5.793  0.6340  2.7703 -0.2078
 1597TIP3    H226283   1.744   6.679   5.795  0.8368  0.3937  1.6880
 1598TIP3   OH226284   6.348   1.468   0.071 -0.2382 -0.2311  0.1891
 1598TIP3    H126285   6.436   1.464   0.108 -0.1660 -1.6700 -0.0560
 1598TIP3    H226286   6.355   1.423  -0.013 -1.0794  0.1565 -0.0974
 1599TIP3   OH226287   0.442   4.271   5.691 -0.5386  0.4255 -0.0854
 1599TIP3    H126288   0.388   4.228   5.624  0.0265 -1.9466  0.8749
 1599TIP3    H226289   0.530   4.238   5.675 -0.5268 -0.9366  2.3045
 1600TIP3   OH226290   0.189   4.817   5.412  0.7598  0.1986 -0.0025
 1600TIP3    H126291   0.178   4.723   5.429 -0.2372  0.1701 -0.7464
 1600TIP3    H226292   0.168   4.827   5.319 -2.4772  1.6340  0.7656
 1601TIP3   OH226293   5.068   2.710  17.200  0.8583  0.0270 -0.6496
 1601TIP3    H126294   5.144   2.674  17.155  0.3391 -1.1876 -0.5884
 1601TIP3    H226295   5.034   2.777  17.141  1.3445 -0.1696 -1.1504
 1602TIP3   OH226296   1.940   0.497   0.980 -0.5349 -0.3266 -0.9366
 1602TIP3    H126297   1.893   0.580   0.984  0.0858  0.0006  1.3158
 1602TIP3    H226298   2.031   0.521   0.968 -0.2155 -0.5686  0.7462
 1603TIP3   OH226299   2.734   4.300   6.612 -0.4513  0.0584 -0.0151
 1603TIP3    H126300   2.752   4.389   6.643 -1.9743 -0.0860  1.3969
 1603TIP3    H226301   2.733   4.308   6.517 -1.4252  1.7626  0.0972
 1604TIP3   OH226302   3.930   0.996   1.833 -0.4766 -0.1543 -0.7770
 1604TIP3    H126303   3.986   0.919   1.821  1.1601  0.5749  1.6088
 1604TIP3    H226304   3.841   0.962   1.822  0.2695 -1.9589 -1.7420
 1605TIP3   OH226305   2.792   4.186   0.802 -1.1818 -0.2901 -0.4333
 1605TIP3    H126306   2.750   4.232   0.874 -1.1569  0.3989 -0.8427
 1605TIP3    H226307   2.869   4.144   0.841 -1.0060  0.3168 -0.1089
 1606TIP3   OH226308   6.121   1.022   5.937 -0.6148 -0.3696 -0.5573
 1606TIP3    H126309   6.200   1.006   5.886  0.2275  0.0123  0.6015
 1606TIP3    H226310   6.143   0.992   6.025 -0.4063  3.1562  0.7477
 1607TIP3   OH226311   3.167   2.832  17.232 -0.6853 -0.0157 -0.6862
 1607TIP3    H126312   3.199   2.750  17.271  0.3317  0.3817 -0.6679
 1607TIP3    H226313   3.098   2.804  17.172  0.9046 -1.1126 -2.1095
 1608TIP3   OH226314   5.515   5.529  14.816 -0.5665  0.4763 -0.0456
 1608TIP3    H126315   5.541   5.440  14.839 -0.9603 -0.1386 -1.7693
 1608TIP3    H226316   5.555   5.543  14.730 -0.4699  2.0000  0.2325
 1609TIP3   OH226317   4.450   1.763  11.978 -0.0966 -0.5318  0.3037
 1609TIP3    H126318   4.391   1.720  12.040  1.7068 -1.5881  1.4050
 1609TIP3    H226319   4.458   1.852  12.010  0.2210 -0.8604  1.1759
 1610TIP3   OH226320   3.858   2.209   0.072  0.5320  0.1726  0.2499
 1610TIP3    H126321   3.861   2.269  -0.003 -0.4594 -0.8579 -0.6454
 1610TIP3    H226322   3.946   2.212   0.108  1.3613 -0.1508 -1.6435
 1611TIP3   OH226323   4.371   4.215  15.809 -0.0498 -0.2166 -0.0043
 1611TIP3    H126324   4.278   4.193  15.821  0.1881 -1.6646 -0.6691
 1611TIP3    H226325   4.370   4.284  15.743 -0.9170  3.2913  3.2834
 1612TIP3   OH226326   1.402   1.664  11.941 -0.5072 -0.0409 -0.0480
 1612TIP3    H126327   1.491   1.694  11.957  0.0867 -2.4381  1.6087
 1612TIP3    H226328   1.347   1.725  11.990  0.2209  1.1404 -0.6606
 1613TIP3   OH226329   6.676   6.597  17.087  0.1456  0.0681  0.6685
 1613TIP3    H126330   6.660   6.690  17.073  0.0899  0.0897  0.8645
 1613TIP3    H226331   6.607   6.570  17.148  0.6466  0.0897  1.2654
 1614TIP3   OH226332   2.049   3.597  15.379  0.1482 -0.6402 -0.5485
 1614TIP3    H126333   1.964   3.624  15.344  0.1474 -1.4397 -1.1914
 1614TIP3    H226334   2.057   3.644  15.462 -0.7602 -0.2835 -0.6535
 1615TIP3   OH226335   5.174   1.638   5.286 -0.1779 -0.0571  0.6460
 1615TIP3    H126336   5.090   1.656   5.245  0.3665 -0.4521 -0.6844
 1615TIP3    H226337   5.201   1.722   5.323 -0.6049  0.3596  0.0334
 1616TIP3   OH226338   0.619   1.324   1.367 -0.0833  0.5181  0.4045
 1616TIP3    H126339   0.554   1.260   1.396 -0.2176  1.0975  1.4374
 1616TIP3    H226340   0.605   1.330   1.272 -0.1282 -0.8841  0.3009
 1617TIP3   OH226341   0.591   2.633   6.151  0.0090 -0.0297  0.4849
 1617TIP3    H126342   0.637   2.643   6.235 -0.4134  0.9164  0.6074
 1617TIP3    H226343   0.554   2.545   6.155  3.2594 -1.6000 -0.3453
 1618TIP3   OH226344   0.016   5.113  13.461  0.1609 -0.5276 -0.5491
 1618TIP3    H126345   0.062   5.083  13.382  0.9978 -1.5406  0.2908
 1618TIP3    H226346  -0.071   5.074  13.454 -1.4719  2.9982 -3.1506
 1619TIP3   OH226347   5.692   2.258  13.596  0.4533  0.0027 -0.3438
 1619TIP3    H126348   5.649   2.191  13.648  0.1251  0.2588 -0.2804
 1619TIP3    H226349   5.621   2.313  13.563  0.7196  0.3457 -0.3583
 1620TIP3   OH226350   5.535   0.613   3.964  0.1728  0.3761 -0.1145
 1620TIP3    H126351   5.485   0.695   3.962  0.2884  0.4579  0.2112
 1620TIP3    H226352   5.626   0.641   3.971  0.1284  0.2342  1.6334
 1621TIP3   OH226353   5.507   6.519  17.242  0.5507 -0.1052 -0.1865
 1621TIP3    H126354   5.461   6.448  17.286  0.0594 -1.2142 -2.3554
 1621TIP3    H226355   5.597   6.512  17.271  0.1769 -0.5552  0.8936
 1622TIP3   OH226356   2.507   5.837   4.310 -0.1061 -0.0871  0.7005
 1622TIP3    H126357   2.426   5.807   4.270 -0.6042  0.1355  1.5256
 1622TIP3    H226358   2.480   5.908   4.369  0.9908  1.8494 -0.9809
 1623TIP3   OH226359   3.525   2.657  12.348  0.3200 -0.3231  0.1553
 1623TIP3    H126360   3.534   2.723  12.416  0.8334 -1.7266  1.5190
 1623TIP3    H226361   3.468   2.697  12.282  1.5631  1.8817  0.3455
 1624TIP3   OH226362   2.634   3.786   3.614  0.3175  0.0092  0.5861
 1624TIP3    H126363   2.634   3.751   3.703 -2.0354  1.2503  1.1537
 1624TIP3    H226364   2.709   3.846   3.612  1.3987 -1.2432  1.1356
 1625TIP3   OH226365   1.859   6.121  16.077 -0.0583  0.6136  0.1086
 1625TIP3    H126366   1.826   6.154  16.160  1.9371  0.1755  1.1500
 1625TIP3    H226367   1.883   6.199  16.027 -1.2973  0.8771 -0.0973
 1626TIP3   OH226368   0.488   0.684  11.653  0.3762 -0.6271 -0.3269
 1626TIP3    H126369   0.445   0.633  11.722 -1.9497 -1.4433 -2.2291
 1626TIP3    H226370   0.554   0.626  11.616 -0.5092 -1.3570 -0.7952
 1627TIP3   OH226371   2.988   0.184  17.184 -0.1873 -0.1310  0.1685
 1627TIP3    H126372   3.018   0.274  17.193  1.2538 -0.5842  0.0852
 1627TIP3    H226373   2.968   0.174  17.091  0.6242 -0.1828 -0.0041
 1628TIP3   OH226374   1.032   5.889   3.270  0.5665 -0.0677 -0.6651
 1628TIP3    H126375   1.102   5.827   3.290  1.4285  1.4012  1.0805
 1628TIP3    H226376   0.989   5.904   3.354 -0.0234  1.2287 -1.1836
 1629TIP3   OH226377   1.681   5.015  13.589 -0.5266  0.4320 -0.0585
 1629TIP3    H126378   1.686   4.982  13.679  2.3794  0.1402 -0.2461
 1629TIP3    H226379   1.653   4.939  13.537 -1.3103  0.3608  0.4517
 1630TIP3   OH226380   4.885   1.422   2.134 -0.6199 -0.1023  0.0499
 1630TIP3    H126381   4.910   1.493   2.193  0.4307 -0.3415 -0.0808
 1630TIP3    H226382   4.966   1.372   2.121 -1.0483 -0.5930 -0.8500
 1631TIP3   OH226383   3.236   2.648  13.125 -0.2513  0.5576  0.4912
 1631TIP3    H126384   3.184   2.575  13.157  0.5145 -0.6840 -0.9408
 1631TIP3    H226385   3.275   2.616  13.044  3.4151  1.0769  1.8420
 1632TIP3   OH226386   3.605   1.410  15.176  0.0294  0.5454 -0.2669
 1632TIP3    H126387   3.563   1.470  15.114 -2.7209 -0.7744  0.1498
 1632TIP3    H226388   3.660   1.353  15.122 -1.5306  0.0720 -1.4127
 1633TIP3   OH226389   5.078   4.937  13.456  0.4739 -0.4934  0.0116
 1633TIP3    H126390   5.063   4.924  13.550  0.1286 -0.9253 -0.0975
 1633TIP3    H226391   5.144   5.006  13.452 -1.3352  1.3446  0.5182
 1634TIP3   OH226392   5.171   4.784   3.230 -0.0768  0.2392  0.1008
 1634TIP3    H126393   5.180   4.856   3.292 -1.6427  3.3570 -2.9258
 1634TIP3    H226394   5.085   4.746   3.249  0.0834  0.1790  0.7250
 1635TIP3   OH226395   3.844   0.915   2.224 -0.3095 -0.3039 -0.0019
 1635TIP3    H126396   3.790   0.987   2.259 -1.0991 -0.0376 -1.6772
 1635TIP3    H226397   3.833   0.844   2.288  1.2214  1.2851  2.1986
 1636TIP3   OH226398   2.661   3.822  14.081 -0.3900  0.2703 -0.1760
 1636TIP3    H126399   2.691   3.885  14.147  1.5420 -0.0927 -0.6271
 1636TIP3    H226400   2.733   3.817  14.018 -2.0402  0.3722 -2.1829
 1637TIP3   OH226401   1.406   3.011   6.390 -0.1028  0.3912 -0.1777
 1637TIP3    H126402   1.437   2.938   6.337 -0.0982 -0.5576  1.0848
 1637TIP3    H226403   1.315   2.988   6.409 -0.3173  1.0784 -0.3511
 1638TIP3   OH226404   2.862   4.965   4.867 -0.3304 -0.0618 -1.0362
 1638TIP3    H126405   2.782   4.939   4.912 -0.2138  0.5182 -0.4891
 1638TIP3    H226406   2.836   4.972   4.775 -0.1090 -3.2173 -1.4508
 1639TIP3   OH226407   4.538   6.539  11.993  0.3598  0.1023  0.3042
 1639TIP3    H126408   4.539   6.490  11.911  2.0854 -1.3781  1.1313
 1639TIP3    H226409   4.556   6.629  11.968 -1.4051  0.1003 -1.1296
 1640TIP3   OH226410   1.909   2.032   4.957  0.3911  0.2281 -0.3740
 1640TIP3    H126411   1.866   2.060   4.876  0.3540 -0.1087 -0.4736
 1640TIP3    H226412   1.886   2.099   5.021  0.2794  0.4079 -0.6002
 1641TIP3   OH226413   4.627   3.841  17.154 -0.3061 -0.9267  0.1638
 1641TIP3    H126414   4.709   3.887  17.136 -1.9449  1.4994 -1.7417
 1641TIP3    H226415   4.606   3.797  17.072 -2.9510  2.0855 -0.9822
 1642TIP3   OH226416   0.425   3.452   1.487 -0.3933  0.1809 -0.0959
 1642TIP3    H126417   0.488   3.447   1.415  0.6371 -2.1400  0.8726
 1642TIP3    H226418   0.442   3.537   1.528 -1.0157  1.5675 -2.5353
 1643TIP3   OH226419   1.650   3.400  12.377 -0.6273  0.0927  0.2586
 1643TIP3    H126420   1.561   3.417  12.407 -0.2509 -1.5944  2.6006
 1643TIP3    H226421   1.695   3.365  12.454  0.8638 -3.2447 -1.8920
 1644TIP3   OH226422   1.474   2.791   3.309 -0.7134 -0.1376 -0.5618
 1644TIP3    H126423   1.394   2.791   3.362 -0.2406  1.0012  0.1981
 1644TIP3    H226424   1.446   2.760   3.223 -2.1351  0.9439 -0.5306
 1645TIP3   OH226425   6.768   0.376  14.470 -0.1574  0.2222 -0.0875
 1645TIP3    H126426   6.702   0.433  14.511  2.0092  3.2970 -0.5929
 1645TIP3    H226427   6.766   0.297  14.524 -2.0029  1.4792  1.8980
 1646TIP3   OH226428   2.784   6.640  14.098  0.1035 -0.2069  0.1727
 1646TIP3    H126429   2.869   6.681  14.081 -0.9938  2.4559  0.6679
 1646TIP3    H226430   2.784   6.622  14.192 -0.4449  1.2847  0.4805
 1647TIP3   OH226431   6.694   4.649  15.731  0.2952 -0.3288  0.2384
 1647TIP3    H126432   6.680   4.685  15.818  0.8777 -0.3056  0.3223
 1647TIP3    H226433   6.654   4.562  15.734  0.5213 -0.4206  0.6025
 1648TIP3   OH226434   0.269   3.817  14.016  0.3318 -0.5267  0.0707
 1648TIP3    H126435   0.197   3.761  13.987 -0.1585  0.6148 -1.0392
 1648TIP3    H226436   0.335   3.809  13.947  0.3497  0.0706  0.0087
 1649TIP3   OH226437   2.857   3.628   4.987  0.4920 -0.1137 -0.1670
 1649TIP3    H126438   2.938   3.662   4.950  1.3951  2.5153  3.6196
 1649TIP3    H226439   2.804   3.706   5.004 -2.7156 -1.7002 -1.9339
 1650TIP3   OH226440   1.077   1.814   1.768  0.7894 -0.1403  0.3426
 1650TIP3    H126441   1.142   1.885   1.775 -1.4196  1.9953  0.3876
 1650TIP3    H226442   1.025   1.822   1.848 -1.6244  0.4562 -1.1974
 1651TIP3   OH226443   1.152   5.183  13.724 -0.5497 -0.1415 -0.4216
 1651TIP3    H126444   1.225   5.197  13.784  0.0394 -0.9585 -0.9206
 1651TIP3    H226445   1.075   5.177  13.780  0.0887 -1.6637  0.3335
 1652TIP3   OH226446   4.533   2.598   0.100 -0.3880  0.2610  0.4295
 1652TIP3    H126447   4.477   2.674   0.114 -1.3887 -0.5514  0.9042
 1652TIP3    H226448   4.585   2.621   0.023 -2.2609  0.5299 -0.8117
 1653TIP3   OH226449   6.611   5.206   0.582 -1.2063  0.2028 -0.0209
 1653TIP3    H126450   6.706   5.216   0.579 -1.1943  0.4016  0.8923
 1653TIP3    H226451   6.592   5.142   0.513 -0.0977 -2.1858  1.7294
 1654TIP3   OH226452   1.197   6.415   4.905 -0.2253 -0.3629 -0.0919
 1654TIP3    H126453   1.149   6.411   4.822  0.1924  0.6672 -0.3963
 1654TIP3    H226454   1.150   6.481   4.956  0.8472  0.6713 -0.3982
 1655TIP3   OH226455   5.561   2.024   2.206  0.2226  0.2835  0.4376
 1655TIP3    H126456   5.508   2.028   2.127 -0.4850  2.4198  0.9258
 1655TIP3    H226457   5.623   1.953   2.192  1.0277  1.4399 -2.6247
 1656TIP3   OH226458   5.471   3.602   0.763 -0.3739 -0.1873  0.2200
 1656TIP3    H126459   5.498   3.623   0.674 -0.8776  1.2400  0.3892
 1656TIP3    H226460   5.395   3.544   0.752 -0.0256 -0.5635 -0.2595
 1657TIP3   OH226461   1.754   3.478   3.292 -0.2337 -0.5027 -0.5915
 1657TIP3    H126462   1.758   3.383   3.290  2.1807 -0.4842 -0.1387
 1657TIP3    H226463   1.726   3.500   3.381 -1.6283 -0.7682 -0.9499
 1658TIP3   OH226464   5.982   5.615  16.043  0.0897 -0.7941  0.3563
 1658TIP3    H126465   5.956   5.689  15.989 -0.1587 -2.0457 -1.3100
 1658TIP3    H226466   6.025   5.655  16.119  0.4965  1.0249 -0.7647
 1659TIP3   OH226467   0.790   5.454  16.184 -0.1354  0.0875 -0.0101
 1659TIP3    H126468   0.728   5.514  16.226  0.9767 -0.1583  2.0928
 1659TIP3    H226469   0.736   5.399  16.127 -1.5543  1.1702  0.2451
 1660TIP3   OH226470   2.961   1.003  14.600  0.3689 -0.0537 -0.2404
 1660TIP3    H126471   2.978   1.096  14.584 -1.0655  0.2523 -0.1448
 1660TIP3    H226472   2.865   0.997  14.605  0.2597 -1.9237 -2.7566
 1661TIP3   OH226473   5.482   1.041  14.596  0.6912  0.3287 -0.0989
 1661TIP3    H126474   5.566   1.021  14.555 -0.0646 -0.4426 -1.3292
 1661TIP3    H226475   5.432   1.086  14.529 -0.5013 -0.7734  0.0045
 1662TIP3   OH226476   1.245   4.034  16.337 -0.2196  0.4101  0.4357
 1662TIP3    H126477   1.158   4.065  16.312 -0.2565 -0.0497 -0.0211
 1662TIP3    H226478   1.290   4.020  16.254  0.1491  0.2438  0.6622
 1663TIP3   OH226479   2.692   1.334   3.419 -0.9193 -0.6095 -0.2899
 1663TIP3    H126480   2.675   1.427   3.408  0.1437 -0.0994  1.8369
 1663TIP3    H226481   2.606   1.293   3.414 -1.6255  0.7056  0.5643
 1664TIP3   OH226482   4.749   3.241  11.530  0.1437 -0.7183 -0.0591
 1664TIP3    H126483   4.811   3.184  11.485  0.8183  0.2831 -0.4207
 1664TIP3    H226484   4.795   3.325  11.540 -1.6403  0.5207 -1.6178
 1665TIP3   OH226485   3.631   0.325   3.522 -0.0343 -0.3027 -0.5258
 1665TIP3    H126486   3.556   0.367   3.481  0.2000 -1.0636 -1.8246
 1665TIP3    H226487   3.594   0.256   3.577 -0.3400  0.4702  0.2614
 1666TIP3   OH226488   4.097   3.782  12.989 -0.4976 -0.6022  0.4055
 1666TIP3    H126489   4.070   3.812  12.902  0.2097  0.8290  0.6404
 1666TIP3    H226490   4.022   3.800  13.045 -0.8331 -1.2211  0.1676
 1667TIP3   OH226491   3.145   4.050  16.511 -0.3410 -0.0909 -0.3770
 1667TIP3    H126492   3.239   4.068  16.506 -0.5793  1.1960 -0.4806
 1667TIP3    H226493   3.112   4.113  16.575 -1.3447  0.3637 -1.3243
 1668TIP3   OH226494   0.660   4.491  15.745  0.4104  0.8875 -0.7031
 1668TIP3    H126495   0.724   4.421  15.736 -0.1677  0.3265 -0.5713
 1668TIP3    H226496   0.583   4.459  15.698  0.1943  1.5057 -0.7794
 1669TIP3   OH226497   3.585   0.290   0.086  0.0872 -0.2333 -0.1681
 1669TIP3    H126498   3.591   0.379   0.052 -0.6416  0.1332  0.6373
 1669TIP3    H226499   3.558   0.300   0.177 -0.3635 -1.2922 -0.1669
 1670TIP3   OH226500   2.460   0.649   1.818 -0.2865  0.5674  0.5680
 1670TIP3    H126501   2.374   0.607   1.830 -0.5750  0.6968 -0.8917
 1670TIP3    H226502   2.445   0.717   1.752  0.7930  1.0719  0.8199
 1671TIP3   OH226503   3.442   1.592   4.229 -0.0679 -0.3033 -0.3847
 1671TIP3    H126504   3.366   1.619   4.177 -0.3196 -0.8040 -0.2758
 1671TIP3    H226505   3.484   1.524   4.177 -1.6190 -2.5026  1.0494
 1672TIP3   OH226506   4.144   1.822   1.210 -0.2695  0.0104  0.0722
 1672TIP3    H126507   4.139   1.819   1.306  0.7548 -0.8662  0.1184
 1672TIP3    H226508   4.093   1.746   1.181 -1.7921  1.0725 -0.1669
 1673TIP3   OH226509   5.689   5.979   6.244 -0.6086  0.2836  0.0127
 1673TIP3    H126510   5.681   6.073   6.261 -0.1503  0.1613  0.9621
 1673TIP3    H226511   5.623   5.939   6.301 -1.1751  0.0605 -0.7924
 1674TIP3   OH226512   0.675   4.438   0.721  0.1669 -0.2741 -0.4727
 1674TIP3    H126513   0.714   4.382   0.789 -0.1803 -0.0303 -0.0662
 1674TIP3    H226514   0.636   4.511   0.770  1.2563  0.7314 -1.0434
 1675TIP3   OH226515   3.571   3.129   4.039 -0.3540 -0.1147 -0.4980
 1675TIP3    H126516   3.608   3.204   4.085 -1.1345 -1.1789  2.0535
 1675TIP3    H226517   3.580   3.056   4.101  1.0029 -2.3413 -3.1306
 1676TIP3   OH226518   4.207   3.037   0.166 -0.0542 -0.6261 -0.4534
 1676TIP3    H126519   4.281   3.036   0.106 -0.6115 -2.7263 -1.1842
 1676TIP3    H226520   4.236   2.984   0.241 -0.1985  0.0187  0.0687
 1677TIP3   OH226521   2.232   3.527   6.176 -0.0297  0.3248  0.1204
 1677TIP3    H126522   2.159   3.542   6.236  1.6387  0.2750  2.3149
 1677TIP3    H226523   2.254   3.434   6.189  2.0923  0.9509  1.6545
 1678TIP3   OH226524   4.031   1.017   1.171  0.2416 -0.0375  0.6688
 1678TIP3    H126525   4.112   1.030   1.122 -0.4271  0.5976 -0.3315
 1678TIP3    H226526   3.988   0.944   1.126  0.5047 -0.7431  1.5436
 1679TIP3   OH226527   0.354   6.092   5.309  0.1767 -0.2621 -0.0218
 1679TIP3    H126528   0.277   6.051   5.271 -0.3133  0.9317 -0.3666
 1679TIP3    H226529   0.421   6.024   5.307 -0.6028 -1.0319 -0.5696
 1680TIP3   OH226530   6.733   1.614   2.267  0.0665 -0.6755  0.3723
 1680TIP3    H126531   6.713   1.566   2.186 -0.2867 -0.8387  0.5527
 1680TIP3    H226532   6.655   1.602   2.321 -0.0349  0.1310  0.4095
 1681TIP3   OH226533   5.930   1.327   6.552  0.2555  0.5074  0.0230
 1681TIP3    H126534   6.011   1.360   6.515  1.2410 -0.9924  0.7380
 1681TIP3    H226535   5.955   1.286   6.635 -0.8787 -1.6137 -0.5774
 1682TIP3   OH226536   0.698   0.508  14.349 -0.4406 -0.1424  0.0407
 1682TIP3    H126537   0.725   0.597  14.328  0.1347 -0.3325 -0.0640
 1682TIP3    H226538   0.665   0.512  14.438  1.0812 -0.1154  0.6294
 1683TIP3   OH226539   6.393   6.220  15.835 -0.0507 -0.5712  0.1536
 1683TIP3    H126540   6.427   6.147  15.782  2.8169  2.2914 -2.3916
 1683TIP3    H226541   6.329   6.263  15.778  0.4947  0.5895  0.4001
 1684TIP3   OH226542   2.065   4.547   1.532 -0.4735  0.7637  1.1498
 1684TIP3    H126543   2.011   4.488   1.585  0.2327 -0.9390  0.0819
 1684TIP3    H226544   2.099   4.491   1.462  0.0024  2.5424 -0.1033
 1685TIP3   OH226545   1.157   2.048  12.670  0.2154 -0.1762  0.6193
 1685TIP3    H126546   1.185   2.139  12.660  2.4138 -1.0415 -2.7722
 1685TIP3    H226547   1.158   2.033  12.765  2.9604  2.4224  1.1642
 1686TIP3   OH226548   5.187   1.921  16.698  0.2880 -0.2182  0.3642
 1686TIP3    H126549   5.170   2.015  16.707  0.9574 -0.1096  0.5480
 1686TIP3    H226550   5.238   1.898  16.776  0.6366 -0.6083  0.0295
 1687TIP3   OH226551   1.683   2.398   0.211  0.0290  0.2518  0.2190
 1687TIP3    H126552   1.591   2.389   0.187 -0.4199  0.8277  1.6663
 1687TIP3    H226553   1.723   2.315   0.183 -0.3387  0.9819 -2.8136
 1688TIP3   OH226554   3.086   5.323   3.228  0.2989 -0.4310  0.4167
 1688TIP3    H126555   3.122   5.336   3.316 -1.9649 -1.0362  1.4890
 1688TIP3    H226556   2.999   5.288   3.242 -0.8882  1.2123 -2.0325
 1689TIP3   OH226557   4.634   6.727   6.142  0.9764 -0.4270 -0.0084
 1689TIP3    H126558   4.701   6.762   6.200  1.0960 -1.5516  0.5614
 1689TIP3    H226559   4.566   6.694   6.201 -0.7429  1.8621 -0.5735
 1690TIP3   OH226560   1.107   2.505  11.623  0.0125 -0.3288 -0.0364
 1690TIP3    H126561   1.165   2.576  11.651 -0.7166 -0.3282  1.5949
 1690TIP3    H226562   1.132   2.488  11.532  1.6077  0.6089  0.1857
 1691TIP3   OH226563   5.750   4.019  15.192  0.1427 -0.0480  0.0863
 1691TIP3    H126564   5.756   3.995  15.284 -0.2745  1.4403  0.5356
 1691TIP3    H226565   5.756   4.115  15.192  0.4683 -0.0471 -1.4620
 1692TIP3   OH226566   1.734   0.376   1.821  0.0455 -0.2875  0.0488
 1692TIP3    H126567   1.746   0.413   1.734 -1.2575 -0.5320 -0.2605
 1692TIP3    H226568   1.764   0.444   1.881 -0.3561  0.4508 -0.5666
 1693TIP3   OH226569   2.071   4.184   4.811  0.5199 -0.4216 -0.4199
 1693TIP3    H126570   1.979   4.190   4.834  0.5170  2.8781 -0.7827
 1693TIP3    H226571   2.116   4.168   4.894 -0.2306 -0.0558  0.0679
 1694TIP3   OH226572   2.837   0.057  14.758 -0.0465  0.4419 -0.2147
 1694TIP3    H126573   2.907   0.120  14.776  0.3315  0.0986 -0.4691
 1694TIP3    H226574   2.861  -0.020  14.809  0.5501 -0.2122 -1.4613
 1695TIP3   OH226575   3.443   4.690  14.260 -0.8481  0.4210 -0.0282
 1695TIP3    H126576   3.465   4.642  14.340 -0.7953  0.4143 -0.0463
 1695TIP3    H226577   3.371   4.641  14.222  1.0563 -1.3523 -1.5810
 1696TIP3   OH226578   3.225   5.408   1.155 -0.5456 -0.4734 -0.6131
 1696TIP3    H126579   3.211   5.502   1.161  0.8783 -0.3273  1.9759
 1696TIP3    H226580   3.139   5.371   1.133 -2.3475  1.1107  3.0289
 1697TIP3   OH226581   3.277   2.219   2.653  1.1745 -0.0468 -0.0867
 1697TIP3    H126582   3.367   2.220   2.620  0.8260 -1.4908 -1.1408
 1697TIP3    H226583   3.226   2.264   2.587  0.9842  0.0016  0.0920
 1698TIP3   OH226584   1.909   1.746  12.997 -0.7103  0.2767  0.6458
 1698TIP3    H126585   1.968   1.699  13.056 -0.3932 -0.1770 -0.0053
 1698TIP3    H226586   1.944   1.835  12.993  0.9070 -0.3549 -0.9136
 1699TIP3   OH226587   2.403   0.489   4.187 -0.3821 -0.2903  0.3714
 1699TIP3    H126588   2.437   0.573   4.218 -1.1483 -0.6101  2.2480
 1699TIP3    H226589   2.397   0.498   4.092  0.6571  1.3414  0.4334
 1700TIP3   OH226590   5.848   0.569   0.321  0.0874 -0.0674 -0.9686
 1700TIP3    H126591   5.771   0.613   0.357 -0.5191 -2.3907  0.8119
 1700TIP3    H226592   5.865   0.615   0.238 -2.1872  1.5724 -0.6314
 1701TIP3   OH226593   5.808   2.819  15.311  0.3894  0.2747 -0.1679
 1701TIP3    H126594   5.899   2.790  15.318  0.0604 -0.8097 -0.0956
 1701TIP3    H226595   5.813   2.909  15.279  1.4546 -0.1423 -1.2265
 1702TIP3   OH226596   0.656   2.477  12.977 -0.0085  0.5128  0.1595
 1702TIP3    H126597   0.752   2.479  12.977 -0.0043  2.6121 -0.5201
 1702TIP3    H226598   0.632   2.487  13.069  0.3540 -2.3165  0.6560
 1703TIP3   OH226599   1.367   1.202  16.410  0.2429  0.4551  0.4162
 1703TIP3    H126600   1.281   1.245  16.413 -0.0158 -0.0631  0.6273
 1703TIP3    H226601   1.430   1.274  16.413 -0.1397  0.7911  2.5859
 1704TIP3   OH226602   5.458   4.010   4.543  0.3225  0.3561  0.1547
 1704TIP3    H126603   5.487   3.957   4.617 -0.8814 -1.0093 -0.3198
 1704TIP3    H226604   5.363   4.018   4.555  0.2326  0.8394 -0.7953
 1705TIP3   OH226605   3.305   3.057   1.140 -0.1478  0.0063 -0.9317
 1705TIP3    H126606   3.374   3.111   1.180 -0.6357 -0.0919  0.0937
 1705TIP3    H226607   3.339   2.968   1.145 -1.1906 -0.3318  1.5912
 1706TIP3   OH226608   3.305   0.187   0.718  0.0391 -1.1124 -0.4487
 1706TIP3    H126609   3.386   0.234   0.737 -0.6385 -0.9699  2.3973
 1706TIP3    H226610   3.263   0.239   0.650  0.4736  1.0674  0.8698
 1707TIP3   OH226611   2.685   2.063  16.044 -0.0796 -0.1712  0.3320
 1707TIP3    H126612   2.690   2.053  15.949  0.0951 -0.6215  0.3872
 1707TIP3    H226613   2.734   2.143  16.063 -0.2486  0.0035  0.0269
 1708TIP3   OH226614   5.938   3.127  16.989  0.4607 -0.1449 -0.5873
 1708TIP3    H126615   6.010   3.064  16.988  1.2017  0.6241  0.7007
 1708TIP3    H226616   5.863   3.078  17.023  1.4053 -0.0180  1.8448
 1709TIP3   OH226617   1.944   3.485  11.926 -0.4062 -0.0626 -0.1951
 1709TIP3    H126618   1.928   3.515  12.015  0.7723  1.2083 -0.3664
 1709TIP3    H226619   1.876   3.420  11.909 -1.1385  0.2682  1.3378
 1710TIP3   OH226620   1.756   5.761   2.436  0.0469  0.0004  0.4684
 1710TIP3    H126621   1.782   5.669   2.428  1.0040  0.2160  0.9279
 1710TIP3    H226622   1.748   5.792   2.346  1.4911 -0.0722  0.2906
 1711TIP3   OH226623   1.644   5.145   3.407  0.7122  0.4343 -0.1939
 1711TIP3    H126624   1.730   5.188   3.397  1.4956 -1.1591 -0.5746
 1711TIP3    H226625   1.600   5.160   3.324  0.6348  1.1719 -0.0344
 1712TIP3   OH226626   3.358   3.739  14.662  0.2567  0.0721  0.2711
 1712TIP3    H126627   3.426   3.801  14.636 -0.7615  0.5899 -1.3123
 1712TIP3    H226628   3.404   3.656  14.675  1.1509  0.3341 -1.0855
 1713TIP3   OH226629   2.298   6.627  15.780 -0.1514 -0.5350  0.3087
 1713TIP3    H126630   2.244   6.619  15.702 -0.9859 -0.0982  0.8290
 1713TIP3    H226631   2.387   6.610  15.750 -0.2423  1.2082 -1.0784
 1714TIP3   OH226632   5.589   0.878   2.914 -0.0427  0.1179 -0.5683
 1714TIP3    H126633   5.646   0.935   2.965  2.0229 -1.1384 -1.3688
 1714TIP3    H226634   5.552   0.817   2.978  1.5073 -0.6211 -0.3219
 1715TIP3   OH226635   6.349   2.602  12.842 -0.2508  0.2774 -0.1318
 1715TIP3    H126636   6.344   2.553  12.761 -0.0649 -2.0022  1.1607
 1715TIP3    H226637   6.266   2.583  12.887 -1.5624  3.6025 -0.8199
 1716TIP3   OH226638   3.964   5.678   3.807 -0.3544  0.1859  0.0385
 1716TIP3    H126639   3.998   5.763   3.834 -3.5156  1.3178  0.8731
 1716TIP3    H226640   3.908   5.650   3.880  0.6295 -2.6908 -0.1676
 1717TIP3   OH226641   2.796   4.505  10.609 -0.4297  0.0735  0.3562
 1717TIP3    H126642   2.702   4.506  10.627 -0.4389  0.6878  0.2867
 1717TIP3    H226643   2.837   4.495  10.696 -0.5400  0.4880  0.4542
 1718TIP3   OH226644   2.713   3.575   6.402  0.6459  0.4650  0.4904
 1718TIP3    H126645   2.686   3.647   6.460 -0.8804  1.2024 -1.0487
 1718TIP3    H226646   2.805   3.593   6.382  0.0739  2.5267 -0.5467
 1719TIP3   OH226647   2.622   6.754   6.063 -0.2968  0.2594  0.0657
 1719TIP3    H126648   2.688   6.763   6.132 -0.0168 -1.2455  0.0477
 1719TIP3    H226649   2.548   6.711   6.107 -1.9016  3.1226  0.4230
 1720TIP3   OH226650   3.906   5.411  15.874 -0.2170  0.5961 -0.0998
 1720TIP3    H126651   3.995   5.444  15.860  0.2965 -0.4994  0.3946
 1720TIP3    H226652   3.920   5.322  15.908 -1.5084  0.3425 -0.2093
 1721TIP3   OH226653   1.743   2.625   5.359 -0.7599  0.4736  0.2669
 1721TIP3    H126654   1.776   2.614   5.449 -0.3506 -1.0774 -0.0333
 1721TIP3    H226655   1.651   2.598   5.364 -0.0588 -2.4069 -0.2350
 1722TIP3   OH226656   4.718   1.692   5.516 -0.2703  0.2732 -0.0423
 1722TIP3    H126657   4.814   1.687   5.517 -0.2346  0.1517 -1.4154
 1722TIP3    H226658   4.699   1.784   5.534  0.0244  0.0411  1.6500
 1723TIP3   OH226659   3.297   1.398  12.058 -0.3358 -0.5353 -0.7876
 1723TIP3    H126660   3.330   1.440  12.137 -3.3672  0.0511  0.3148
 1723TIP3    H226661   3.321   1.306  12.067 -1.7819 -0.7557  1.5645
 1724TIP3   OH226662   0.234   4.713  16.967  0.4521  0.1326 -0.7564
 1724TIP3    H126663   0.203   4.648  16.904 -2.5435  1.4677 -0.8205
 1724TIP3    H226664   0.160   4.725  17.027  2.0964  1.1633  1.1884
 1725TIP3   OH226665   5.443   0.187   0.057  0.4874 -0.4041  0.1888
 1725TIP3    H126666   5.462   0.275   0.025  0.2690  0.2417  1.7661
 1725TIP3    H226667   5.349   0.188   0.073  0.5012 -0.9061  0.3009
 1726TIP3   OH226668   2.951   0.570   5.648 -0.5424 -0.6002 -0.3097
 1726TIP3    H126669   3.016   0.522   5.595  0.6575  0.2083  0.3828
 1726TIP3    H226670   2.892   0.502   5.680  0.5047 -1.4897 -0.2045
 1727TIP3   OH226671   3.773   3.687   5.448 -0.2505  0.5335  0.2977
 1727TIP3    H126672   3.815   3.602   5.436  2.1690  1.5404  1.1518
 1727TIP3    H226673   3.698   3.668   5.505 -0.4155 -1.1503 -0.3963
 1728TIP3   OH226674   4.765   0.708  11.501 -0.6727  0.8117 -0.2140
 1728TIP3    H126675   4.681   0.676  11.467 -0.7058  1.9618 -1.2836
 1728TIP3    H226676   4.777   0.793  11.459  1.6172  0.1514 -1.0074
 1729TIP3   OH226677   0.468   3.475  15.658  0.6726  0.1619  0.0969
 1729TIP3    H126678   0.485   3.564  15.688  1.5500 -0.6492  2.2109
 1729TIP3    H226679   0.542   3.453  15.602  1.0420  0.3897  0.4896
 1730TIP3   OH226680   4.862   1.064   1.664  0.0630 -0.1742 -0.7538
 1730TIP3    H126681   4.917   1.141   1.669 -0.5299  0.1997  0.2917
 1730TIP3    H226682   4.788   1.083   1.722 -0.8692 -0.8979 -1.6466
 1731TIP3   OH226683   3.248   2.508  11.949  0.0012 -0.0836  0.0588
 1731TIP3    H126684   3.293   2.424  11.961  1.0298  0.5364  0.6852
 1731TIP3    H226685   3.171   2.502  12.006  0.0412 -0.6158  0.0624
 1732TIP3   OH226686   5.740   5.422   0.235  0.4851 -0.2314 -0.1476
 1732TIP3    H126687   5.736   5.338   0.281 -1.2539 -0.9672 -1.5008
 1732TIP3    H226688   5.734   5.488   0.304  0.2766 -1.2599  0.8401
 1733TIP3   OH226689   4.422   3.377  15.122 -0.0541  0.4711 -0.8242
 1733TIP3    H126690   4.516   3.394  15.130  0.0289  0.0270 -0.8317
 1733TIP3    H226691   4.387   3.398  15.209  0.3207 -0.9973 -0.2784
 1734TIP3   OH226692   5.067   0.574   5.822  0.3161  0.4523  0.0984
 1734TIP3    H126693   5.037   0.549   5.735 -0.4880  1.0403  0.1964
 1734TIP3    H226694   4.991   0.616   5.863  0.5824 -0.1010  1.2038
 1735TIP3   OH226695   1.492   2.939  17.132  0.0201 -0.3484 -0.2071
 1735TIP3    H126696   1.566   2.939  17.194 -0.0195 -1.4312 -0.1455
 1735TIP3    H226697   1.532   2.917  17.048 -0.3833 -2.1424  0.0445
 1736TIP3   OH226698   2.006   1.457   1.037  0.5932  0.0655 -0.3725
 1736TIP3    H126699   2.041   1.499   1.115  2.4124  1.5431 -1.8945
 1736TIP3    H226700   2.026   1.364   1.049 -1.0614 -0.0921  1.8090
 1737TIP3   OH226701   1.397   2.541  16.308 -0.0638  0.0353  0.0652
 1737TIP3    H126702   1.304   2.523  16.293 -0.1929  0.1597  0.6773
 1737TIP3    H226703   1.419   2.608  16.243  0.7606 -3.1112 -3.1628
 1738TIP3   OH226704   0.157   1.965  12.700  0.3035 -0.0316 -0.0230
 1738TIP3    H126705   0.205   1.903  12.754 -0.3088  0.2224  0.8258
 1738TIP3    H226706   0.182   2.051  12.733 -1.3309  0.0953  0.9902
 1739TIP3   OH226707   0.522   3.657   2.389 -0.4657 -0.1288  0.1124
 1739TIP3    H126708   0.539   3.590   2.456 -0.8869 -2.3003 -1.8368
 1739TIP3    H226709   0.429   3.676   2.397 -0.5548 -0.5228  0.0103
 1740TIP3   OH226710   6.228   6.321  14.024  0.1584 -0.0309 -0.1553
 1740TIP3    H126711   6.280   6.360  14.095 -3.1130  0.9712  1.8872
 1740TIP3    H226712   6.201   6.236  14.057  1.8054 -1.3159 -1.9190
 1741TIP3   OH226713   6.569   5.046  13.937 -0.2629 -1.0174  0.5974
 1741TIP3    H126714   6.586   5.026  14.029  1.3438 -0.2587  0.5046
 1741TIP3    H226715   6.546   4.962  13.897 -0.1891 -1.4886  1.5256
 1742TIP3   OH226716   3.715   5.745  11.447 -0.6265 -0.1521 -0.1872
 1742TIP3    H126717   3.780   5.810  11.472 -0.5370  0.0641 -0.9847
 1742TIP3    H226718   3.745   5.709  11.364 -0.9853 -0.7949 -0.0544
 1743TIP3   OH226719   3.267   2.906   4.646 -0.4392 -0.5579 -0.3053
 1743TIP3    H126720   3.191   2.933   4.698 -0.5436  1.3159 -1.3263
 1743TIP3    H226721   3.241   2.922   4.555  1.6942  1.7978 -0.6101
 1744TIP3   OH226722   6.538   1.156   1.383  0.1051  0.0525  0.1024
 1744TIP3    H126723   6.589   1.126   1.308  0.2477 -0.7692  0.5226
 1744TIP3    H226724   6.591   1.132   1.459  0.5717  1.9946  0.4443
 1745TIP3   OH226725   0.580   0.629  15.734 -0.5098 -0.1122 -0.0717
 1745TIP3    H126726   0.564   0.673  15.651 -2.2663 -0.1652  0.2056
 1745TIP3    H226727   0.525   0.675  15.797 -0.6544 -1.2660  0.6828
 1746TIP3   OH226728   5.084   1.380  16.485 -0.3213  0.1375 -0.0839
 1746TIP3    H126729   5.068   1.291  16.455  1.1538 -0.8529  1.8196
 1746TIP3    H226730   5.148   1.416  16.423 -0.8279 -0.1605 -0.7872
 1747TIP3   OH226731   3.604   1.015   2.340  0.3694  0.1910 -0.7576
 1747TIP3    H126732   3.541   1.086   2.350  0.0159 -0.2491  0.2355
 1747TIP3    H226733   3.585   0.954   2.411  0.3116 -1.1917 -1.8894
 1748TIP3   OH226734   5.671   3.750   4.198 -0.0450 -0.2699  0.0096
 1748TIP3    H126735   5.665   3.738   4.292 -0.9263  1.4793  0.2310
 1748TIP3    H226736   5.716   3.834   4.187 -0.4808 -0.1501 -1.0908
 1749TIP3   OH226737   3.190   1.034  11.103  0.4217  0.3855  0.3170
 1749TIP3    H126738   3.253   1.003  11.038 -0.5951  1.3514 -1.1962
 1749TIP3    H226739   3.176   1.126  11.081  2.3860  1.7556  3.8722
 1750TIP3   OH226740   2.799   4.021  14.236 -0.1679 -0.0002  0.1284
 1750TIP3    H126741   2.838   4.102  14.268  1.2017 -0.8314  0.6616
 1750TIP3    H226742   2.705   4.033  14.247 -0.0785  1.9305 -0.8320
 1751TIP3   OH226743   0.083   5.064  16.818  0.2825  0.3126 -0.1770
 1751TIP3    H126744   0.072   5.002  16.746  0.9113 -1.9994  1.6114
 1751TIP3    H226745   0.171   5.048  16.852 -0.3769  0.5106  1.7945
 1752TIP3   OH226746   3.124   6.171  12.645  0.5064  0.5955  0.4285
 1752TIP3    H126747   3.081   6.087  12.627 -1.1667  1.1572  1.5729
 1752TIP3    H226748   3.159   6.161  12.733  1.3056  0.7286  0.1319
 1753TIP3   OH226749   0.052   0.028  17.187  0.0017  0.2903 -0.6430
 1753TIP3    H126750  -0.041   0.029  17.162 -0.4707 -1.6001  0.8169
 1753TIP3    H226751   0.097   0.065  17.111 -2.0012  2.3329 -0.9552
 1754TIP3   OH226752   4.367   6.339  14.696 -0.4833  0.0224  0.2439
 1754TIP3    H126753   4.410   6.415  14.734  1.3985 -0.9592  0.2048
 1754TIP3    H226754   4.285   6.331  14.745  0.2443  0.8400  1.6731
 1755TIP3   OH226755   5.798   6.079  11.052  0.0935  0.3721  0.3222
 1755TIP3    H126756   5.708   6.054  11.070  0.2029  0.4998  1.0818
 1755TIP3    H226757   5.809   6.163  11.096  0.2681  0.8753 -0.6682
 1756TIP3   OH226758   2.355   5.494  15.477  0.1297 -0.3656  0.0141
 1756TIP3    H126759   2.339   5.582  15.444 -2.1146 -1.7624 -3.2322
 1756TIP3    H226760   2.269   5.465  15.510  0.3420 -1.9141 -0.7126
 1757TIP3   OH226761   1.813   1.671   2.657  0.0491 -0.3029 -0.5938
 1757TIP3    H126762   1.751   1.744   2.658  0.4870  0.0858  1.0539
 1757TIP3    H226763   1.834   1.658   2.564  0.3691  2.0051 -0.8872
 1758TIP3   OH226764   5.499   5.384  12.179  0.0552  0.3055  0.3536
 1758TIP3    H126765   5.526   5.454  12.120  0.7406  0.8520  1.2810
 1758TIP3    H226766   5.430   5.424  12.234 -0.2241 -0.0391  0.2588
 1759TIP3   OH226767   2.356   1.152   3.108  0.2264  0.7664  0.5697
 1759TIP3    H126768   2.286   1.096   3.140  0.9316  0.4056  1.5312
 1759TIP3    H226769   2.312   1.214   3.050 -0.7105 -0.1577  0.2589
 1760TIP3   OH226770   5.536   5.096  15.210  0.7651  0.2844 -0.4285
 1760TIP3    H126771   5.537   5.013  15.163 -1.7796 -0.2691  0.3211
 1760TIP3    H226772   5.481   5.080  15.286 -0.0250  2.7206 -0.3992
 1761TIP3   OH226773   1.710   1.918  17.232  0.3052  0.0976  0.1049
 1761TIP3    H126774   1.753   1.858  17.293 -0.2803  0.0055  0.4322
 1761TIP3    H226775   1.772   1.927  17.159  2.1261  2.0896  1.7727
 1762TIP3   OH226776   5.135   2.004   4.399 -0.0882 -0.1535  0.5173
 1762TIP3    H126777   5.128   2.079   4.457  2.7069 -0.1710  1.0196
 1762TIP3    H226778   5.108   2.037   4.313  1.2363  1.4967  0.6882
 1763TIP3   OH226779   5.115   4.267   2.229  0.1629  0.2056  0.5887
 1763TIP3    H126780   5.146   4.260   2.319  0.9451 -0.3680  0.2872
 1763TIP3    H226781   5.147   4.352   2.199 -1.0953  0.9217  1.2053
 1764TIP3   OH226782   3.902   0.024   0.559 -0.4811  0.5933  0.5213
 1764TIP3    H126783   3.812   0.021   0.528  0.2209 -0.2625 -1.5684
 1764TIP3    H226784   3.920   0.118   0.570 -1.1918  0.8541 -0.4166
 1765TIP3   OH226785   0.289   2.301   5.764 -0.1698 -0.0111  0.0807
 1765TIP3    H126786   0.196   2.303   5.788 -0.3347  1.4596 -0.5833
 1765TIP3    H226787   0.319   2.215   5.794 -1.8571 -0.7184 -0.1330
 1766TIP3   OH226788   6.412   0.847  14.671  0.1732  0.5506  0.0743
 1766TIP3    H126789   6.427   0.843  14.577  0.9757  2.5419  0.0781
 1766TIP3    H226790   6.472   0.782  14.708  0.1713  0.0720 -0.7577
 1767TIP3   OH226791   4.555   4.502  15.837 -0.1845  0.0259 -0.1270
 1767TIP3    H126792   4.582   4.594  15.832  0.1327  0.0575  1.6636
 1767TIP3    H226793   4.461   4.506  15.855 -0.2774 -0.0119 -0.5968
 1768TIP3   OH226794   5.615   1.562   4.526  0.1535 -0.3202 -0.5238
 1768TIP3    H126795   5.550   1.566   4.456 -0.3084 -0.5722 -0.1103
 1768TIP3    H226796   5.664   1.643   4.517 -0.1389 -0.1830 -0.9153
 1769TIP3   OH226797   3.851   5.526   4.928  0.0923 -0.1860 -0.3208
 1769TIP3    H126798   3.922   5.512   4.866  1.5756  0.8630  1.0537
 1769TIP3    H226799   3.894   5.558   5.008 -2.0169  1.7100  0.1803
 1770TIP3   OH226800   5.461   3.636  12.671 -0.3823 -0.3840  0.0946
 1770TIP3    H126801   5.394   3.694  12.636  0.6819  1.0061  0.2536
 1770TIP3    H226802   5.473   3.569  12.604 -2.2193 -0.9420  0.2669
 1771TIP3   OH226803   5.901   3.838  13.405  0.6987 -0.2505  0.1445
 1771TIP3    H126804   5.951   3.756  13.399  0.5294 -0.4563  1.2540
 1771TIP3    H226805   5.824   3.815  13.457 -0.0495  0.3038 -0.6940
 1772TIP3   OH226806   1.787   5.685   0.226  0.5027 -0.6970  0.2962
 1772TIP3    H126807   1.880   5.676   0.249  1.2528  1.2486 -1.6214
 1772TIP3    H226808   1.767   5.606   0.175  1.1429 -1.0629  0.6034
 1773TIP3   OH226809   5.503   5.912  16.993  0.0156  0.5947 -0.2634
 1773TIP3    H126810   5.489   5.999  16.955  0.9548 -0.1186 -2.4303
 1773TIP3    H226811   5.571   5.873  16.938 -0.3549 -1.4967  0.6748
 1774TIP3   OH226812   6.450   4.345   2.762 -0.1026  0.1229  0.2710
 1774TIP3    H126813   6.416   4.266   2.719  0.7774  0.3362 -0.8824
 1774TIP3    H226814   6.447   4.412   2.694  0.1754  0.8039  0.9229
 1775TIP3   OH226815   2.910   1.173  11.159 -0.1158 -0.0457  0.2384
 1775TIP3    H126816   2.862   1.143  11.236 -2.4225 -1.3331 -1.5721
 1775TIP3    H226817   2.851   1.155  11.085  2.2257  0.5417 -1.9164
 1776TIP3   OH226818   0.827   4.847   0.386  0.3623 -0.1375  0.0532
 1776TIP3    H126819   0.738   4.877   0.401 -0.1036 -1.6768  0.5411
 1776TIP3    H226820   0.877   4.928   0.370 -0.6562  0.9742  2.0133
 1777TIP3   OH226821   5.396   0.261  11.565 -0.0803 -0.0535 -0.0181
 1777TIP3    H126822   5.355   0.332  11.515  0.1783  0.6607  0.7602
 1777TIP3    H226823   5.337   0.245  11.638 -0.6773 -1.3991 -0.7504
 1778TIP3   OH226824   1.676   0.224  12.629  0.1288  0.3673  0.4129
 1778TIP3    H126825   1.626   0.265  12.700  1.2583 -1.4774  2.4032
 1778TIP3    H226826   1.610   0.186  12.572 -0.8101  0.9563  1.0753
 1779TIP3   OH226827   2.618   0.500  13.618  0.6302  0.1888  0.2656
 1779TIP3    H126828   2.656   0.517  13.532  0.9245 -1.0024  0.1377
 1779TIP3    H226829   2.524   0.495  13.603  0.5615  1.3158  0.2579
 1780TIP3   OH226830   5.981   3.348   4.702 -0.2014 -0.0634  0.0194
 1780TIP3    H126831   5.922   3.396   4.644  1.0969 -0.5079 -1.7737
 1780TIP3    H226832   6.067   3.388   4.686  0.6896 -2.0877 -0.5679
 1781TIP3   OH226833   2.095   2.408  14.519 -0.2511 -0.6102  0.0024
 1781TIP3    H126834   2.010   2.448  14.537  0.2362  0.1338  0.6806
 1781TIP3    H226835   2.073   2.322  14.482 -1.2961 -0.6334  0.6234
 1782TIP3   OH226836   4.807   1.285  16.601  0.3854 -0.3755 -0.2773
 1782TIP3    H126837   4.728   1.242  16.634 -0.0211 -0.1085 -0.8821
 1782TIP3    H226838   4.864   1.213  16.574 -0.2844 -0.5539 -1.2636
 1783TIP3   OH226839   3.833   0.467   1.266  0.1018  0.3071  0.2856
 1783TIP3    H126840   3.792   0.384   1.290  2.0422 -1.3881 -1.8506
 1783TIP3    H226841   3.762   0.519   1.229 -0.6989 -1.3783 -0.6470
 1784TIP3   OH226842   3.931   3.688   4.992 -0.4935 -0.3007 -0.0345
 1784TIP3    H126843   4.001   3.673   4.927  0.6480 -0.0434  1.0862
 1784TIP3    H226844   3.976   3.682   5.076 -2.2262 -2.3223  0.8416
 1785TIP3   OH226845   0.854   1.006   6.215  0.8027  0.6074  0.3407
 1785TIP3    H126846   0.850   1.000   6.311  1.8043 -0.0373  0.3508
 1785TIP3    H226847   0.768   1.040   6.190  0.6072  1.0044  1.4831
 1786TIP3   OH226848   4.331   5.663  15.594 -0.4805 -0.3959  0.3764
 1786TIP3    H126849   4.296   5.685  15.508  0.3466 -1.8481 -0.3812
 1786TIP3    H226850   4.258   5.679  15.654 -1.6086 -0.8743 -0.8083
 1787TIP3   OH226851   5.288   4.161   5.050  0.4844  0.2159  0.1129
 1787TIP3    H126852   5.369   4.182   5.004  0.8634  1.4204  1.2451
 1787TIP3    H226853   5.256   4.081   5.008  1.0194  0.9919 -1.9013
 1788TIP3   OH226854   5.161   3.701  12.314 -0.1806 -0.3180  0.1420
 1788TIP3    H126855   5.148   3.743  12.229  0.1629  1.3395  0.8741
 1788TIP3    H226856   5.073   3.693  12.350 -0.2542 -0.2360 -0.0158
 1789TIP3   OH226857   3.046   4.017  15.981  0.5071 -0.1408 -0.4316
 1789TIP3    H126858   3.132   4.011  15.941  1.4124 -0.0088  1.3947
 1789TIP3    H226859   3.045   3.948  16.048 -1.6776 -1.6594 -1.8605
 1790TIP3   OH226860   3.807   1.247  12.789  0.4604 -0.2513 -0.3289
 1790TIP3    H126861   3.739   1.183  12.765 -0.6053  1.1222 -1.1697
 1790TIP3    H226862   3.852   1.208  12.863 -2.3776 -0.5375  1.4104
 1791TIP3   OH226863   4.049   0.404   0.058  0.3437 -0.8185  0.3352
 1791TIP3    H126864   4.067   0.376   0.147 -1.1654 -0.7487  0.7002
 1791TIP3    H226865   3.960   0.441   0.063  1.1080  1.3591 -0.6947
 1792TIP3   OH226866   0.907   4.758   6.110 -0.3929  0.1683  0.8408
 1792TIP3    H126867   0.880   4.701   6.039 -0.3223 -0.8285  1.5858
 1792TIP3    H226868   0.960   4.702   6.167  0.8138  1.3225  0.9083
 1793TIP3   OH226869   2.322   5.015   1.089 -0.2953  0.4957  0.2119
 1793TIP3    H126870   2.293   5.106   1.089  0.8248  0.8807 -0.5361
 1793TIP3    H226871   2.254   4.968   1.137 -0.9342  1.7076  0.5417
 1794TIP3   OH226872   6.205   1.661  12.629  0.2125 -0.3094 -0.0758
 1794TIP3    H126873   6.180   1.703  12.547  3.7238 -3.6328 -3.2187
 1794TIP3    H226874   6.272   1.719  12.666  0.0887  0.1873 -0.6040
 1795TIP3   OH226875   4.701   5.233   3.567  0.2478 -0.9543 -0.2606
 1795TIP3    H126876   4.617   5.263   3.534  1.1181  0.1147 -1.6469
 1795TIP3    H226877   4.697   5.250   3.661 -0.4729  0.6816 -0.5476
 1796TIP3   OH226878   5.966   5.859  11.618 -0.0973 -0.5002  0.8446
 1796TIP3    H126879   5.886   5.912  11.620  0.7663  0.9022  2.9997
 1796TIP3    H226880   6.017   5.894  11.545 -0.3432  0.4330  1.1017
 1797TIP3   OH226881   3.180   3.656  13.721 -0.1663 -0.8073 -1.0446
 1797TIP3    H126882   3.085   3.649  13.710 -0.5071  0.3330  0.7809
 1797TIP3    H226883   3.201   3.596  13.792  0.1669  0.3521 -0.1357
 1798TIP3   OH226884   1.524   1.359  13.313  0.0813  0.6269  0.1144
 1798TIP3    H126885   1.544   1.352  13.407 -0.2360 -0.2514  0.1311
 1798TIP3    H226886   1.609   1.347  13.270 -0.0722 -1.2602  0.2408
 1799TIP3   OH226887   2.456   1.454  12.390  0.0363 -0.5222  0.2294
 1799TIP3    H126888   2.380   1.432  12.444  0.2385 -0.6050  0.4775
 1799TIP3    H226889   2.531   1.418  12.437  0.3224  0.3223  0.4295
 1800TIP3   OH226890   6.481   6.313   6.792 -1.0463 -0.0151  0.3803
 1800TIP3    H126891   6.559   6.273   6.753 -1.0126 -0.5427  0.9733
 1800TIP3    H226892   6.514   6.369   6.862 -1.1358  0.5952 -0.0576
 1801TIP3   OH226893   4.935   0.607  12.380  0.1934  0.3879  0.1632
 1801TIP3    H126894   4.952   0.540  12.314 -1.5430 -0.3804  0.4356
 1801TIP3    H226895   4.964   0.689  12.339 -0.7689 -0.0786 -1.5569
 1802TIP3   OH226896   5.411   4.880   2.326  0.7912 -0.0646 -0.4587
 1802TIP3    H126897   5.466   4.904   2.400  1.5272 -1.8594 -0.3820
 1802TIP3    H226898   5.327   4.856   2.366  0.7446  0.2673 -0.3499
 1803TIP3   OH226899   4.254   4.620  15.399 -0.1444  0.5784 -0.4136
 1803TIP3    H126900   4.197   4.647  15.327 -0.5571  1.9607  0.3925
 1803TIP3    H226901   4.226   4.674  15.474  2.4921  1.6707 -0.0928
 1804TIP3   OH226902   3.308   2.029   2.012 -0.3825 -0.2229  0.4061
 1804TIP3    H126903   3.293   2.103   1.953 -0.9918  1.7962  2.8828
 1804TIP3    H226904   3.360   2.066   2.083  0.8184 -2.6781  0.8887
 1805TIP3   OH226905   0.504   1.251   0.368 -0.2916  0.6139  0.3548
 1805TIP3    H126906   0.599   1.258   0.363 -0.2749  1.9730  1.8550
 1805TIP3    H226907   0.473   1.281   0.283  0.6173 -0.5731 -0.4317
 1806TIP3   OH226908   5.858   4.572  12.629 -0.2466 -0.3431  0.0453
 1806TIP3    H126909   5.943   4.562  12.671 -0.2112 -5.2994 -0.6727
 1806TIP3    H226910   5.878   4.610  12.543  1.0767 -0.4361  0.2922
 1807TIP3   OH226911   4.309   0.672  14.608 -0.3762  0.4731 -0.0475
 1807TIP3    H126912   4.296   0.694  14.700  0.3451 -2.3143  0.8142
 1807TIP3    H226913   4.398   0.703  14.589  0.0832 -0.3472  0.6979
 1808TIP3   OH226914   0.396   4.572  16.817 -0.0133 -0.2154  0.3946
 1808TIP3    H126915   0.361   4.606  16.899  0.5358 -0.0383  0.5579
 1808TIP3    H226916   0.443   4.646  16.778  0.5902 -0.5818  0.4125
 1809TIP3   OH226917   0.272   0.542  16.948 -0.2865 -0.0950  0.4681
 1809TIP3    H126918   0.202   0.545  17.013  0.2236  0.4233  0.9983
 1809TIP3    H226919   0.287   0.448  16.934 -1.2169 -0.2231  0.1927
 1810TIP3   OH226920   6.378   4.171  17.010 -0.4849 -0.3484 -0.0829
 1810TIP3    H126921   6.415   4.121  16.937  0.7719 -1.9031  1.5325
 1810TIP3    H226922   6.453   4.219  17.045 -0.9234 -0.1571  0.5964
 1811TIP3   OH226923   2.345   1.710  12.434 -0.3273 -0.0933 -0.4814
 1811TIP3    H126924   2.331   1.630  12.485  0.3795 -0.5471 -0.9991
 1811TIP3    H226925   2.347   1.780  12.500  1.0275 -0.7234  0.1789
 1812TIP3   OH226926   2.401   2.257   2.971  0.0643  0.6395  0.3071
 1812TIP3    H126927   2.371   2.167   2.958  3.2527 -0.4991 -0.1834
 1812TIP3    H226928   2.400   2.270   3.066  0.4781 -0.3007  0.4501
 1813TIP3   OH226929   1.956   4.072   1.431  0.1247  0.0299 -0.3139
 1813TIP3    H126930   1.878   4.056   1.378 -0.4163  0.7462  0.2429
 1813TIP3    H226931   1.995   4.151   1.392 -0.0836  0.3532  0.1177
 1814TIP3   OH226932   4.556   5.252  17.029 -0.5292 -0.1660  0.1848
 1814TIP3    H126933   4.495   5.258  16.955 -0.0588 -1.5037 -0.3433
 1814TIP3    H226934   4.638   5.288  16.996 -0.1198 -1.4131 -0.1944
 1815TIP3   OH226935   1.616   4.460  14.214 -0.2314  0.3818 -0.0932
 1815TIP3    H126936   1.527   4.448  14.181 -0.0944  1.9261 -1.1215
 1815TIP3    H226937   1.633   4.381  14.266 -1.3319 -1.0562 -1.7982
 1816TIP3   OH226938   0.038   0.867  17.111 -0.5587 -0.6739  0.1525
 1816TIP3    H126939   0.010   0.843  17.199  3.2831 -2.3261  1.1337
 1816TIP3    H226940   0.027   0.787  17.060 -2.0935  0.0799 -0.7705
 1817TIP3   OH226941   1.176   5.768  17.253  0.0516  0.8480  0.1679
 1817TIP3    H126942   1.234   5.715  17.198 -1.4376 -1.0128  0.2557
 1817TIP3    H226943   1.088   5.735  17.234 -1.0909  3.9080 -0.3416
 1818TIP3   OH226944   5.162   4.251   1.113 -0.2702 -0.2961  0.2324
 1818TIP3    H126945   5.194   4.170   1.073  1.0644  0.9606 -1.3848
 1818TIP3    H226946   5.137   4.306   1.039  1.8540  1.9555  1.0631
 1819TIP3   OH226947   3.962   5.493  12.213  0.4403  0.0726  0.3582
 1819TIP3    H126948   3.930   5.411  12.251 -0.6060  0.5788  0.6140
 1819TIP3    H226949   3.906   5.561  12.252 -0.6436  0.6352 -2.0160
 1820TIP3   OH226950   4.128   1.038   0.253 -0.7587  0.1709  0.1116
 1820TIP3    H126951   4.213   1.046   0.297 -0.6830  1.5824 -0.2480
 1820TIP3    H226952   4.130   0.952   0.212  0.5680  0.2545 -0.0331
 1821TIP3   OH226953   2.661   4.041  12.510 -0.2107  0.0046 -0.1090
 1821TIP3    H126954   2.723   4.108  12.478  0.5564 -0.9638 -0.7128
 1821TIP3    H226955   2.636   3.993  12.431 -1.0424 -0.2038  0.2716
 1822TIP3   OH226956   2.930   6.611   2.853 -0.6670  0.7944  0.3988
 1822TIP3    H126957   2.863   6.679   2.850  0.5029  1.9776 -0.9924
 1822TIP3    H226958   2.920   6.564   2.770  0.4289  1.2464 -0.0146
 1823TIP3   OH226959   0.744   1.783   6.800 -0.2267 -0.3313 -0.1864
 1823TIP3    H126960   0.737   1.877   6.812  0.1424 -0.3927  0.5580
 1823TIP3    H226961   0.655   1.754   6.779 -0.1060  0.3476 -1.7484
 1824TIP3   OH226962   3.994   4.472   5.336  0.5066  0.1620  0.2422
 1824TIP3    H126963   4.052   4.446   5.408  1.2312  0.5369 -0.1960
 1824TIP3    H226964   3.913   4.499   5.380  0.1940 -1.5188  0.7900
 1825TIP3   OH226965   1.881   3.368  14.167 -0.3279  0.0705 -0.4462
 1825TIP3    H126966   1.867   3.433  14.236  1.7191 -1.1957  1.2861
 1825TIP3    H226967   1.794   3.352  14.131 -1.4742  0.8091  1.8160
 1826TIP3   OH226968   3.574   3.175   5.051 -0.2117 -0.2737  0.5134
 1826TIP3    H126969   3.502   3.231   5.080  1.2918  1.8234  0.4225
 1826TIP3    H226970   3.651   3.212   5.093  1.0979 -1.2222 -0.9512
 1827TIP3   OH226971   1.304   0.007  13.092  1.0851  0.0798 -0.0021
 1827TIP3    H126972   1.338  -0.039  13.169  1.5511  0.1903 -0.1395
 1827TIP3    H226973   1.371   0.072  13.072 -0.0795  1.6337  0.9082
 1828TIP3   OH226974   3.869   1.905   1.348  0.1492 -0.5518  0.0243
 1828TIP3    H126975   3.946   1.937   1.394  0.3327 -1.0800  0.0878
 1828TIP3    H226976   3.850   1.973   1.283  1.0339 -0.7036 -0.4054
 1829TIP3   OH226977   2.200   4.787   5.668  0.4028 -0.3349 -0.5586
 1829TIP3    H126978   2.188   4.851   5.738 -0.9742  0.2772 -1.3258
 1829TIP3    H226979   2.288   4.804   5.634  0.3999  0.5285 -0.1458
 1830TIP3   OH226980   0.700   4.130  12.216  0.0274 -0.2873 -0.3972
 1830TIP3    H126981   0.743   4.205  12.175 -0.6041  0.1830 -0.2048
 1830TIP3    H226982   0.693   4.065  12.146  2.4232 -0.9944 -0.0824
 1831TIP3   OH226983   3.249   0.693  14.631 -0.7315 -0.0723  0.3291
 1831TIP3    H126984   3.307   0.627  14.670 -0.9826  1.3244  3.3250
 1831TIP3    H226985   3.307   0.749  14.580 -0.2439 -1.4544 -0.7108
 1832TIP3   OH226986   4.692   1.703  16.813  0.8206 -0.1933  0.4425
 1832TIP3    H126987   4.767   1.726  16.758  0.1755 -0.7101 -0.7027
 1832TIP3    H226988   4.622   1.762  16.785  1.1269  1.1898  2.4185
 1833TIP3   OH226989   3.763   0.076  13.828 -0.1434  0.3384 -0.0150
 1833TIP3    H126990   3.816   0.063  13.749  0.4742 -0.9569  0.5756
 1833TIP3    H226991   3.810   0.144  13.877  0.4334 -0.0761  0.0253
 1834TIP3   OH226992   0.682   3.179  11.543  0.1519 -0.3856 -0.2276
 1834TIP3    H126993   0.600   3.229  11.536  0.6921  0.5730  0.1196
 1834TIP3    H226994   0.663   3.110  11.606 -0.2150  0.1999  0.3155
 1835TIP3   OH226995   2.254   0.388  13.112 -0.6482  0.2733  0.1644
 1835TIP3    H126996   2.267   0.403  13.205 -0.0009  2.6894 -0.2460
 1835TIP3    H226997   2.171   0.431  13.092 -0.2556  0.7324 -0.5357
 1836TIP3   OH226998   3.240   5.761  14.380  0.1762 -0.1355  0.0731
 1836TIP3    H126999   3.147   5.752  14.402  0.3911 -0.9952  0.6563
 1836TIP3    H227000   3.282   5.787  14.462  0.7408 -1.7946  0.3584
 1837TIP3   OH227001   5.169   4.423  14.300  0.4279  0.2931 -0.6549
 1837TIP3    H127002   5.103   4.486  14.272  1.5266  1.8552  0.1559
 1837TIP3    H227003   5.126   4.372  14.369  0.3814  2.0455  0.6719
 1838TIP3   OH227004   5.972   1.155  12.740 -0.0939 -0.0382  0.2426
 1838TIP3    H127005   5.985   1.249  12.743  2.9058 -0.3743  3.1614
 1838TIP3    H227006   5.932   1.134  12.825  0.6712 -1.4999  0.2748
 1839TIP3   OH227007   3.582   5.564  12.252  0.1381  0.0934  0.0759
 1839TIP3    H127008   3.641   5.618  12.200  0.3544 -0.6485 -0.4671
 1839TIP3    H227009   3.542   5.625  12.314  1.8694  0.5213  0.8305
 1840TIP3   OH227010   0.797   1.281  16.876 -0.6767  0.2191 -0.1931
 1840TIP3    H127011   0.728   1.222  16.845 -0.0761 -0.4171 -0.3413
 1840TIP3    H227012   0.841   1.231  16.945  0.1897  0.2829 -0.6961
 1841TIP3   OH227013   5.561   1.768   4.080 -0.0658 -0.3381 -0.0873
 1841TIP3    H127014   5.581   1.858   4.052 -1.2676 -0.5098 -1.5947
 1841TIP3    H227015   5.646   1.734   4.109  0.3704  1.3523  0.7779
 1842TIP3   OH227016   6.570   1.744  11.271  0.4705  0.1558 -0.0322
 1842TIP3    H127017   6.526   1.684  11.211  0.2345  1.1118 -0.8436
 1842TIP3    H227018   6.655   1.762  11.229  0.3279  0.7822 -0.0599
 1843TIP3   OH227019   0.214   3.085  10.851  0.4501 -0.3389 -0.2941
 1843TIP3    H127020   0.188   3.072  10.759 -1.7481 -1.1809  0.3777
 1843TIP3    H227021   0.216   2.997  10.888  2.2008 -0.0830  0.2940
 1844TIP3   OH227022   4.619   1.338   4.932 -0.2087  0.3693 -0.0857
 1844TIP3    H127023   4.650   1.413   4.982 -3.1535  1.5977  0.1306
 1844TIP3    H227024   4.607   1.269   4.997  1.3623  0.0475 -0.0955
 1845TIP3   OH227025   6.567   1.040  12.894 -0.7705 -0.2374 -0.1771
 1845TIP3    H127026   6.497   1.032  12.829 -1.0754 -1.7835  0.3044
 1845TIP3    H227027   6.648   1.039  12.842 -1.0582 -0.1634 -0.6273
 1846TIP3   OH227028   2.100   4.537  12.043 -0.1600 -0.1397  0.0665
 1846TIP3    H127029   2.113   4.620  12.087  0.7776 -0.3237  0.1575
 1846TIP3    H227030   2.150   4.545  11.962 -1.4443  0.0036 -0.7432
 1847TIP3   OH227031   2.252   5.508  13.143 -0.2048 -0.4141  0.2506
 1847TIP3    H127032   2.185   5.568  13.111  0.7470  2.3561  2.9573
 1847TIP3    H227033   2.225   5.486  13.232  2.2507  0.6488  1.3746
 1848TIP3   OH227034   5.522   5.071   1.303  0.8148 -0.4100 -0.3147
 1848TIP3    H127035   5.473   5.061   1.384 -1.1734 -0.0354 -1.4179
 1848TIP3    H227036   5.566   5.156   1.311  2.2372 -1.2195  1.1193
 1849TIP3   OH227037   0.627   0.293  10.555 -0.8332 -0.4458  0.2123
 1849TIP3    H127038   0.662   0.252  10.476 -0.7601 -1.4615  0.7597
 1849TIP3    H227039   0.638   0.387  10.541 -2.9575 -0.4271 -2.0130
 1850TIP3   OH227040   1.815   5.963   2.996 -0.0077  0.1486 -0.6698
 1850TIP3    H127041   1.789   6.021   2.926  1.5849 -0.3296 -1.7175
 1850TIP3    H227042   1.868   5.896   2.954  0.4054 -0.5648  0.8823
 1851TIP3   OH227043   4.141   6.594  13.274 -0.0403 -0.2968  0.0910
 1851TIP3    H127044   4.175   6.614  13.361  1.8776  0.0433 -0.6691
 1851TIP3    H227045   4.216   6.609  13.216 -1.1542 -0.9072 -1.5692
 1852TIP3   OH227046   2.017   4.601  14.304 -0.1579  0.4108  0.0978
 1852TIP3    H127047   1.954   4.665  14.338 -0.7019  1.4375 -2.5871
 1852TIP3    H227048   2.103   4.640  14.323 -0.4624  1.3854 -0.4138
 1853TIP3   OH227049   4.342   4.643   2.157  0.3938 -0.0408  0.5703
 1853TIP3    H127050   4.337   4.657   2.251  0.7171 -0.2989  0.6302
 1853TIP3    H227051   4.436   4.639   2.138  0.3537  0.9526  0.0882
 1854TIP3   OH227052   4.708   2.071   5.968  0.6473  0.0495  0.1013
 1854TIP3    H127053   4.780   2.066   5.907 -1.1124  1.2465 -2.2316
 1854TIP3    H227054   4.731   2.144   6.026  2.5242 -1.3604  1.2425
 1855TIP3   OH227055   6.818   2.778  14.193 -0.1621  0.0934 -0.4169
 1855TIP3    H127056   6.753   2.824  14.140  0.1592 -0.4710 -1.3276
 1855TIP3    H227057   6.819   2.689  14.158 -0.2568 -0.4200  0.8335
 1856TIP3   OH227058   3.853   4.773   6.703  0.4820  0.2933  0.1323
 1856TIP3    H127059   3.934   4.787   6.753  0.0336 -1.8362  1.5773
 1856TIP3    H227060   3.783   4.797   6.765 -0.0388  1.7114 -0.9597
 1857TIP3   OH227061   1.340   6.218  17.018  0.1520  0.1239 -0.0183
 1857TIP3    H127062   1.415   6.217  17.076  2.2253 -1.2316 -2.5279
 1857TIP3    H227063   1.371   6.177  16.937 -2.9875  0.4811 -1.5642
 1858TIP3   OH227064   5.737   4.697  13.560 -0.0969 -0.0492 -0.1360
 1858TIP3    H127065   5.755   4.611  13.598 -0.7320  0.3538  1.1288
 1858TIP3    H227066   5.822   4.739  13.556 -0.0306 -0.0531  0.9925
 1859TIP3   OH227067   2.775   0.860   4.814 -0.6009 -0.0075  0.5843
 1859TIP3    H127068   2.792   0.861   4.908  1.1294 -1.0766  0.3122
 1859TIP3    H227069   2.759   0.768   4.792 -0.0865  0.0958 -0.3033
 1860TIP3   OH227070   2.015   4.336  13.833  0.4058  0.1710  0.1392
 1860TIP3    H127071   1.937   4.367  13.786  0.3431 -0.3189 -0.0923
 1860TIP3    H227072   2.067   4.415  13.848  0.9706  0.2189 -1.7659
 1861TIP3   OH227073   1.477   3.870  16.107  0.4841  0.4997 -0.0108
 1861TIP3    H127074   1.480   3.857  16.012 -0.2782 -0.0438  0.0352
 1861TIP3    H227075   1.440   3.957  16.118  0.8436  0.6797 -0.2162
 1862TIP3   OH227076   3.854   0.607   2.511 -0.0870 -0.5542 -0.3701
 1862TIP3    H127077   3.934   0.600   2.459  0.4900 -1.4913  0.5818
 1862TIP3    H227078   3.783   0.588   2.450  0.4401 -0.1105 -1.1417
 1863TIP3   OH227079   4.688   6.367  15.283 -0.8515 -0.0537  0.3699
 1863TIP3    H127080   4.754   6.298  15.291 -1.3893 -0.5566  0.5340
 1863TIP3    H227081   4.705   6.408  15.198 -0.7245 -0.5958  0.1320
 1864TIP3   OH227082   1.429   2.571   5.299  0.5639 -0.5554  0.0473
 1864TIP3    H127083   1.403   2.663   5.308  1.1339 -0.3453 -0.3826
 1864TIP3    H227084   1.414   2.533   5.386 -1.2417 -0.4790 -0.1835
 1865TIP3   OH227085   6.600   3.750   6.122 -0.2593 -0.5936  0.4849
 1865TIP3    H127086   6.552   3.672   6.148  0.2229 -1.5982 -1.3916
 1865TIP3    H227087   6.689   3.734   6.153 -0.3844 -0.3119  0.9918
 1866TIP3   OH227088   3.021   5.934  14.981  0.2065  0.0184  0.1523
 1866TIP3    H127089   3.110   5.901  14.992  0.8022  1.3458 -0.5791
 1866TIP3    H227090   3.010   5.944  14.887 -0.4575  0.5838  0.2813
 1867TIP3   OH227091   6.370   2.010   5.799 -0.2175 -0.3220 -0.2491
 1867TIP3    H127092   6.327   1.933   5.761 -1.1660  0.0992 -0.0651
 1867TIP3    H227093   6.438   1.974   5.856 -1.6255 -1.1010  1.0251
 1868TIP3   OH227094   5.059   3.258  16.794 -0.2735  0.1963 -0.1110
 1868TIP3    H127095   5.002   3.222  16.726  0.5010 -0.9835 -0.1720
 1868TIP3    H227096   5.092   3.340  16.756 -0.7524  0.1308 -0.6844
 1869TIP3   OH227097   1.035   5.141   4.340 -0.2402  0.1311 -0.0735
 1869TIP3    H127098   0.947   5.163   4.310 -0.3630 -1.4180 -0.9583
 1869TIP3    H227099   1.091   5.209   4.303 -0.5300 -1.1398 -3.0818
 1870TIP3   OH227100   4.662   2.770   2.545  0.4090  0.3609 -0.4439
 1870TIP3    H127101   4.663   2.822   2.465  1.3690  1.1558  0.0661
 1870TIP3    H227102   4.644   2.681   2.515 -0.2899  0.8199 -1.4285
 1871TIP3   OH227103   2.173   0.397   1.221  0.0397 -0.5722 -0.0867
 1871TIP3    H127104   2.214   0.316   1.188  0.4501 -0.3039 -0.2346
 1871TIP3    H227105   2.209   0.466   1.166  0.0807 -0.2202  0.3819
 1872TIP3   OH227106   3.074   1.463  15.779 -0.1855 -0.3849 -0.4241
 1872TIP3    H127107   2.987   1.424  15.783  0.2407 -1.4187 -0.8850
 1872TIP3    H227108   3.111   1.431  15.697 -0.1756  1.8289 -1.3651
 1873TIP3   OH227109   5.905   0.044  13.407  0.4391 -1.1361 -0.1629
 1873TIP3    H127110   5.869  -0.011  13.337  1.5211 -2.9002  0.5870
 1873TIP3    H227111   5.998   0.050  13.386  0.3523  0.4299 -0.1979
 1874TIP3   OH227112   0.804   4.059   1.363 -0.6494 -0.4045 -0.2718
 1874TIP3    H127113   0.771   4.057   1.273  0.3972 -1.3524 -0.6604
 1874TIP3    H227114   0.806   3.967   1.390  2.4791 -0.5485 -0.6202
 1875TIP3   OH227115   0.641   6.403  11.163 -0.3325  0.1138 -0.4644
 1875TIP3    H127116   0.573   6.448  11.113 -0.9355  0.4532  0.6240
 1875TIP3    H227117   0.655   6.321  11.115  0.6589  1.3245 -2.3768
 1876TIP3   OH227118   2.347   1.939   0.514 -0.0192 -0.6144  0.3946
 1876TIP3    H127119   2.402   2.001   0.563  0.8686  0.5490 -1.9049
 1876TIP3    H227120   2.409   1.876   0.477 -0.5510 -0.9133 -0.0001
 1877TIP3   OH227121   4.307   3.788  16.852  0.3119 -0.2493 -0.0720
 1877TIP3    H127122   4.238   3.730  16.821 -2.1951  0.1805  3.9628
 1877TIP3    H227123   4.369   3.730  16.896  0.4290 -0.2857 -0.2829
 1878TIP3   OH227124   1.833   3.812  10.766  0.2276  0.0382  0.9818
 1878TIP3    H127125   1.924   3.835  10.786  0.7095 -0.0409 -0.9895
 1878TIP3    H227126   1.829   3.810  10.671 -1.5858 -1.0248  1.0467
 1879TIP3   OH227127   3.049   2.751   5.769  0.1029 -0.4853 -0.2808
 1879TIP3    H127128   3.042   2.828   5.714  0.8808 -0.2040 -0.0055
 1879TIP3    H227129   3.034   2.677   5.710  0.3237 -0.1602 -0.7464
 1880TIP3   OH227130   5.907   2.367  15.819  0.4346  0.3968 -0.3281
 1880TIP3    H127131   5.983   2.372  15.877  0.6988 -1.3245 -0.4781
 1880TIP3    H227132   5.930   2.423  15.745  1.7363 -0.3986 -0.5491
 1881TIP3   OH227133   1.792   2.349  14.215 -0.8585  0.0072  0.0575
 1881TIP3    H127134   1.867   2.336  14.157 -0.6567  0.4523  0.2150
 1881TIP3    H227135   1.793   2.442  14.236 -1.7637  0.1261 -0.3536
 1882TIP3   OH227136   3.101   6.625   4.871  0.0177  0.4488  0.7531
 1882TIP3    H127137   3.168   6.684   4.906 -0.2057 -0.1199  2.1913
 1882TIP3    H227138   3.111   6.545   4.922 -0.5056 -0.3295 -0.3303
 1883TIP3   OH227139   0.190   0.112   3.357 -0.1828 -0.1226 -0.4745
 1883TIP3    H127140   0.249   0.069   3.295 -1.2082 -0.7870 -1.0166
 1883TIP3    H227141   0.166   0.043   3.419 -2.1631 -0.5023 -1.5832
 1884TIP3   OH227142   6.816   2.738  16.831 -0.1154  0.0097 -0.2799
 1884TIP3    H127143   6.860   2.752  16.747 -1.1434  1.3117 -0.6489
 1884TIP3    H227144   6.724   2.761  16.813 -0.6404 -1.1043  0.8398
 1885TIP3   OH227145   1.821   3.787  12.831 -0.2973  0.1593 -0.0926
 1885TIP3    H127146   1.745   3.763  12.885 -0.0516  0.3425  0.3406
 1885TIP3    H227147   1.789   3.860  12.777 -0.8255 -0.6336 -0.8853
 1886TIP3   OH227148   4.924   1.279   4.897 -0.0440 -0.1032  0.1619
 1886TIP3    H127149   4.949   1.193   4.931 -1.2313 -0.8722 -0.7962
 1886TIP3    H227150   4.836   1.265   4.860 -0.4278  1.6242  0.3418
 1887TIP3   OH227151   2.516   1.931  16.687  0.4652  0.6152 -0.6571
 1887TIP3    H127152   2.498   2.023  16.706 -2.1420  0.4308 -1.8119
 1887TIP3    H227153   2.522   1.927  16.592 -2.8229 -0.8267 -0.9291
 1888TIP3   OH227154   1.600   3.298   5.753  0.2209 -0.1920 -0.0721
 1888TIP3    H127155   1.652   3.268   5.827  2.0250  0.4219 -1.0186
 1888TIP3    H227156   1.571   3.386   5.777  0.0191 -0.3481  0.2603
 1889TIP3   OH227157   6.410   3.507  16.048  0.0983 -0.2774  0.1703
 1889TIP3    H127158   6.442   3.425  16.011  2.8390  0.6104  0.3375
 1889TIP3    H227159   6.316   3.493  16.063  0.1754 -2.7641 -1.3214
 1890TIP3   OH227160   1.900   4.757  16.974  0.0709 -0.0803 -0.2659
 1890TIP3    H127161   1.880   4.774  16.882 -0.4212 -1.2469 -0.3980
 1890TIP3    H227162   1.994   4.742  16.976  0.2229  0.7977 -0.4259
 1891TIP3   OH227163   1.692   1.345   3.415  0.4772  0.1539  0.0428
 1891TIP3    H127164   1.737   1.372   3.495 -0.0462  0.7668  0.1431
 1891TIP3    H227165   1.603   1.323   3.444  0.3867  0.0473 -0.3129
 1892TIP3   OH227166   1.532   6.437  14.814  0.4493 -0.1868  0.0198
 1892TIP3    H127167   1.594   6.499  14.854  0.6712  0.0745 -0.7196
 1892TIP3    H227168   1.460   6.491  14.783 -0.4997 -0.5521  1.4490
 1893TIP3   OH227169   0.259   6.725  11.118  0.0427 -0.3015  0.6515
 1893TIP3    H127170   0.221   6.765  11.196  1.1881 -0.8719  1.5426
 1893TIP3    H227171   0.208   6.759  11.046 -0.8571  0.4856  1.6301
 1894TIP3   OH227172   2.413   6.448   0.234  0.3135 -0.0806 -0.1749
 1894TIP3    H127173   2.506   6.431   0.219  0.2597 -1.2482  0.7105
 1894TIP3    H227174   2.368   6.374   0.194 -0.1756  0.0094  0.2036
 1895TIP3   OH227175   0.703   3.509   2.989 -0.1711 -0.5027 -0.6730
 1895TIP3    H127176   0.646   3.521   3.065  0.9067 -1.3630  0.3026
 1895TIP3    H227177   0.786   3.550   3.014  0.4500 -1.4839 -1.0628
 1896TIP3   OH227178   4.064   3.708  13.327 -0.0373 -0.0302 -0.0138
 1896TIP3    H127179   4.026   3.780  13.277  0.2548 -0.8653 -1.5133
 1896TIP3    H227180   4.159   3.720  13.319  0.0182 -0.8714 -0.7561
 1897TIP3   OH227181   2.217   2.092   5.581  0.2815  0.1174  0.0141
 1897TIP3    H127182   2.273   2.166   5.603  0.4357  0.1308 -0.4141
 1897TIP3    H227183   2.149   2.091   5.649  0.2496  0.6776 -0.0115
 1898TIP3   OH227184   4.987   4.792   5.840 -0.5690  0.3571  0.6551
 1898TIP3    H127185   5.014   4.784   5.931  1.3174  0.6811  0.1789
 1898TIP3    H227186   5.068   4.779   5.790 -1.5712  0.1139 -0.9775
 1899TIP3   OH227187   6.231   1.049   4.269  0.1021 -0.3443 -0.2942
 1899TIP3    H127188   6.172   0.998   4.324  0.4402 -1.7225 -1.1770
 1899TIP3    H227189   6.188   1.052   4.183  0.9509 -0.7544 -0.7546
 1900TIP3   OH227190   4.203   4.838  15.557  0.2384  0.3754  0.1653
 1900TIP3    H127191   4.287   4.865  15.521  0.6277 -0.7339  0.2235
 1900TIP3    H227192   4.201   4.878  15.645  1.3017 -0.6710  0.6948
 1901TIP3   OH227193   6.227   5.041  12.559  0.5968 -0.1200  0.1375
 1901TIP3    H127194   6.229   5.116  12.619  0.7969 -0.2480  0.2902
 1901TIP3    H227195   6.314   5.002  12.566  0.6311 -0.1185 -0.2569
 1902TIP3   OH227196   1.041   3.697   0.708  0.5140 -0.1886  0.2473
 1902TIP3    H127197   1.117   3.754   0.716  0.3710 -0.2028  1.9594
 1902TIP3    H227198   0.968   3.756   0.688  1.0135 -0.2322 -2.0028
 1903TIP3   OH227199   4.199   2.283  15.929 -0.4256  0.0119  0.8847
 1903TIP3    H127200   4.119   2.275  15.877 -0.6940  0.3021  1.2434
 1903TIP3    H227201   4.216   2.194  15.960  0.1864 -0.3111 -0.3422
 1904TIP3   OH227202   3.165   4.183  13.789 -0.6808  0.5138  0.9356
 1904TIP3    H127203   3.208   4.102  13.818  1.0974  0.3769 -1.6927
 1904TIP3    H227204   3.120   4.216  13.866  1.7370 -0.9725  3.1295
 1905TIP3   OH227205   0.521   3.177  16.883  0.8809  0.2109  0.2923
 1905TIP3    H127206   0.599   3.214  16.842  0.8482  0.2337  0.2502
 1905TIP3    H227207   0.454   3.245  16.873  0.5134 -0.2752 -0.7564
 1906TIP3   OH227208   6.726   0.242  11.787 -0.4913  1.1817  0.5742
 1906TIP3    H127209   6.818   0.251  11.810  0.0389  0.0547 -0.9183
 1906TIP3    H227210   6.710   0.148  11.788 -1.3247  1.2951 -0.2302
 1907TIP3   OH227211   2.662   3.312   2.224  0.3092 -0.4172  0.6456
 1907TIP3    H127212   2.699   3.335   2.138 -0.0734 -0.3289  0.5021
 1907TIP3    H227213   2.718   3.357   2.287 -0.2664  0.6938  0.3821
 1908TIP3   OH227214   4.613   0.280   2.570  0.8685  0.0925 -0.0391
 1908TIP3    H127215   4.530   0.300   2.527  0.8618 -0.4599 -0.2945
 1908TIP3    H227216   4.679   0.294   2.503  0.7253 -2.5001 -0.8587
 1909TIP3   OH227217   2.849   4.470   1.665 -0.3894  0.3791 -0.0809
 1909TIP3    H127218   2.777   4.418   1.702  0.7777 -1.6763 -0.5260
 1909TIP3    H227219   2.809   4.515   1.590 -1.3750 -0.2048  0.0675
 1910TIP3   OH227220   3.880   3.513   6.042  0.0189  0.0792  0.0483
 1910TIP3    H127221   3.837   3.554   6.118 -0.1836 -0.8254  0.4286
 1910TIP3    H227222   3.880   3.420   6.062 -0.7614 -0.2679 -1.4361
 1911TIP3   OH227223   4.335   0.878  16.543  0.2654  0.6226  0.5225
 1911TIP3    H127224   4.246   0.876  16.577  0.2309  2.0606  0.5663
 1911TIP3    H227225   4.368   0.789  16.557 -0.8014  0.3475  1.4436
 1912TIP3   OH227226   2.008   4.006   0.604  0.0982  0.0636 -0.0720
 1912TIP3    H127227   2.019   3.967   0.691 -0.9934  1.1133  0.5622
 1912TIP3    H227228   2.097   4.032   0.578  0.2370  1.3771  1.5501
 1913TIP3   OH227229   4.986   4.875   5.390  0.5022 -0.0117 -0.1364
 1913TIP3    H127230   4.971   4.817   5.315  1.6289  1.0513 -1.2132
 1913TIP3    H227231   5.078   4.860   5.413  0.7798  1.2769 -0.3774
 1914TIP3   OH227232   2.826   6.725  15.237 -0.2424 -0.1687 -0.1533
 1914TIP3    H127233   2.824   6.764  15.149 -2.5668  0.4947  0.1145
 1914TIP3    H227234   2.844   6.799  15.295 -0.0655 -0.3558  0.0304
 1915TIP3   OH227235   5.399   0.297  11.933 -0.1100  0.4913  0.4979
 1915TIP3    H127236   5.305   0.298  11.921  0.0455  0.6560 -0.7818
 1915TIP3    H227237   5.418   0.379  11.980 -0.6064  0.3822  0.8965
 1916TIP3   OH227238   2.462   1.380  16.594  0.5984 -0.2383  0.5150
 1916TIP3    H127239   2.504   1.333  16.666  2.2391 -1.3716 -1.0804
 1916TIP3    H227240   2.396   1.319  16.561  1.7099 -0.8702 -0.6129
 1917TIP3   OH227241   4.888   1.735   1.805 -0.2227  0.3713  0.0929
 1917TIP3    H127242   4.832   1.812   1.795 -2.1137 -0.7934  0.9873
 1917TIP3    H227243   4.906   1.705   1.716 -0.1051  1.4075 -0.2358
 1918TIP3   OH227244   3.658   2.740  14.283  0.2678  0.3548  0.6583
 1918TIP3    H127245   3.675   2.718  14.191  1.3283  0.5030  0.7985
 1918TIP3    H227246   3.715   2.680  14.332  0.7255  1.1833  1.1603
 1919TIP3   OH227247   5.112   2.323  15.081 -0.5443 -0.1574  0.0271
 1919TIP3    H127248   5.129   2.368  14.999  0.1535 -1.5507 -0.6337
 1919TIP3    H227249   5.084   2.392  15.141  0.5308  1.1439 -0.9045
 1920TIP3   OH227250   1.192   5.740  13.436 -0.5640 -0.1169 -0.0476
 1920TIP3    H127251   1.157   5.807  13.378 -0.5698  0.0422  0.1409
 1920TIP3    H227252   1.266   5.703  13.388  1.5486  2.2651  1.1719
 1921TIP3   OH227253   6.584   6.376  11.729  0.6376  0.0927 -0.2466
 1921TIP3    H127254   6.645   6.306  11.753 -1.1264 -1.1580  0.8288
 1921TIP3    H227255   6.511   6.331  11.687 -1.8716  0.7772  2.9476
 1922TIP3   OH227256   2.330   1.079   5.924 -0.6702 -0.2238 -0.0473
 1922TIP3    H127257   2.355   1.051   6.012  0.7167 -0.5955 -0.5396
 1922TIP3    H227258   2.370   1.165   5.914 -0.3169 -0.4348 -0.5147
 1923TIP3   OH227259   0.202   0.007  14.161 -1.0996  0.1439 -0.6888
 1923TIP3    H127260   0.215   0.100  14.142  0.1535  0.1227 -0.0157
 1923TIP3    H227261   0.273  -0.037  14.115  0.4824 -0.1290  1.7948
 1924TIP3   OH227262   5.163   2.233   2.706 -0.2215  0.0805 -0.1007
 1924TIP3    H127263   5.124   2.159   2.658  1.8824 -0.9493 -0.3727
 1924TIP3    H227264   5.175   2.301   2.639 -0.2390 -0.1460 -0.3378
 1925TIP3   OH227265   1.746   1.685   5.593  0.1676  0.4380 -0.1352
 1925TIP3    H127266   1.740   1.611   5.533  1.3651  1.1832 -1.2352
 1925TIP3    H227267   1.660   1.727   5.588  0.4338  0.8533 -1.8701
 1926TIP3   OH227268   4.417   5.478   2.636  0.1234  0.3457 -0.3104
 1926TIP3    H127269   4.482   5.548   2.629 -1.2000  1.4598 -3.2812
 1926TIP3    H227270   4.412   5.459   2.730  3.3580  1.4386  0.2162
 1927TIP3   OH227271   2.256   2.743  14.377 -0.2802  0.4476 -0.0085
 1927TIP3    H127272   2.233   2.815  14.318 -0.8116 -0.6170 -1.1498
 1927TIP3    H227273   2.200   2.671  14.349  1.4982 -0.9686 -0.0863
 1928TIP3   OH227274   2.737   5.850   5.769  0.6889 -0.1155  0.4629
 1928TIP3    H127275   2.729   5.929   5.823  0.5637  0.4411 -0.3455
 1928TIP3    H227276   2.807   5.800   5.809  1.7050  1.0619  0.1990
 1929TIP3   OH227277   4.575   6.083  16.413  0.1736 -0.2408  0.0106
 1929TIP3    H127278   4.481   6.067  16.407  0.2952 -1.8689  1.7813
 1929TIP3    H227279   4.613   6.022  16.350  0.0542  0.7835 -1.0907
 1930TIP3   OH227280   2.333   4.189  15.852 -1.1116 -0.0993 -0.6460
 1930TIP3    H127281   2.320   4.258  15.917  0.3508  0.0991 -0.5201
 1930TIP3    H227282   2.428   4.181  15.844 -1.2168 -2.2816 -0.4769
 1931TIP3   OH227283   5.233   5.790  12.349 -0.6522  0.1344 -0.2902
 1931TIP3    H127284   5.177   5.793  12.427  0.0051 -1.6542  0.2812
 1931TIP3    H227285   5.171   5.789  12.276 -1.3110  0.2006  0.2535
 1932TIP3   OH227286   1.153   3.337  13.057  0.0761  0.4306 -0.1644
 1932TIP3    H127287   1.225   3.357  13.117  0.6245 -1.4572 -0.1128
 1932TIP3    H227288   1.158   3.242  13.045 -3.3623 -0.0726  1.0775
 1933TIP3   OH227289   2.919   3.368  13.034 -0.0111 -0.2288  0.1474
 1933TIP3    H127290   2.830   3.351  13.065 -0.3804  0.4141 -0.5533
 1933TIP3    H227291   2.958   3.281  13.025  0.1098 -0.4617  2.3667
 1934TIP3   OH227292   2.874   4.547  12.529 -0.5004 -0.4806  0.0115
 1934TIP3    H127293   2.801   4.561  12.590 -0.3821  2.9977 -0.4191
 1934TIP3    H227294   2.833   4.508  12.452 -1.2873 -1.6290  0.9717
 1935TIP3   OH227295   1.755   3.866   1.569  0.0969 -0.5747  0.5940
 1935TIP3    H127296   1.760   3.942   1.512 -1.1500 -1.1482 -0.3015
 1935TIP3    H227297   1.740   3.903   1.656  0.0243  0.2144  0.2567
 1936TIP3   OH227298   1.381   6.032   2.793  0.0630 -0.4781 -0.1866
 1936TIP3    H127299   1.408   5.954   2.842  1.8961 -0.7033 -1.4631
 1936TIP3    H227300   1.441   6.037   2.719 -1.6464  0.7147 -1.6000
 1937TIP3   OH227301   0.522   2.304  11.149 -0.6179  0.5874  0.5060
 1937TIP3    H127302   0.549   2.349  11.229 -1.6288  2.0587  0.0618
 1937TIP3    H227303   0.579   2.227  11.145 -0.6648  0.3577  2.7268
 1938TIP3   OH227304   1.922   1.914   3.680 -0.0650 -0.4449  0.4221
 1938TIP3    H127305   1.844   1.940   3.728  0.1326 -0.3746  0.7101
 1938TIP3    H227306   1.899   1.830   3.639 -0.1264 -0.6799  0.9241
 1939TIP3   OH227307   3.782   4.979  13.226  0.0705 -0.1392 -0.5826
 1939TIP3    H127308   3.716   5.034  13.269 -0.6195 -1.4206  0.0805
 1939TIP3    H227309   3.731   4.925  13.165  0.2591 -1.9791  0.7754
 1940TIP3   OH227310   3.327   0.751  13.559 -0.0432 -0.1180  0.3516
 1940TIP3    H127311   3.331   0.840  13.523 -1.5508  0.4681  1.4902
 1940TIP3    H227312   3.361   0.760  13.648  0.3052 -0.7985  0.2874
 1941TIP3   OH227313   4.473   1.160   4.274 -0.3531 -0.3410  0.0073
 1941TIP3    H127314   4.499   1.237   4.324  0.1067 -0.5494  0.1020
 1941TIP3    H227315   4.394   1.187   4.227 -0.7362 -0.1190  0.7715
 1942TIP3   OH227316   4.215   6.015   0.661  0.0037 -0.8700  0.1882
 1942TIP3    H127317   4.173   6.017   0.575 -0.0108 -0.7095  0.1974
 1942TIP3    H227318   4.191   5.930   0.698  0.2788 -1.0737 -0.0998
 1943TIP3   OH227319   5.172   4.482  10.874 -0.4272  0.1344 -0.2634
 1943TIP3    H127320   5.139   4.566  10.904 -1.7933 -0.2157 -0.6928
 1943TIP3    H227321   5.096   4.423  10.878  0.2498 -0.8268 -0.8968
 1944TIP3   OH227322   6.337   6.193  16.337 -0.0610 -0.4234 -0.1814
 1944TIP3    H127323   6.329   6.235  16.251  0.3591 -0.3405 -0.1842
 1944TIP3    H227324   6.354   6.265  16.397 -2.2660 -0.2287  0.3027
 1945TIP3   OH227325   5.975   2.260   0.293 -0.1729  0.3897  0.1732
 1945TIP3    H127326   6.020   2.344   0.282 -1.1018  0.7966 -0.7249
 1945TIP3    H227327   5.905   2.280   0.356 -0.4961  0.3357 -0.1670
 1946TIP3   OH227328   4.566   5.323  16.299  0.1493  0.1403 -0.0020
 1946TIP3    H127329   4.505   5.255  16.270  1.2655 -1.9525  2.2323
 1946TIP3    H227330   4.558   5.392  16.233  0.9065 -3.1983 -4.0099
 1947TIP3   OH227331   6.027   2.072  12.270  0.6785 -0.5005  0.0078
 1947TIP3    H127332   6.058   1.983  12.286  3.2759 -0.3525 -3.0855
 1947TIP3    H227333   6.106   2.120  12.244 -0.6911  2.6712  1.2034
 1948TIP3   OH227334   5.804   6.613  16.502 -0.6587 -0.3291  0.7026
 1948TIP3    H127335   5.822   6.690  16.449 -1.2974 -1.4386 -1.2246
 1948TIP3    H227336   5.883   6.602  16.556 -0.0166  0.8952  0.0589
 1949TIP3   OH227337   0.139   4.065   4.637  0.2548  0.0951  0.0134
 1949TIP3    H127338   0.172   4.072   4.548  3.2857  1.7257  1.1384
 1949TIP3    H227339   0.080   4.139   4.647  1.2770  0.9614 -0.1625
 1950TIP3   OH227340   4.672   4.176   0.052  0.1763 -0.2762  0.0186
 1950TIP3    H127341   4.714   4.145   0.132  1.0297 -1.6379 -0.9194
 1950TIP3    H227342   4.611   4.106   0.028  0.0836  0.0203 -0.6426
 1951TIP3   OH227343   3.157   5.560   5.522  0.0165  0.0158 -0.1506
 1951TIP3    H127344   3.137   5.646   5.484  0.6595 -0.0006 -0.5425
 1951TIP3    H227345   3.175   5.504   5.446 -1.8307 -0.8636  0.0094
 1952TIP3   OH227346   2.607   5.907  16.285 -0.6307  0.0689 -0.3304
 1952TIP3    H127347   2.551   5.968  16.238  2.3000  1.9856 -1.6607
 1952TIP3    H227348   2.620   5.948  16.371  0.1113  0.5555 -0.6675
 1953TIP3   OH227349   3.943   1.603  12.798  0.1059 -0.0813 -0.9213
 1953TIP3    H127350   3.895   1.549  12.736 -2.0814 -0.4845  0.9929
 1953TIP3    H227351   3.942   1.690  12.760 -0.2784 -0.5053 -1.9209
 1954TIP3   OH227352   2.293   5.170  15.341 -0.2575  0.8347 -0.2160
 1954TIP3    H127353   2.229   5.099  15.341  0.4569  0.1083  1.8639
 1954TIP3    H227354   2.244   5.246  15.311 -1.7706  0.0306  0.0811
 1955TIP3   OH227355   5.604   5.707  16.170  0.0097  0.0761  0.2361
 1955TIP3    H127356   5.563   5.622  16.187 -1.1986  1.0402  2.7533
 1955TIP3    H227357   5.534   5.771  16.187  0.7041  1.6159 -2.1672
 1956TIP3   OH227358   0.822   4.280   4.857 -0.6195  0.2800 -0.0698
 1956TIP3    H127359   0.818   4.302   4.950 -0.9604 -0.4021  0.0879
 1956TIP3    H227360   0.839   4.185   4.856 -0.6204  0.2818 -0.6993
 1957TIP3   OH227361   5.757   3.672  12.518  0.2136 -0.1761 -0.8025
 1957TIP3    H127362   5.708   3.637  12.592  0.7931  0.0286 -0.3129
 1957TIP3    H227363   5.707   3.645  12.441 -1.8184  1.8027 -0.2690
 1958TIP3   OH227364   5.257   1.833  14.704 -0.1881  0.0582 -0.0643
 1958TIP3    H127365   5.331   1.884  14.671  0.3609  0.6592  1.9268
 1958TIP3    H227366   5.293   1.746  14.720  0.2268  0.4519  1.2579
 1959TIP3   OH227367   2.048   4.534  13.444 -0.2861  0.0994 -0.0799
 1959TIP3    H127368   2.133   4.499  13.472  0.1905  1.1456 -0.1685
 1959TIP3    H227369   2.040   4.508  13.352  0.4150  0.8497 -0.3667
 1960TIP3   OH227370   5.998   6.362  13.844  0.2075  0.2869 -0.1187
 1960TIP3    H127371   5.962   6.450  13.856 -1.6406 -0.4436  0.0369
 1960TIP3    H227372   6.065   6.355  13.911  0.1645  1.4549  0.0808
 1961TIP3   OH227373   2.435   0.627   3.951 -0.3275 -0.0815  0.1687
 1961TIP3    H127374   2.513   0.683   3.952  0.1105 -0.6356 -1.0241
 1961TIP3    H227375   2.419   0.609   3.858 -1.4988 -0.5065  0.4314
 1962TIP3   OH227376   1.227   1.302   3.208 -0.0892 -0.3972  0.2109
 1962TIP3    H127377   1.301   1.242   3.213  0.2640  0.0141  0.0011
 1962TIP3    H227378   1.266   1.389   3.212 -0.3079 -0.1115 -2.2586
 1963TIP3   OH227379   2.428   3.634  14.246  0.0379 -0.0436  0.2922
 1963TIP3    H127380   2.363   3.565  14.231 -0.0880 -0.3376  2.0473
 1963TIP3    H227381   2.503   3.608  14.192 -0.5739 -0.7420 -0.2377
 1964TIP3   OH227382   2.115   0.413   6.768 -0.5045 -0.0211 -0.5775
 1964TIP3    H127383   2.122   0.499   6.726  0.3176 -0.2632 -0.9682
 1964TIP3    H227384   2.203   0.376   6.762 -0.6484 -0.5519  0.3376
 1965TIP3   OH227385   3.953   4.204  11.790  0.6520  0.2764 -0.4534
 1965TIP3    H127386   3.935   4.133  11.851 -0.1426  0.7936 -0.0585
 1965TIP3    H227387   3.923   4.283  11.836 -2.1030  0.4740 -2.3171
 1966TIP3   OH227388   1.452   2.006  12.207  0.4554 -0.8914 -0.4462
 1966TIP3    H127389   1.513   1.961  12.149  0.8794  1.6677 -2.1912
 1966TIP3    H227390   1.506   2.041  12.278  1.1965  1.3650 -1.9819
 1967TIP3   OH227391   1.468   3.285   3.051 -0.1954 -0.4779  0.2648
 1967TIP3    H127392   1.484   3.315   2.962 -0.1074 -1.7674 -0.1868
 1967TIP3    H227393   1.512   3.200   3.056 -0.0508 -0.3579  1.5986
 1968TIP3   OH227394   3.141   2.513  10.546  1.0838 -0.2716  0.2834
 1968TIP3    H127395   3.181   2.573  10.482 -1.7579 -0.3853 -1.8035
 1968TIP3    H227396   3.082   2.569  10.596  0.8694 -0.7699  0.5871
 1969TIP3   OH227397   4.249   4.123   1.014 -0.1629 -0.5065 -0.3880
 1969TIP3    H127398   4.207   4.188   1.070 -1.1991 -0.6835 -0.9341
 1969TIP3    H227399   4.215   4.039   1.045 -0.2666 -0.6467 -0.8712
 1970TIP3   OH227400   5.664   3.347  10.526 -0.2188  0.3806 -0.2652
 1970TIP3    H127401   5.668   3.300  10.443  0.8559 -0.5561  0.2930
 1970TIP3    H227402   5.711   3.429  10.509  0.4916 -0.0511 -0.4451
 1971TIP3   OH227403   0.241   4.243   6.111 -0.2019 -0.0578 -0.3291
 1971TIP3    H127404   0.227   4.269   6.020  1.3552 -0.3240 -0.6696
 1971TIP3    H227405   0.188   4.305   6.161  0.5635  1.4714 -1.3172
 1972TIP3   OH227406   2.888   3.501   1.616 -0.5132  0.0954  0.0367
 1972TIP3    H127407   2.896   3.585   1.569  0.5013 -0.5695 -1.0394
 1972TIP3    H227408   2.919   3.436   1.553 -1.7145 -1.1566  0.6940
 1973TIP3   OH227409   1.680   4.774  14.543 -0.1733  0.1688 -0.3690
 1973TIP3    H127410   1.674   4.829  14.621 -0.7859 -1.7419  1.0059
 1973TIP3    H227411   1.769   4.741  14.544  0.2266  1.1487 -1.2522
 1974TIP3   OH227412   0.273   0.639  12.891  0.0329  0.6003 -0.0603
 1974TIP3    H127413   0.269   0.592  12.807 -0.1135 -2.0901  1.3478
 1974TIP3    H227414   0.363   0.671  12.897 -0.3904  2.3169 -1.9386
 1975TIP3   OH227415   2.884   4.298  10.475  0.1882 -0.4225 -0.1412
 1975TIP3    H127416   2.841   4.379  10.502  1.0797  1.2608 -3.1994
 1975TIP3    H227417   2.975   4.323  10.461  0.5920 -2.0912 -0.6693
 1976TIP3   OH227418   4.097   5.812  13.103  0.0064 -0.5591 -0.2494
 1976TIP3    H127419   4.029   5.878  13.114 -0.1175 -0.6965 -0.1770
 1976TIP3    H227420   4.053   5.739  13.058 -0.6477 -1.7863  2.1853
 1977TIP3   OH227421   0.440   3.309  11.594 -0.4519  0.4161  0.1413
 1977TIP3    H127422   0.430   3.394  11.552 -0.3239  0.1527 -0.4409
 1977TIP3    H227423   0.394   3.248  11.535 -3.4109  0.4946  2.1069
 1978TIP3   OH227424   2.271   5.705  12.792  0.0639 -0.1061  0.2868
 1978TIP3    H127425   2.348   5.676  12.741  0.2251 -1.3530  1.1957
 1978TIP3    H227426   2.308   5.737  12.874 -0.2990  0.6214  0.1690
 1979TIP3   OH227427   1.840   3.248  15.364  0.5382 -0.2899 -0.5550
 1979TIP3    H127428   1.746   3.267  15.365  0.4387 -0.7568  0.2086
 1979TIP3    H227429   1.845   3.153  15.365  1.0003 -0.2750  0.6475
 1980TIP3   OH227430   2.842   6.630   3.429 -0.2612 -0.0083 -0.3204
 1980TIP3    H127431   2.810   6.616   3.519 -0.7384 -0.0753 -0.4968
 1980TIP3    H227432   2.767   6.666   3.383  0.1982  0.7110 -0.5220
 1981TIP3   OH227433   2.622   3.745  15.882 -0.5943 -0.0935  0.4087
 1981TIP3    H127434   2.587   3.685  15.948 -0.0032 -1.2585 -0.3106
 1981TIP3    H227435   2.705   3.775  15.919 -0.0747 -1.0525  0.0249
 1982TIP3   OH227436   2.223   1.981   3.577  0.5294 -0.6106  0.3894
 1982TIP3    H127437   2.270   1.908   3.618  1.0080 -0.0048  0.9464
 1982TIP3    H227438   2.131   1.956   3.581  0.6831 -1.1381  0.6614
 1983TIP3   OH227439   1.733   2.873   3.955  0.1003 -0.2398 -0.4280
 1983TIP3    H127440   1.816   2.868   3.907  0.6974 -0.2717  0.5814
 1983TIP3    H227441   1.684   2.942   3.911  0.2719 -0.8592 -1.6252
 1984TIP3   OH227442   0.921   3.726  10.510  0.0017  0.3478  0.2437
 1984TIP3    H127443   0.863   3.654  10.487  1.3168 -0.0176 -2.3165
 1984TIP3    H227444   0.919   3.729  10.606  0.2141 -3.3947  0.5121
 1985TIP3   OH227445   4.580   0.284   5.382 -0.1487  0.3646  0.1749
 1985TIP3    H127446   4.649   0.343   5.410  1.0508 -2.0722  2.8850
 1985TIP3    H227447   4.623   0.224   5.321  0.4276 -1.4524  2.2275
 1986TIP3   OH227448   2.550   2.477  11.777 -0.0502 -0.3836 -0.1855
 1986TIP3    H127449   2.583   2.567  11.783  0.8731 -0.7551  0.6293
 1986TIP3    H227450   2.553   2.445  11.867 -1.6893 -0.7905 -0.2576
 1987TIP3   OH227451   4.794   3.752  13.001  0.5721  0.2107  0.6563
 1987TIP3    H127452   4.875   3.710  13.027  0.7027 -0.1836 -0.3261
 1987TIP3    H227453   4.820   3.841  12.976  0.5215  0.4349  1.3940
 1988TIP3   OH227454   1.982   2.774  15.484  0.3782 -0.2929  0.0044
 1988TIP3    H127455   2.013   2.691  15.519 -0.2198 -0.5040  0.0584
 1988TIP3    H227456   1.920   2.749  15.415 -1.2973  0.0543  1.3082
 1989TIP3   OH227457   2.180   4.345  14.813 -0.0482 -0.3619 -0.7104
 1989TIP3    H127458   2.159   4.265  14.766 -0.5492  0.4278 -1.8864
 1989TIP3    H227459   2.096   4.391  14.820  0.2032 -0.0114  0.0846
 1990TIP3   OH227460   4.256   4.749   5.986 -0.0027 -0.1846  0.4855
 1990TIP3    H127461   4.279   4.783   6.073  0.4876 -0.9709  0.6676
 1990TIP3    H227462   4.300   4.665   5.980  0.5947  0.1955 -0.8315
 1991TIP3   OH227463   3.243   0.539   4.174  0.3160 -0.6916 -0.1078
 1991TIP3    H127464   3.151   0.527   4.200 -0.2012 -1.3860 -2.0770
 1991TIP3    H227465   3.286   0.459   4.204  0.3445 -0.2737  1.0068
 1992TIP3   OH227466   1.938   2.243  11.224 -0.5025 -0.1208  0.2142
 1992TIP3    H127467   2.021   2.242  11.272 -0.0884 -0.1290 -0.4903
 1992TIP3    H227468   1.912   2.151  11.218  0.1087 -0.2435 -0.6946
 1993TIP3   OH227469   6.070   0.604   1.612  0.2013 -0.3081  0.0721
 1993TIP3    H127470   6.121   0.617   1.532 -1.0277  0.1934 -0.6548
 1993TIP3    H227471   6.136   0.595   1.681  1.2851 -0.6270 -0.9657
 1994TIP3   OH227472   2.234   3.877  14.741 -0.5860 -0.5639  0.4030
 1994TIP3    H127473   2.203   3.858  14.830 -0.1581 -0.7069  0.5221
 1994TIP3    H227474   2.285   3.957  14.750 -1.6308  0.1738  0.0561
 1995TIP3   OH227475   1.797   0.428   0.698  0.0179 -0.3662  0.3774
 1995TIP3    H127476   1.833   0.468   0.777 -0.2720  0.0544  0.3014
 1995TIP3    H227477   1.747   0.498   0.657 -0.3586 -0.7628  0.1503
 1996TIP3   OH227478   1.868   3.578  15.016  0.2039 -0.2470  0.0999
 1996TIP3    H127479   1.911   3.643  14.961 -1.5530 -0.6218 -1.8826
 1996TIP3    H227480   1.854   3.622  15.100  0.5242  1.3577 -0.6483
 1997TIP3   OH227481   4.305   2.228  11.920  0.2584  0.1834  0.0096
 1997TIP3    H127482   4.224   2.225  11.971  0.3156 -1.4328  0.0513
 1997TIP3    H227483   4.337   2.318  11.931 -0.7064  0.3982  1.2685
 1998TIP3   OH227484   4.720   5.429   1.220  0.2369  0.0655 -0.1298
 1998TIP3    H127485   4.761   5.343   1.208  0.7865  0.1793  0.7857
 1998TIP3    H227486   4.779   5.491   1.178 -0.0095  0.0227 -0.5362
 1999TIP3   OH227487   4.078   1.489   0.820 -0.5796  0.3605  0.4049
 1999TIP3    H127488   4.093   1.430   0.894 -0.2262 -1.4248 -0.9966
 1999TIP3    H227489   4.158   1.481   0.768 -1.7464 -0.3599 -1.3727
 2000TIP3   OH227490   4.224   5.660   2.625 -0.2129  0.0661  0.1523
 2000TIP3    H127491   4.264   5.580   2.659 -0.9032 -0.8375 -1.0631
 2000TIP3    H227492   4.246   5.727   2.690  2.0797 -0.6550  0.2126
 2001TIP3   OH227493   2.330   5.326  11.577  0.1549  0.4787 -0.5083
 2001TIP3    H127494   2.290   5.250  11.535  0.6000  0.5950 -1.1647
 2001TIP3    H227495   2.417   5.332  11.538 -0.2242  1.8994 -1.1875
 2002TIP3   OH227496   3.460   6.412   1.117 -0.2952  0.0738  0.4636
 2002TIP3    H127497   3.402   6.469   1.167  0.7803  0.0092  1.8280
 2002TIP3    H227498   3.543   6.460   1.111  0.2653 -0.8378  0.6301
 2003TIP3   OH227499   2.829   2.423   5.190 -0.3678 -0.0132 -0.4675
 2003TIP3    H127500   2.808   2.402   5.099 -0.3860  0.0260 -0.4726
 2003TIP3    H227501   2.828   2.519   5.193 -1.1703 -0.0192 -0.2342
 2004TIP3   OH227502   3.731   5.093  14.306 -0.1577  0.0652  0.2836
 2004TIP3    H127503   3.638   5.079  14.326  0.2172 -2.3705  0.6872
 2004TIP3    H227504   3.775   5.016  14.343  2.5355  2.7105  3.1534
 2005TIP3   OH227505   1.975   0.489  12.117 -0.2325  0.2933 -0.4419
 2005TIP3    H127506   1.963   0.486  12.022 -1.1031 -2.7354 -0.3296
 2005TIP3    H227507   1.894   0.531  12.149  0.3112  1.8476 -1.0076
 2006TIP3   OH227508   3.682   5.538  11.637  0.4909 -0.2684  0.0337
 2006TIP3    H127509   3.777   5.539  11.654  0.3693  0.2794  0.7435
 2006TIP3    H227510   3.667   5.614  11.580  0.6413 -1.0481 -1.0570
 2007TIP3   OH227511   0.076   6.558  12.671 -0.1811 -0.5144  0.5124
 2007TIP3    H127512   0.058   6.593  12.758 -0.1291  0.5141  0.1278
 2007TIP3    H227513   0.001   6.587  12.618  0.4397  0.0511 -0.0902
 2008TIP3   OH227514   2.442   2.822  16.717  0.2348  0.0671 -0.0913
 2008TIP3    H127515   2.433   2.916  16.729 -1.0684 -0.0361 -0.1838
 2008TIP3    H227516   2.453   2.787  16.805 -0.4384  0.1884  0.0392
 2009TIP3   OH227517   0.179   1.883   2.293  0.6729  0.1830 -0.1281
 2009TIP3    H127518   0.160   1.898   2.200  0.8066  1.3448  0.0249
 2009TIP3    H227519   0.105   1.921   2.339  0.4617 -0.6558  0.2455
 2010TIP3   OH227520   4.759   5.786  10.594  0.2551 -0.3535  0.0983
 2010TIP3    H127521   4.751   5.854  10.661  0.9020  1.2540 -1.3845
 2010TIP3    H227522   4.671   5.749  10.587 -0.4955  1.3519 -0.0468
 2011TIP3   OH227523   1.467   1.582  14.159  0.2456  0.0570 -0.3939
 2011TIP3    H127524   1.475   1.646  14.230 -2.4649 -1.5849  1.5735
 2011TIP3    H227525   1.535   1.517  14.177  0.1269  0.0964  0.2032
 2012TIP3   OH227526   0.704   5.026   5.242 -0.2410  0.5894  0.2600
 2012TIP3    H127527   0.743   4.980   5.316 -0.3617 -0.3618 -0.2425
 2012TIP3    H227528   0.667   5.106   5.279  1.4268  1.1199  0.9005
 2013TIP3   OH227529   2.255   1.301  11.373  0.1215 -0.2504  0.0554
 2013TIP3    H127530   2.277   1.253  11.293  1.8666  0.3405  0.1274
 2013TIP3    H227531   2.294   1.249  11.443 -0.0050  0.0571  0.3573
 2014TIP3   OH227532   3.373   3.368   4.939  0.1867 -0.0141  0.0784
 2014TIP3    H127533   3.448   3.421   4.911  0.5561  0.1378  1.3170
 2014TIP3    H227534   3.396   3.279   4.913 -0.2126  0.3290 -1.5599
 2015TIP3   OH227535   5.335   5.468  13.585 -0.0776 -0.0362  0.0154
 2015TIP3    H127536   5.260   5.501  13.536 -0.3385 -1.7609 -0.8371
 2015TIP3    H227537   5.402   5.536  13.576 -0.5115  0.2010 -1.8091
 2016TIP3   OH227538   3.554   0.972   0.209  0.1301  0.1751 -0.1835
 2016TIP3    H127539   3.619   0.996   0.275  0.8083 -1.9226 -0.0316
 2016TIP3    H227540   3.603   0.970   0.127  0.2040 -1.0770 -0.1223
 2017TIP3   OH227541   4.562   3.477  12.696  0.0691  0.6521  0.0993
 2017TIP3    H127542   4.557   3.569  12.669 -1.1358  0.5036 -0.2389
 2017TIP3    H227543   4.491   3.435  12.648 -0.2236 -0.2044  1.2644
 2018TIP3   OH227544   2.115   5.002  16.211 -0.2891 -0.2930  0.0798
 2018TIP3    H127545   2.107   5.098  16.218 -2.0419 -0.5164  1.9182
 2018TIP3    H227546   2.092   4.984  16.120  1.3801  1.1035 -0.6802
 2019TIP3   OH227547   2.194   1.719   0.099 -0.1051  0.3461  0.2326
 2019TIP3    H127548   2.150   1.764   0.027 -1.1756 -0.7819  0.1473
 2019TIP3    H227549   2.248   1.786   0.140 -1.3151  1.5894 -0.1321
 2020TIP3   OH227550   3.910   2.911  16.211  0.3589 -0.5367 -0.5705
 2020TIP3    H127551   3.852   2.836  16.225 -0.6308  0.6247  2.1632
 2020TIP3    H227552   3.980   2.899  16.275  0.8483  0.2510 -0.9495
 2021TIP3   OH227553   6.209   2.723  16.021  0.2541  0.2713  0.4218
 2021TIP3    H127554   6.268   2.676  16.081  0.9268 -2.0495 -1.8660
 2021TIP3    H227555   6.260   2.736  15.942 -1.8713 -0.7913 -1.2435
 2022TIP3   OH227556   2.352   6.655  16.827  0.0606  0.3884  0.0053
 2022TIP3    H127557   2.341   6.698  16.743 -0.0476 -1.2618 -0.8759
 2022TIP3    H227558   2.444   6.629  16.829  0.2002  0.9202  0.6539
 2023TIP3   OH227559   6.317   2.061  10.661 -0.1768 -0.0256 -0.2785
 2023TIP3    H127560   6.237   2.112  10.677 -0.1160 -0.5181  1.8140
 2023TIP3    H227561   6.296   1.973  10.692  1.0821 -0.2263  0.0304
 2024TIP3   OH227562   0.074   0.212  13.498 -0.0713 -0.7801  0.7707
 2024TIP3    H127563   0.051   0.250  13.413 -1.6443  0.0008  1.5239
 2024TIP3    H227564   0.115   0.128  13.476  0.1736 -0.2874 -0.7708
 2025TIP3   OH227565   1.363   5.733  10.711  0.1158  0.1218  0.2506
 2025TIP3    H127566   1.335   5.643  10.725  0.5534 -0.5934 -2.8260
 2025TIP3    H227567   1.425   5.751  10.781  0.7381 -2.3131  0.3907
 2026TIP3   OH227568   5.373   0.905  12.241  0.4405  0.3932 -0.4106
 2026TIP3    H127569   5.452   0.850  12.243 -1.5180 -2.7784 -2.1693
 2026TIP3    H227570   5.385   0.960  12.163  1.0526  0.1908 -0.4691
 2027TIP3   OH227571   2.145   2.590  12.336  0.9094  0.1075  0.0734
 2027TIP3    H127572   2.131   2.629  12.249 -1.1835  0.3867  0.4840
 2027TIP3    H227573   2.156   2.666  12.394  0.9232 -0.0297  0.2497
 2028TIP3   OH227574   5.088   0.881   5.002 -0.9864 -0.6618  0.0023
 2028TIP3    H127575   5.004   0.912   5.036 -1.4278 -2.6185  0.8822
 2028TIP3    H227576   5.127   0.833   5.075  0.7760 -0.0555 -0.4940
 2029TIP3   OH227577   5.474   5.859   3.407 -0.0526  0.0880 -0.2605
 2029TIP3    H127578   5.397   5.908   3.378  0.2558 -0.7590 -2.7674
 2029TIP3    H227579   5.535   5.927   3.438 -1.5731  0.7966  1.3170
 2030TIP3   OH227580   3.809   0.090   1.788 -0.2818 -0.3463 -0.8700
 2030TIP3    H127581   3.891   0.095   1.739  0.8609  0.6798  1.0344
 2030TIP3    H227582   3.830   0.126   1.874 -2.4872 -1.0186  0.0226
 2031TIP3   OH227583   6.079   4.612   1.392 -0.5430 -0.7390 -0.4119
 2031TIP3    H127584   5.995   4.596   1.349 -2.6797  1.8179  2.3719
 2031TIP3    H227585   6.101   4.529   1.434 -2.6624 -1.0301  0.2688
 2032TIP3   OH227586   5.621   5.556  11.973 -0.1704  0.4274  0.2714
 2032TIP3    H127587   5.689   5.608  12.014 -0.4853  1.6481 -0.6814
 2032TIP3    H227588   5.613   5.593  11.885 -0.9377 -0.7506 -0.1757
 2033TIP3   OH227589   0.109   4.136  10.887  0.2702 -0.2080 -0.1480
 2033TIP3    H127590   0.054   4.151  10.811  0.3838  1.1499  0.0048
 2033TIP3    H227591   0.178   4.077  10.856  0.1815  0.1372 -1.0367
 2034TIP3   OH227592   4.440   1.486  16.705 -0.1700 -0.0406 -0.6721
 2034TIP3    H127593   4.372   1.486  16.772  0.3477  1.1640 -0.1160
 2034TIP3    H227594   4.436   1.573  16.665  0.6070 -0.1734 -1.0706
 2035TIP3   OH227595   0.997   1.951  15.339 -0.8876  0.2550  0.1658
 2035TIP3    H127596   1.045   1.870  15.325 -1.1350  0.2654 -0.8562
 2035TIP3    H227597   1.044   1.995  15.409 -0.6339 -0.6758  0.5987
 2036TIP3   OH227598   5.170   6.456   4.974  0.2702  0.6479  0.4214
 2036TIP3    H127599   5.076   6.442   4.965 -0.0406 -0.1707  3.7029
 2036TIP3    H227600   5.211   6.380   4.933 -0.4753  0.8296 -0.6879
 2037TIP3   OH227601   3.937   0.662   4.391  0.3182  0.2905 -0.3182
 2037TIP3    H127602   3.944   0.661   4.295  1.0098  2.8080 -0.3469
 2037TIP3    H227603   3.975   0.578   4.418  0.4001 -0.3356 -2.2159
 2038TIP3   OH227604   6.173   1.324  13.343  0.2504  0.1826 -0.2166
 2038TIP3    H127605   6.216   1.409  13.356  1.9037 -0.0831 -3.0771
 2038TIP3    H227606   6.114   1.339  13.269  0.6135 -1.1453 -0.7947
 2039TIP3   OH227607   5.631   3.807  12.794 -0.4786 -0.1725 -1.1929
 2039TIP3    H127608   5.569   3.748  12.750  0.1828 -0.5718 -1.6011
 2039TIP3    H227609   5.679   3.848  12.723 -0.1014 -0.0460 -0.8667
 2040TIP3   OH227610   5.033   5.907   4.448 -0.4404 -0.1017 -0.4997
 2040TIP3    H127611   5.104   5.891   4.385 -1.1331  0.5028 -1.4593
 2040TIP3    H227612   4.984   5.824   4.449 -0.9133  0.1498 -1.4135
 2041TIP3   OH227613   0.463   6.180   2.313  0.4024 -0.1562  0.3607
 2041TIP3    H127614   0.416   6.256   2.280  1.3478  0.5124  0.5011
 2041TIP3    H227615   0.396   6.114   2.328 -0.5405  0.9018  0.9418
 2042TIP3   OH227616   0.977   0.630  11.028 -0.4640 -0.0371 -0.5206
 2042TIP3    H127617   1.010   0.578  10.954 -0.8100  0.1286 -0.7973
 2042TIP3    H227618   0.961   0.716  10.991 -0.2802  0.1543 -0.1569
 2043TIP3   OH227619   2.309   1.734  13.571  0.0973 -0.0120 -0.1137
 2043TIP3    H127620   2.346   1.703  13.489 -0.3149 -1.3903  0.1910
 2043TIP3    H227621   2.240   1.671  13.591 -0.3645  0.7765  0.8680
 2044TIP3   OH227622   0.352   3.986  11.554  0.0617  0.2889 -0.2866
 2044TIP3    H127623   0.415   3.927  11.594  0.5113  0.6937 -0.3872
 2044TIP3    H227624   0.389   4.073  11.566 -1.2683  0.7007  1.1054
 2045TIP3   OH227625   5.405   1.812   5.673  0.3871 -0.1423 -0.2236
 2045TIP3    H127626   5.382   1.719   5.671 -1.4530  0.2418  0.7174
 2045TIP3    H227627   5.386   1.839   5.763  1.9723  0.9141 -0.1667
 2046TIP3   OH227628   0.497   3.505  16.994  0.0801 -0.3883 -0.3091
 2046TIP3    H127629   0.523   3.550  16.913  1.0594 -0.0635  0.1624
 2046TIP3    H227630   0.554   3.543  17.061  1.0653 -2.4139  0.0930
 2047TIP3   OH227631   2.427   1.157  10.576  0.1458 -0.8249  0.0524
 2047TIP3    H127632   2.508   1.146  10.626  0.3438 -1.5895 -0.4201
 2047TIP3    H227633   2.429   1.086  10.512 -0.8226 -0.7540 -0.0658
 2048TIP3   OH227634   2.683   3.565  12.446  0.1711  0.0010 -0.3378
 2048TIP3    H127635   2.715   3.481  12.412 -1.3187 -0.5801 -0.3730
 2048TIP3    H227636   2.743   3.630  12.408  2.3366 -1.1235  0.9606
 2049TIP3   OH227637   2.594   0.520  12.633  0.2117  0.4736 -0.0650
 2049TIP3    H127638   2.623   0.573  12.707 -1.5015  0.1001  0.9238
 2049TIP3    H227639   2.663   0.455  12.621 -0.1402 -0.4294  2.2309
 2050TIP3   OH227640   2.211   4.354  11.681 -0.0977  0.2280  0.4637
 2050TIP3    H127641   2.216   4.446  11.655  0.2949 -0.1269 -0.7588
 2050TIP3    H227642   2.242   4.306  11.605  3.0887 -0.7929  2.2291
 2051TIP3   OH227643   1.645   4.639   3.709 -0.3040  0.0598 -0.5755
 2051TIP3    H127644   1.696   4.576   3.761 -0.0909 -1.4524 -2.4812
 2051TIP3    H227645   1.567   4.590   3.682  0.0733  0.4179 -2.4732
 2052TIP3   OH227646   4.012   4.857  15.315  0.3597 -0.1069  0.4245
 2052TIP3    H127647   4.058   4.873  15.398 -0.5012  2.1312  0.5348
 2052TIP3    H227648   4.007   4.943  15.274  1.8193 -1.3108 -2.5772
 2053TIP3   OH227649   1.277   4.306  14.673 -0.4611  0.1139 -0.0337
 2053TIP3    H127650   1.356   4.267  14.634  0.2568  2.1727 -0.7560
 2053TIP3    H227651   1.282   4.282  14.766  0.3940 -0.7410 -0.2788
 2054TIP3   OH227652   0.745   6.753   3.456  0.5759 -1.0557  0.4061
 2054TIP3    H127653   0.757   6.812   3.530 -0.0843 -0.5951  0.1570
 2054TIP3    H227654   0.834   6.727   3.431  0.7832 -1.6640  1.7019
 2055TIP3   OH227655   3.356   4.147  14.492 -0.7582 -0.1336 -0.1130
 2055TIP3    H127656   3.294   4.206  14.449  0.6050 -0.1768 -2.2969
 2055TIP3    H227657   3.328   4.059  14.467 -1.4308 -0.3255  1.2354
 2056TIP3   OH227658   6.493   5.914  10.783  0.0592  0.2036 -0.2540
 2056TIP3    H127659   6.555   5.985  10.799  0.9440 -0.8418  1.1468
 2056TIP3    H227660   6.413   5.941  10.829  0.8842 -0.3522  1.6132
 2057TIP3   OH227661   2.376   1.468  13.275  0.0161  0.3261  0.0886
 2057TIP3    H127662   2.322   1.458  13.354 -0.5994  0.4711 -0.3082
 2057TIP3    H227663   2.428   1.388  13.272  0.5455  0.6178  1.0129
 2058TIP3   OH227664   4.464   1.736  14.725  0.8901 -0.3039 -0.0170
 2058TIP3    H127665   4.546   1.779  14.746  1.7699 -1.6542 -0.5606
 2058TIP3    H227666   4.487   1.644  14.714 -0.5313 -0.5712 -1.0647
 2059TIP3   OH227667   1.694   1.171   4.743 -0.1677  0.5943  0.2486
 2059TIP3    H127668   1.673   1.156   4.836 -1.3689 -0.8126 -0.2055
 2059TIP3    H227669   1.651   1.254   4.722 -1.2535  0.1410  0.5818
 2060TIP3   OH227670   3.701   2.173  13.360 -0.5676 -0.3795  0.1419
 2060TIP3    H127671   3.760   2.154  13.433 -0.7550 -0.2799  0.3211
 2060TIP3    H227672   3.615   2.181  13.401 -0.5125  0.7430  0.0569
 2061TIP3   OH227673   4.144   4.343   5.524 -0.3313  0.0785  0.6741
 2061TIP3    H127674   4.090   4.308   5.595 -0.4980 -1.3404 -0.1147
 2061TIP3    H227675   4.221   4.380   5.567 -0.4619 -0.7002  1.5864
 2062TIP3   OH227676   6.040   6.751   6.094 -0.4659 -0.1950  0.1992
 2062TIP3    H127677   5.991   6.670   6.100 -1.1404  0.2502  0.8554
 2062TIP3    H227678   6.091   6.755   6.175  0.9269 -0.8040 -0.6078
 2063TIP3   OH227679   1.873   6.264  11.801 -0.7856  0.1076  0.0829
 2063TIP3    H127680   1.874   6.201  11.873  1.3053  0.9671  0.8989
 2063TIP3    H227681   1.782   6.292  11.794 -1.5861 -2.2143  0.3430
 2064TIP3   OH227682   6.338   5.720   3.118 -0.1276 -0.2609  0.0412
 2064TIP3    H127683   6.374   5.799   3.078 -0.9396  0.0143 -0.1743
 2064TIP3    H227684   6.292   5.750   3.196  1.2092 -0.7658  1.0725
 2065TIP3   OH227685   1.217   0.155  11.371  0.0841  0.0896  0.4160
 2065TIP3    H127686   1.149   0.098  11.334 -1.0548  0.6498  1.5422
 2065TIP3    H227687   1.295   0.137  11.319 -0.6502 -1.3531 -0.2484
 2066TIP3   OH227688   1.427   3.024   0.465 -0.7195  0.0463 -0.7619
 2066TIP3    H127689   1.355   2.981   0.510 -0.7164  1.8476  1.1306
 2066TIP3    H227690   1.487   2.953   0.441 -0.4355 -1.0260  2.6839
 2067TIP3   OH227691   0.230   4.630   4.318  0.1152 -0.8004 -0.7878
 2067TIP3    H127692   0.324   4.642   4.323  0.4085 -2.6874 -0.8105
 2067TIP3    H227693   0.211   4.625   4.224 -0.0523 -0.1289 -0.7908
 2068TIP3   OH227694   5.542   2.943  15.968 -0.5070 -0.6346 -0.1434
 2068TIP3    H127695   5.634   2.920  15.957  0.2641  1.0690  1.9138
 2068TIP3    H227696   5.533   2.961  16.062 -1.9921  2.7600 -0.7658
 2069TIP3   OH227697   3.843   1.085   2.636 -0.5582  0.5378 -0.0908
 2069TIP3    H127698   3.874   1.133   2.713 -0.4112  1.2356 -0.5759
 2069TIP3    H227699   3.748   1.092   2.640 -0.5133  1.6718 -0.6451
 2070TIP3   OH227700   3.389   2.236   0.131  0.3377  0.2623  0.2668
 2070TIP3    H127701   3.416   2.150   0.100 -0.0386  0.5962 -1.0456
 2070TIP3    H227702   3.357   2.281   0.053 -0.4233  1.2331  1.1084
 2071TIP3   OH227703   3.262   6.362   6.076  1.0433 -0.5693  0.0611
 2071TIP3    H127704   3.179   6.361   6.029  0.5955 -0.9620  0.8277
 2071TIP3    H227705   3.326   6.391   6.012  0.1810  0.5578 -0.3142
 2072TIP3   OH227706   5.492   2.758   4.333 -0.0324 -0.0023  0.1874
 2072TIP3    H127707   5.556   2.829   4.327  0.7620 -0.6152  1.0455
 2072TIP3    H227708   5.428   2.789   4.398  0.1670  0.0354  0.3675
 2073TIP3   OH227709   6.308   1.561  14.949  0.3450 -0.6218  0.3549
 2073TIP3    H127710   6.341   1.626  15.012 -0.4919  0.7729 -0.5805
 2073TIP3    H227711   6.308   1.608  14.865 -2.5453 -1.0018  0.0318
 2074TIP3   OH227712   5.448   6.582   6.638 -0.4765 -0.1913 -1.0255
 2074TIP3    H127713   5.355   6.577   6.613 -0.5677  0.1819 -0.7673
 2074TIP3    H227714   5.471   6.674   6.628 -0.2540 -0.2031 -0.6597
 2075TIP3   OH227715   0.154   1.370  12.114  0.3279  0.3258  0.1096
 2075TIP3    H127716   0.064   1.377  12.146 -0.2886  0.2822 -1.5091
 2075TIP3    H227717   0.194   1.454  12.137 -0.8328  1.2738 -1.1194
 2076TIP3   OH227718   0.300   5.303   2.219  0.1762  0.2083  0.3628
 2076TIP3    H127719   0.293   5.301   2.123  0.7468  0.9773  0.2913
 2076TIP3    H227720   0.243   5.233   2.249  0.6694 -0.6262 -0.5853
 2077TIP3   OH227721   6.524   3.827   0.427 -0.2108 -0.2597  0.1292
 2077TIP3    H127722   6.582   3.751   0.424  1.1865  0.7074  1.2222
 2077TIP3    H227723   6.567   3.888   0.487 -1.2011  1.4767 -0.8320
 2078TIP3   OH227724   5.630   2.970  11.397  0.3928 -0.3996  0.4589
 2078TIP3    H127725   5.560   2.926  11.445 -1.8529  1.0989 -1.2017
 2078TIP3    H227726   5.693   2.901  11.377 -1.2235 -2.1102  0.9826
 2079TIP3   OH227727   5.030   6.265  14.252  0.1980  0.0009 -0.0736
 2079TIP3    H127728   4.936   6.276  14.265  0.0942  1.1801 -1.5614
 2079TIP3    H227729   5.038   6.209  14.175  0.6775  1.0605 -0.8252
 2080TIP3   OH227730   6.057   3.033  13.199 -0.4872 -0.1298  0.2516
 2080TIP3    H127731   5.994   3.059  13.133 -2.1010  2.2444  2.5576
 2080TIP3    H227732   6.023   2.950  13.234 -1.5244  0.3818  0.4664
 2081TIP3   OH227733   6.570   6.373   5.382  0.1844 -0.4708 -0.5045
 2081TIP3    H127734   6.566   6.469   5.380 -0.9238 -0.5039 -0.4617
 2081TIP3    H227735   6.651   6.354   5.429 -1.3085  0.5144  2.8418
 2082TIP3   OH227736   2.598   3.914  12.257  0.5285  0.1011 -0.2155
 2082TIP3    H127737   2.556   4.000  12.255  0.1081 -0.1051 -0.5687
 2082TIP3    H227738   2.612   3.893  12.164  1.6983  0.2979 -0.0977
 2083TIP3   OH227739   1.464   2.286  13.605 -0.2863 -0.0824  0.3245
 2083TIP3    H127740   1.516   2.254  13.679 -0.4500 -1.8821 -0.2786
 2083TIP3    H227741   1.466   2.381  13.613 -0.6368 -0.2312  2.8479
 2084TIP3   OH227742   5.960   3.934  17.219 -0.0987 -0.4388 -0.1016
 2084TIP3    H127743   5.897   3.988  17.267 -0.1599  0.3648 -1.0293
 2084TIP3    H227744   5.994   3.993  17.151  0.0452 -1.4965 -0.9763
 2085TIP3   OH227745   0.087   3.397  15.326  0.1330 -0.2961  0.5961
 2085TIP3    H127746   0.137   3.427  15.251  0.1486  1.3362  1.2240
 2085TIP3    H227747   0.153   3.364  15.387  0.2745  0.0678  0.6395
 2086TIP3   OH227748   0.509   5.001  12.499 -1.0530 -0.0335  0.4109
 2086TIP3    H127749   0.581   5.064  12.504 -0.5716  0.0198 -3.8241
 2086TIP3    H227750   0.464   5.009  12.583  1.4265  2.9142  1.6265
 2087TIP3   OH227751   0.132   1.498   2.464  0.4143  0.3215 -0.5025
 2087TIP3    H127752   0.083   1.419   2.441 -0.2018  0.4665  0.2702
 2087TIP3    H227753   0.128   1.553   2.386 -0.1258  0.0651 -0.6582
 2088TIP3   OH227754   6.107   4.641   2.225 -0.0778  0.2107  0.2050
 2088TIP3    H127755   6.156   4.669   2.303  0.4438  0.9279 -0.3666
 2088TIP3    H227756   6.135   4.551   2.210  1.3011  0.6943 -0.2649
 2089TIP3   OH227757   0.337   1.755  12.006 -0.1252 -0.0439 -0.7892
 2089TIP3    H127758   0.245   1.735  11.989  0.0502 -1.7191 -0.0323
 2089TIP3    H227759   0.354   1.719  12.093  1.1379  0.6203 -0.7363
 2090TIP3   OH227760   6.783   0.442  14.216 -0.2277  0.3762  0.5392
 2090TIP3    H127761   6.820   0.530  14.210 -0.7362  0.5735  0.2966
 2090TIP3    H227762   6.803   0.414  14.306 -1.4846  1.3811  1.1591
 2091TIP3   OH227763   3.283   1.051   3.176 -0.2454  0.0202 -0.0512
 2091TIP3    H127764   3.234   1.133   3.183 -2.2351 -0.9410 -1.7253
 2091TIP3    H227765   3.216   0.983   3.170  1.2593 -2.1901  4.2737
 2092TIP3   OH227766   5.563   3.476  10.993  0.6966 -0.5116 -0.2851
 2092TIP3    H127767   5.543   3.502  11.083  1.1816  4.2172 -1.3030
 2092TIP3    H227768   5.477   3.466  10.952  0.4396  0.4129 -0.0025
 2093TIP3   OH227769   0.792   5.937   4.698  0.6300  0.4227 -0.2315
 2093TIP3    H127770   0.756   5.965   4.782  0.5100  0.3646 -0.2622
 2093TIP3    H227771   0.806   5.843   4.709 -1.1397  0.0366 -0.8832
 2094TIP3   OH227772   4.013   0.607  11.358  0.3172  0.2087 -0.2568
 2094TIP3    H127773   4.016   0.623  11.264 -2.3331  0.9500 -0.2972
 2094TIP3    H227774   3.988   0.691  11.396  0.2942 -0.3346  0.9880
 2095TIP3   OH227775   2.374   1.914   5.361  0.3353 -0.0608 -0.5828
 2095TIP3    H127776   2.456   1.865   5.349  0.6827 -0.0602  1.4424
 2095TIP3    H227777   2.392   1.973   5.434 -1.4435  0.0227 -0.1665
 2096TIP3   OH227778   5.400   4.182   2.461  0.0403  0.1949 -0.0305
 2096TIP3    H127779   5.430   4.174   2.370 -2.6472 -1.3485 -0.9097
 2096TIP3    H227780   5.327   4.243   2.457 -0.0224  0.2159  1.1184
 2097TIP3   OH227781   1.489   0.754  15.785 -0.1442 -0.0387 -0.4591
 2097TIP3    H127782   1.476   0.762  15.880 -2.6797 -1.4864 -0.5749
 2097TIP3    H227783   1.505   0.843  15.755 -0.6392  0.6451  1.1755
 2098TIP3   OH227784   4.092   3.962   1.849 -0.3067 -0.1729 -0.0674
 2098TIP3    H127785   3.998   3.960   1.870 -0.1578  1.2258  0.8587
 2098TIP3    H227786   4.118   4.052   1.866  0.9180 -0.1660 -1.7508
 2099TIP3   OH227787   3.530   6.085  12.627  0.7672  0.2084  0.5081
 2099TIP3    H127788   3.472   6.106  12.701  0.5037 -0.9596  0.6544
 2099TIP3    H227789   3.519   6.158  12.567 -2.3815 -0.7904 -0.3457
 2100TIP3   OH227790   0.464   1.471  14.388 -0.2356  0.5610 -0.5993
 2100TIP3    H127791   0.383   1.430  14.358 -0.0792  1.5458 -2.4905
 2100TIP3    H227792   0.534   1.415  14.355 -0.0987  0.0870  0.4472
 2101TIP3   OH227793   1.369   6.562  12.928  0.1640  0.5268  0.2260
 2101TIP3    H127794   1.318   6.605  12.996  0.7494 -0.5005  1.3473
 2101TIP3    H227795   1.426   6.631  12.894  0.1036  0.9767  1.0151
 2102TIP3   OH227796   2.014   6.484  13.626  0.2352  0.4948 -0.4553
 2102TIP3    H127797   1.988   6.446  13.543  1.9056 -1.8636 -0.0074
 2102TIP3    H227798   1.944   6.462  13.687  0.9850 -1.6515 -0.3050
 2103TIP3   OH227799   4.891   1.166   3.988 -0.1750  0.3961  0.3512
 2103TIP3    H127800   4.977   1.132   3.963  0.6719  2.0566  0.8661
 2103TIP3    H227801   4.897   1.180   4.082 -0.6554  1.4590  0.2347
 2104TIP3   OH227802   1.343   5.405  13.856  0.0019  0.1171 -0.1755
 2104TIP3    H127803   1.426   5.432  13.817 -0.0603  0.0777 -0.3344
 2104TIP3    H227804   1.357   5.415  13.950  0.3368 -0.3137 -0.1753
 2105TIP3   OH227805   5.432   2.334   0.147 -0.1431 -0.1381  0.1780
 2105TIP3    H127806   5.364   2.361   0.209 -0.9688 -1.7483  0.0202
 2105TIP3    H227807   5.430   2.238   0.149  1.9763 -0.2325 -0.0114
 2106TIP3   OH227808   1.835   1.558   5.897  0.1986 -0.3266  0.4751
 2106TIP3    H127809   1.768   1.623   5.877  1.8209  0.8915 -1.4381
 2106TIP3    H227810   1.815   1.485   5.839  1.6505  0.9216 -1.7627
 2107TIP3   OH227811   1.042   5.825  15.652 -0.3050 -0.0792 -0.0609
 2107TIP3    H127812   0.981   5.752  15.651 -0.3707 -0.0477  0.7346
 2107TIP3    H227813   1.123   5.789  15.688 -0.4080  0.2813  0.5523
 2108TIP3   OH227814   5.062   1.967  11.817 -0.1836 -0.4982  0.7244
 2108TIP3    H127815   4.985   2.019  11.797 -1.2593 -1.1571  2.8863
 2108TIP3    H227816   5.094   2.001  11.900  1.0385 -1.1675  0.5638
 2109TIP3   OH227817   1.063   5.217  11.130 -0.0119  0.5561  0.1904
 2109TIP3    H127818   1.074   5.238  11.037 -1.7423 -0.9911 -0.4286
 2109TIP3    H227819   1.104   5.291  11.176  0.3554  1.6632 -1.7786
 2110TIP3   OH227820   5.808   0.443  15.142 -0.5601 -0.0723 -0.8028
 2110TIP3    H127821   5.765   0.391  15.211  2.9690 -1.4634  0.5749
 2110TIP3    H227822   5.832   0.525  15.185 -0.3729 -0.0054 -1.0327
 2111TIP3   OH227823   3.160   1.050   0.141  0.3235 -0.6320  0.1203
 2111TIP3    H127824   3.200   1.132   0.110 -0.8295 -0.4824 -1.0460
 2111TIP3    H227825   3.206   0.982   0.092 -1.5681 -0.3896 -2.1773
 2112TIP3   OH227826   2.316   0.323   2.544  0.0872  0.1457  0.0589
 2112TIP3    H127827   2.319   0.237   2.586 -0.5309  0.1206  0.0648
 2112TIP3    H227828   2.401   0.362   2.563 -0.6721  0.7194  2.5688
 2113TIP3   OH227829   1.139   2.737  15.166 -0.6165 -0.5215 -0.4455
 2113TIP3    H127830   1.050   2.708  15.184 -0.3465 -0.1203  2.0455
 2113TIP3    H227831   1.172   2.766  15.252  1.5079  0.4310 -1.4988
 2114TIP3   OH227832   1.988   1.393  14.174  0.5376 -0.0061 -0.3181
 2114TIP3    H127833   1.922   1.411  14.241  0.2972 -0.3419 -0.4626
 2114TIP3    H227834   2.053   1.463  14.185  0.6964 -0.2729  0.5153
 2115TIP3   OH227835   5.250   5.843   4.035  0.3787 -0.2399  0.1842
 2115TIP3    H127836   5.262   5.925   4.083 -0.0835  0.0232 -0.1450
 2115TIP3    H227837   5.312   5.783   4.076 -0.3190 -0.1536  1.4116
 2116TIP3   OH227838   6.103   1.568  11.497 -0.3615  0.1899  0.7226
 2116TIP3    H127839   6.130   1.481  11.529  1.2694  0.9253  1.4443
 2116TIP3    H227840   6.052   1.604  11.569  2.4333  1.4234  2.2315
 2117TIP3   OH227841   0.939   0.315   6.314 -0.3748 -0.1742 -0.6261
 2117TIP3    H127842   0.918   0.378   6.383  0.0928 -0.3987 -0.2780
 2117TIP3    H227843   0.949   0.231   6.360  1.4487 -0.0497 -0.7509
 2118TIP3   OH227844   3.836   1.608   0.935  0.0086  0.2446  0.5867
 2118TIP3    H127845   3.921   1.570   0.957  0.1162 -1.8849 -2.6828
 2118TIP3    H227846   3.857   1.696   0.902  0.7877  0.1915  0.9137
 2119TIP3   OH227847   5.262   3.877   4.122 -0.1880  0.2662  0.2246
 2119TIP3    H127848   5.167   3.882   4.112 -0.2113 -0.0442  0.2926
 2119TIP3    H227849   5.285   3.957   4.169 -0.3740  0.5118 -0.0938
 2120TIP3   OH227850   1.974   0.834  11.849 -0.2890  0.2841  0.5824
 2120TIP3    H127851   2.018   0.860  11.930 -1.1374 -0.5654  1.3299
 2120TIP3    H227852   1.882   0.823  11.873 -0.5997  0.2576 -0.5523
 2121TIP3   OH227853   6.153   3.019  11.352  0.2265  1.1854 -1.2472
 2121TIP3    H127854   6.213   2.955  11.314 -0.7708  1.7137 -3.9506
 2121TIP3    H227855   6.190   3.104  11.329  1.1783  1.7122  1.7373
 2122TIP3   OH227856   0.988   4.199  15.094 -0.2101 -0.0161  0.3476
 2122TIP3    H127857   0.997   4.192  15.189 -0.7009 -0.5265  0.3634
 2122TIP3    H227858   0.953   4.287  15.080  0.3531  0.2546  0.5974
 2123TIP3   OH227859   4.673   5.695  14.770 -0.3011  0.2500  0.0072
 2123TIP3    H127860   4.701   5.760  14.705 -0.4819  0.5731  0.2452
 2123TIP3    H227861   4.586   5.724  14.796 -0.3590 -0.0592  0.1566
 2124TIP3   OH227862   4.365   5.621   5.403 -0.0792  0.2552 -0.7890
 2124TIP3    H127863   4.282   5.659   5.375 -0.5694 -0.6475 -0.5847
 2124TIP3    H227864   4.431   5.687   5.381 -0.8046  0.8078 -1.3071
 2125TIP3   OH227865   3.590   3.614   4.052 -0.3736  0.0466 -0.0829
 2125TIP3    H127866   3.560   3.647   4.137 -2.6750 -0.3786 -0.6632
 2125TIP3    H227867   3.626   3.690   4.007  0.5835  0.3376  1.1215
 2126TIP3   OH227868   2.251   0.437   1.912 -0.0093 -0.2618 -0.1046
 2126TIP3    H127869   2.329   0.438   1.968 -0.3176 -0.4118  0.3262
 2126TIP3    H227870   2.178   0.444   1.973 -0.2931  1.5658 -0.6036
 2127TIP3   OH227871   0.849   3.836   5.319  0.7046 -0.4280  0.0860
 2127TIP3    H127872   0.844   3.825   5.414 -0.4543 -2.6605 -0.1548
 2127TIP3    H227873   0.897   3.758   5.289  1.1044  0.2765 -1.1585
 2128TIP3   OH227874   5.343   5.389  16.775 -0.3163 -0.2091  0.0284
 2128TIP3    H127875   5.417   5.430  16.730 -0.1590 -0.7631 -0.2167
 2128TIP3    H227876   5.353   5.417  16.867  0.2599 -0.3708  0.0194
 2129TIP3   OH227877   2.423   2.404   5.389  0.3635 -0.0750 -0.0829
 2129TIP3    H127878   2.379   2.488   5.375  0.1398 -0.3840 -1.4413
 2129TIP3    H227879   2.466   2.413   5.474 -0.8273  0.8941  0.4625
 2130TIP3   OH227880   3.163   6.481  14.406  0.2460 -0.0345 -0.1601
 2130TIP3    H127881   3.239   6.449  14.455 -1.3052 -3.3028  0.3578
 2130TIP3    H227882   3.175   6.445  14.318 -0.2592  0.2555 -0.3508
 2131TIP3   OH227883   5.823   3.470  11.913  0.2997  0.3400  0.0180
 2131TIP3    H127884   5.755   3.421  11.865  1.0798  0.1172 -0.8951
 2131TIP3    H227885   5.859   3.406  11.974  2.8683 -1.0420 -2.7017
 2132TIP3   OH227886   0.342   2.195  10.989  0.1774  0.4600 -0.4203
 2132TIP3    H127887   0.407   2.256  11.022  0.0376  0.1092  0.5496
 2132TIP3    H227888   0.278   2.188  11.060  0.7291 -1.5938 -0.0442
 2133TIP3   OH227889   5.737   4.742   4.123  0.2576  0.4237 -0.1650
 2133TIP3    H127890   5.821   4.761   4.164  0.8788 -1.4468 -0.4824
 2133TIP3    H227891   5.726   4.648   4.133 -1.0948  0.4075 -1.4458
 2134TIP3   OH227892   3.900   5.801   5.312 -0.3267  0.0599 -0.3057
 2134TIP3    H127893   3.848   5.753   5.376 -2.3322  0.4317 -1.5631
 2134TIP3    H227894   3.836   5.852   5.262  1.1152 -0.1327 -2.5222
 2135TIP3   OH227895   1.311   4.706  15.215  0.6832 -0.1427  0.1348
 2135TIP3    H127896   1.307   4.764  15.139  0.1274 -2.1859 -1.4940
 2135TIP3    H227897   1.219   4.690  15.238  0.8103 -0.6494  0.3182
 2136TIP3   OH227898   3.637   4.913  12.995  0.1762 -0.3124  0.3442
 2136TIP3    H127899   3.702   4.968  12.953  1.5390 -0.5608  2.0055
 2136TIP3    H227900   3.576   4.889  12.925  2.7997 -1.4689 -1.7067
 2137TIP3   OH227901   1.641   3.658  13.041 -0.0507  0.2909 -0.2971
 2137TIP3    H127902   1.677   3.644  13.129  0.1074  0.3659 -0.3495
 2137TIP3    H227903   1.551   3.686  13.056  0.4900  2.0368 -0.0908
 2138TIP3   OH227904   3.493   0.320  11.678 -0.6526 -0.2923  0.1302
 2138TIP3    H127905   3.404   0.353  11.682 -0.6432 -0.2993  0.4853
 2138TIP3    H227906   3.498   0.256  11.749 -0.9470 -1.7685 -1.1276
 2139TIP3   OH227907   6.329   0.809  16.716 -0.3884 -0.2668 -0.1638
 2139TIP3    H127908   6.400   0.855  16.761 -0.6855  1.6117 -1.5263
 2139TIP3    H227909   6.324   0.724  16.761  1.2540  0.3823  1.3766
 2140TIP3   OH227910   6.417   5.471  11.617  0.4587  0.1024 -0.3487
 2140TIP3    H127911   6.407   5.449  11.525  1.1472  1.3228 -0.7296
 2140TIP3    H227912   6.363   5.549  11.629 -1.5670 -1.3675  0.8714
 2141TIP3   OH227913   6.724   0.424  14.789  0.7189  0.1639 -0.1952
 2141TIP3    H127914   6.740   0.404  14.882  0.4064  1.8394  0.2676
 2141TIP3    H227915   6.806   0.466  14.761  0.9449 -0.6602 -0.7979
 2142TIP3   OH227916   5.024   3.718   0.625  0.7778  0.4222 -0.2392
 2142TIP3    H127917   4.966   3.649   0.659  0.7816  0.3357 -0.4046
 2142TIP3    H227918   4.991   3.735   0.537  0.3787  1.0849  0.0326
 2143TIP3   OH227919   0.814   2.576   5.969 -0.1296  0.2898 -0.2248
 2143TIP3    H127920   0.854   2.513   6.028  2.2287  1.5730 -0.3377
 2143TIP3    H227921   0.730   2.597   6.011  0.3937 -0.6319  1.3986
 2144TIP3   OH227922   6.052   3.549  14.878 -0.1191  0.2384  0.5732
 2144TIP3    H127923   6.126   3.607  14.860  0.4137 -0.5764  0.0959
 2144TIP3    H227924   5.995   3.558  14.801 -0.0392  0.1431  0.5020
 2145TIP3   OH227925   2.985   4.612   0.147 -0.6261 -0.2201  1.0306
 2145TIP3    H127926   3.037   4.543   0.188 -0.8932  0.2334  2.1702
 2145TIP3    H227927   2.961   4.671   0.219  2.0590  2.7407 -0.2401
 2146TIP3   OH227928   3.104   3.803   1.165 -0.2928  0.2618 -0.4550
 2146TIP3    H127929   3.050   3.796   1.087  0.5357 -0.9122 -0.9607
 2146TIP3    H227930   3.121   3.712   1.191  0.9725  0.5993 -0.0099
 2147TIP3   OH227931   2.029   2.652  15.838 -0.2434 -0.1718 -0.4313
 2147TIP3    H127932   2.119   2.669  15.810 -0.8006  0.7546 -1.7745
 2147TIP3    H227933   2.027   2.559  15.857  1.1986 -0.0555  0.4174
 2148TIP3   OH227934   5.665   5.992   5.533  0.1459  0.3734  0.2681
 2148TIP3    H127935   5.703   5.905   5.525  0.9068  0.5114  2.0742
 2148TIP3    H227936   5.620   6.006   5.449 -0.7344 -2.0750  0.2465
 2149TIP3   OH227937   2.484   5.688  13.789  0.1315 -0.3960  0.0791
 2149TIP3    H127938   2.565   5.647  13.819  0.4278  0.7065  0.8092
 2149TIP3    H227939   2.427   5.614  13.767  1.1626 -1.1884 -0.0171
 2150TIP3   OH227940   0.799   6.040  16.385  0.6254 -0.3479 -0.0944
 2150TIP3    H127941   0.804   6.069  16.476 -0.1305  1.2073 -0.5231
 2150TIP3    H227942   0.885   6.058  16.348  2.0806 -3.9481  1.0670
 2151TIP3   OH227943   2.066   2.022   4.082  0.1477 -0.0092  0.2454
 2151TIP3    H127944   2.050   2.093   4.019  0.6115  0.2336  0.3971
 2151TIP3    H227945   2.027   2.054   4.164  1.0927  0.4384  0.5292
 2152TIP3   OH227946   0.609   6.606   3.637  0.0794 -0.1132 -0.0686
 2152TIP3    H127947   0.516   6.600   3.616  0.7942 -3.5294 -3.2947
 2152TIP3    H227948   0.648   6.649   3.562  1.2951 -0.2581  0.4500
 2153TIP3   OH227949   6.774   6.810  14.061 -0.6370 -0.0671 -0.2089
 2153TIP3    H127950   6.724   6.886  14.092 -0.2590 -0.2542  0.9053
 2153TIP3    H227951   6.850   6.806  14.120  0.3104 -0.2241 -1.4068
 2154TIP3   OH227952   5.481   4.393   2.737  0.3994 -0.1370 -0.1815
 2154TIP3    H127953   5.540   4.465   2.757 -2.1342  2.1852 -0.4152
 2154TIP3    H227954   5.481   4.387   2.642 -0.8421  0.9566 -0.2787
 2155TIP3   OH227955   6.312   2.253  13.030  0.8181  0.3515 -0.1201
 2155TIP3    H127956   6.301   2.286  12.940  0.0932  0.4629  0.0003
 2155TIP3    H227957   6.384   2.191  13.024 -2.7690 -4.1951 -2.0820
 2156TIP3   OH227958   5.158   6.358   2.793 -0.1229  0.2717  0.2128
 2156TIP3    H127959   5.231   6.392   2.742 -0.1723 -0.2632 -0.2213
 2156TIP3    H227960   5.080   6.397   2.754 -0.0957  0.5894  0.4715
 2157TIP3   OH227961   1.704   2.931   3.383 -0.2692 -0.6724  0.3755
 2157TIP3    H127962   1.644   2.874   3.335 -0.6344  0.5444 -0.7031
 2157TIP3    H227963   1.791   2.902   3.356 -0.4695  0.2124 -1.3932
 2158TIP3   OH227964   4.313   2.289  15.457 -0.2370  0.3609  0.8721
 2158TIP3    H127965   4.259   2.329  15.389  0.6265 -1.1068 -0.7818
 2158TIP3    H227966   4.259   2.219  15.494  0.1210 -0.4371 -0.0649
 2159TIP3   OH227967   0.958   5.191   0.685 -0.7639 -0.3660 -0.3347
 2159TIP3    H127968   0.968   5.286   0.690 -3.3764 -0.1066  2.3917
 2159TIP3    H227969   0.882   5.177   0.628 -0.8352 -0.7837 -0.1427
 2160TIP3   OH227970   4.916   1.049   2.520  0.0711 -0.0130 -0.3555
 2160TIP3    H127971   4.959   1.094   2.593 -0.8290 -0.4886  0.4988
 2160TIP3    H227972   4.964   0.966   2.512 -0.6495 -0.5406  0.5918
 2161TIP3   OH227973   3.628   3.191   5.396 -0.1301  0.6593  0.0703
 2161TIP3    H127974   3.641   3.096   5.407 -0.6915  0.7228  1.6298
 2161TIP3    H227975   3.707   3.221   5.353  0.8562 -0.2865  1.1447
 2162TIP3   OH227976   2.157   6.220  14.608 -0.0393 -0.4141  0.0547
 2162TIP3    H127977   2.063   6.229  14.590 -0.0478 -0.3363  0.1383
 2162TIP3    H227978   2.200   6.269  14.537 -0.0090 -1.7934 -0.9273
 2163TIP3   OH227979   0.995   4.110  15.691 -0.0618 -0.0995 -0.4734
 2163TIP3    H127980   0.936   4.182  15.712  0.1999  0.1419 -0.5661
 2163TIP3    H227981   1.082   4.149  15.691  0.2117 -0.6707  0.7257
 2164TIP3   OH227982   4.761   2.098  14.605 -0.0853  0.4973  0.2981
 2164TIP3    H127983   4.749   2.078  14.512  0.2874 -0.0077  0.3495
 2164TIP3    H227984   4.673   2.108  14.639 -0.1965  3.0334 -0.5769
 2165TIP3   OH227985   3.587   2.419  16.889  0.3995 -0.1635  0.0379
 2165TIP3    H127986   3.617   2.331  16.910 -0.6144 -0.4030  0.5394
 2165TIP3    H227987   3.539   2.447  16.966  0.1843  0.5915 -0.3607
 2166TIP3   OH227988   3.358   6.425  14.795  0.3349  0.8221  0.0000
 2166TIP3    H127989   3.393   6.481  14.726  0.8870  1.8267  1.0639
 2166TIP3    H227990   3.424   6.429  14.864 -0.1438 -0.2737  0.5437
 2167TIP3   OH227991   1.204   5.180   2.012  0.0397  0.2326 -0.6397
 2167TIP3    H127992   1.254   5.235   2.072  0.0022 -2.2288  1.8710
 2167TIP3    H227993   1.124   5.230   1.995 -0.1042  0.9512  1.7138
 2168TIP3   OH227994   0.401   1.740   5.166  0.2410  0.1361 -0.2596
 2168TIP3    H127995   0.483   1.723   5.121  0.5797 -1.8143  0.9753
 2168TIP3    H227996   0.425   1.751   5.258 -0.6019  2.5404 -0.2345
 2169TIP3   OH227997   0.852   4.242  14.728 -0.0628  0.6239  0.0744
 2169TIP3    H127998   0.918   4.310  14.744  0.4292  0.0533  0.4917
 2169TIP3    H227999   0.876   4.204  14.643 -0.4861  1.1304 -0.2803
 2170TIP3   OH228000   0.283   0.292  14.451  0.4071 -0.3784  0.5418
 2170TIP3    H128001   0.367   0.284  14.405  0.6808  0.3124  0.9050
 2170TIP3    H228002   0.219   0.311  14.382  0.6190 -0.4972  0.3108
 2171TIP3   OH228003   3.289   6.292   0.159 -0.8322  0.7951 -0.1837
 2171TIP3    H128004   3.196   6.309   0.147 -0.9386 -0.1001 -0.6655
 2171TIP3    H228005   3.293   6.208   0.204 -0.2638  0.9053 -0.0193
 2172TIP3   OH228006   3.752   6.113  11.758  0.2829  0.3255  0.1873
 2172TIP3    H128007   3.819   6.131  11.692  0.6492 -0.3993  0.3508
 2172TIP3    H228008   3.746   6.194  11.808  0.4394  0.6773 -0.3478
 2173TIP3   OH228009   5.977   3.832   4.677 -0.3996 -0.5747  0.2078
 2173TIP3    H128010   6.061   3.830   4.722 -0.7950 -1.2290  0.9443
 2173TIP3    H228011   5.998   3.806   4.587  0.4319  1.0117 -0.0837
 2174TIP3   OH228012   3.457   6.239  16.930  0.0771 -0.2776  0.0592
 2174TIP3    H128013   3.372   6.226  16.972  0.1234 -0.0056  0.2357
 2174TIP3    H228014   3.478   6.154  16.891 -0.1291 -0.4301  0.2824
 2175TIP3   OH228015   0.731   5.142  12.554  0.8270 -0.5870 -0.3175
 2175TIP3    H128016   0.708   5.233  12.573 -0.6195 -1.0546  0.3544
 2175TIP3    H228017   0.817   5.147  12.512  1.6137  0.9415  1.3465
 2176TIP3   OH228018   3.456   1.787   6.076 -0.3747 -0.1134 -0.4919
 2176TIP3    H128019   3.378   1.736   6.097 -0.0779 -0.1481  0.5770
 2176TIP3    H228020   3.515   1.772   6.150  0.0571  1.0950 -0.5713
 2177TIP3   OH228021   0.896   0.123  16.219  0.4483  0.1444  0.1568
 2177TIP3    H128022   0.888   0.028  16.206 -2.2983  0.3239 -0.1203
 2177TIP3    H228023   0.918   0.133  16.311 -0.8737 -0.7885  0.6083
 2178TIP3   OH228024   3.814   0.849  12.667  0.4922  0.0932 -0.0393
 2178TIP3    H128025   3.901   0.865  12.702  1.2517 -2.2753 -0.6598
 2178TIP3    H228026   3.760   0.830  12.743  0.9205 -0.0777  0.2244
 2179TIP3   OH228027   1.501   2.962   6.076  0.4755  0.4104 -0.1727
 2179TIP3    H128028   1.544   2.893   6.127  1.0631  0.5450 -0.4756
 2179TIP3    H228029   1.542   3.043   6.106 -0.4127  0.6621  0.3798
 2180TIP3   OH228030   3.172   1.067  12.159  0.2281 -0.5783  0.6228
 2180TIP3    H128031   3.268   1.072  12.162  0.2119  0.5342 -0.3496
 2180TIP3    H228032   3.152   1.033  12.072 -0.2609 -1.3234  1.0148
 2181TIP3   OH228033   1.074   1.178   0.019  0.0312  0.1427 -0.0305
 2181TIP3    H128034   1.109   1.262   0.049 -1.1992  1.0682 -1.0833
 2181TIP3    H228035   1.138   1.114   0.048  1.1440  1.4693  0.5581
 2182TIP3   OH228036   3.321   2.599  12.868 -0.0597  0.5361  0.0823
 2182TIP3    H128037   3.369   2.542  12.808 -0.4282  0.1207  0.1719
 2182TIP3    H228038   3.236   2.613  12.825 -1.3419 -1.8673  1.6118
 2183TIP3   OH228039   5.092   5.495  14.753  0.5168 -0.1622  0.2804
 2183TIP3    H128040   5.086   5.459  14.665  0.3273 -0.9934  0.6201
 2183TIP3    H228041   5.001   5.501  14.783  0.3671  2.3785 -0.4261
 2184TIP3   OH228042   0.757   2.433   3.314  0.8559  0.0923 -0.4972
 2184TIP3    H128043   0.762   2.528   3.324 -0.2550  0.1738 -0.6468
 2184TIP3    H228044   0.665   2.412   3.324  1.2451 -1.1395  0.8212
 2185TIP3   OH228045   3.667   4.585   6.583 -0.2428 -0.5709  0.1020
 2185TIP3    H128046   3.696   4.641   6.655 -1.3596 -0.4951  0.5263
 2185TIP3    H228047   3.742   4.529   6.564  0.3532 -0.0140  0.7611
 2186TIP3   OH228048   4.758   5.335   0.411 -0.4672 -0.0833 -0.0387
 2186TIP3    H128049   4.677   5.370   0.375 -0.7779 -0.7014  0.0589
 2186TIP3    H228050   4.824   5.352   0.344 -1.0063 -1.0931 -0.8301
 2187TIP3   OH228051   5.246   6.243  13.084 -0.4020 -0.6281  0.1039
 2187TIP3    H128052   5.205   6.251  13.170  0.8156 -0.5231  0.6951
 2187TIP3    H228053   5.204   6.167  13.044 -0.6029 -1.0098  1.0149
 2188TIP3   OH228054   3.866   6.059   3.744 -0.0179  0.0473 -0.0074
 2188TIP3    H128055   3.815   5.978   3.745  0.3414 -0.3565 -3.2661
 2188TIP3    H228056   3.871   6.082   3.651  0.8149  3.2522  0.7437
 2189TIP3   OH228057   4.700   2.973  13.555 -0.3572 -0.4653  0.0423
 2189TIP3    H128058   4.618   3.007  13.591  0.4704  0.7368  0.8791
 2189TIP3    H228059   4.763   3.043  13.569  0.5231 -0.8333 -1.8207
 2190TIP3   OH228060   5.754   6.731   2.215  0.1264 -0.5031 -0.2803
 2190TIP3    H128061   5.694   6.696   2.149 -1.1656  1.6237 -0.3302
 2190TIP3    H228062   5.707   6.804   2.254  2.3893  0.7629  0.2554
 2191TIP3   OH228063   2.412   1.589  17.210 -0.0712 -0.6831  0.1678
 2191TIP3    H128064   2.345   1.576  17.277 -2.1725 -0.6607 -1.8241
 2191TIP3    H228065   2.471   1.654  17.248 -1.8854  0.2594  1.5356
 2192TIP3   OH228066   5.751   4.048   6.023 -1.0828  0.3086  0.7810
 2192TIP3    H128067   5.685   4.051   6.093  0.2842  0.6519  2.0957
 2192TIP3    H228068   5.756   3.956   5.998 -2.8979  0.4293 -0.1946
 2193TIP3   OH228069   1.607   0.361   1.123 -0.0943 -0.2920  0.4474
 2193TIP3    H128070   1.695   0.324   1.117 -0.0634 -0.1262 -0.1156
 2193TIP3    H228071   1.620   0.448   1.161 -0.0101 -0.2468  0.3147
 2194TIP3   OH228072   2.321   2.738   3.458  0.3177  0.3174  0.1092
 2194TIP3    H128073   2.309   2.643   3.462  3.0738 -0.1280 -0.4516
 2194TIP3    H228074   2.409   2.753   3.494  0.2687  2.5701 -0.5573
 2195TIP3   OH228075   1.841   4.879   4.418 -0.1855 -0.2518 -0.3905
 2195TIP3    H128076   1.871   4.894   4.508 -0.3138  3.1743 -0.8033
 2195TIP3    H228077   1.922   4.865   4.368  0.0510  0.1515 -0.1222
 2196TIP3   OH228078   0.938   2.897  14.415 -0.7529 -0.1023  0.0110
 2196TIP3    H128079   0.980   2.979  14.437 -0.3011 -0.4550  0.4777
 2196TIP3    H228080   0.982   2.868  14.335 -0.5719 -0.1333  0.1217
 2197TIP3   OH228081   4.555   4.630  14.134  0.5335  0.2465 -0.0676
 2197TIP3    H128082   4.546   4.560  14.199  1.3925 -0.5060 -0.7270
 2197TIP3    H228083   4.506   4.599  14.058 -0.5586  1.1716  0.2296
 2198TIP3   OH228084   0.063   2.964  15.835 -0.2277  0.8412  1.0914
 2198TIP3    H128085   0.082   2.965  15.929  0.9741  1.8049  0.8677
 2198TIP3    H228086   0.138   2.919  15.797 -0.6212  0.6239  0.5661
 2199TIP3   OH228087   6.816   5.536   1.860  0.5424  0.2691  0.3355
 2199TIP3    H128088   6.813   5.446   1.891  0.8120 -0.5858 -1.9244
 2199TIP3    H228089   6.890   5.575   1.906  1.3251 -1.1001  0.2742
 2200TIP3   OH228090   3.636   6.632   5.336 -0.1024 -0.9176 -0.5012
 2200TIP3    H128091   3.709   6.585   5.376 -1.5141 -2.3187  0.5477
 2200TIP3    H228092   3.654   6.629   5.242  1.8125 -0.0867 -0.2011
 2201TIP3   OH228093   6.471   4.566  13.971 -0.0884 -0.8480  0.1080
 2201TIP3    H128094   6.378   4.562  13.947 -1.3186  0.3875  3.9181
 2201TIP3    H228095   6.502   4.476  13.960 -1.3962 -1.0881 -2.1982
 2202TIP3   OH228096   2.705   6.818   2.089 -0.4419 -0.5808 -0.2098
 2202TIP3    H128097   2.723   6.910   2.107 -1.5651 -0.4616  0.4136
 2202TIP3    H228098   2.707   6.776   2.175  0.8467 -1.3037 -0.5709
 2203TIP3   OH228099   0.085   3.145   2.076  0.1730  0.4585 -0.5172
 2203TIP3    H128100   0.170   3.180   2.048  1.0447 -1.2688 -0.2106
 2203TIP3    H228101   0.046   3.215   2.128  0.9012  1.7125 -1.6043
 2204TIP3   OH228102   1.594   5.820  16.902 -0.0020  0.5265  0.3110
 2204TIP3    H128103   1.616   5.782  16.987  2.5268 -0.1285 -0.5520
 2204TIP3    H228104   1.536   5.755  16.862  1.0582 -0.5406  0.4420
 2205TIP3   OH228105   1.563   3.275  15.561  0.4120  0.6642  0.2914
 2205TIP3    H128106   1.652   3.240  15.558  0.8605  1.4623  2.2045
 2205TIP3    H228107   1.544   3.281  15.655 -1.5424  0.8363 -0.0770
 2206TIP3   OH228108   4.640   2.370  12.342  0.3040 -0.2548  0.1376
 2206TIP3    H128109   4.695   2.307  12.389 -2.4075 -1.0620  2.5421
 2206TIP3    H228110   4.605   2.427  12.410 -1.1577  0.7478 -1.3696
 2207TIP3   OH228111   5.613   3.097   0.322 -0.0414  0.2744 -0.5297
 2207TIP3    H128112   5.649   3.167   0.377 -1.0308  0.4165 -0.0525
 2207TIP3    H228113   5.582   3.031   0.384 -0.7373  0.2192 -0.9283
 2208TIP3   OH228114   5.207   5.345   0.197 -0.3798 -0.2237 -0.4676
 2208TIP3    H128115   5.219   5.433   0.232 -1.8495 -0.2803  0.2620
 2208TIP3    H228116   5.135   5.353   0.133 -0.1137 -0.7784 -0.8511
 2209TIP3   OH228117   3.977   6.286  17.070  0.5646 -0.6200  0.2306
 2209TIP3    H128118   3.997   6.372  17.031  0.7719 -0.7748 -0.0116
 2209TIP3    H228119   3.883   6.289  17.088  0.7687  0.0559  1.2215
 2210TIP3   OH228120   0.654   1.220   5.606  0.3496 -0.1526 -0.2063
 2210TIP3    H128121   0.702   1.288   5.559 -0.7651 -0.2219 -1.4831
 2210TIP3    H228122   0.676   1.139   5.561  0.7803 -0.5051  0.6098
 2211TIP3   OH228123   5.688   5.539  12.293 -0.1621 -0.3060 -0.0291
 2211TIP3    H128124   5.683   5.503  12.381 -0.6273 -1.0383 -0.3475
 2211TIP3    H228125   5.615   5.498  12.246  1.1937 -1.3648 -1.2801
 2212TIP3   OH228126   0.990   1.038  11.193 -0.2690  0.0371 -0.4514
 2212TIP3    H128127   1.035   1.106  11.243  0.2259 -0.0069 -0.8262
 2212TIP3    H228128   0.969   1.079  11.109  0.6881 -0.4820 -0.9580
 2213TIP3   OH228129   1.592   6.280   1.220 -0.0797 -0.1124  0.2466
 2213TIP3    H128130   1.524   6.298   1.155 -0.6408 -0.8753  0.6056
 2213TIP3    H228131   1.568   6.194   1.257 -0.2189  0.6451  2.0108
 2214TIP3   OH228132   2.930   2.419  16.959  0.0526 -0.2420 -0.1929
 2214TIP3    H128133   2.886   2.502  16.944  0.6739  0.2466  0.6216
 2214TIP3    H228134   2.905   2.394  17.048  0.7781 -0.3509 -0.0127
 2215TIP3   OH228135   6.239   5.196   6.558 -0.0071  0.1915 -0.3404
 2215TIP3    H128136   6.285   5.174   6.477  0.3767  0.9441 -0.3382
 2215TIP3    H228137   6.239   5.114   6.608 -0.1838 -0.2623 -1.0616
 2216TIP3   OH228138   5.948   0.385   4.943  0.3127 -0.2639 -0.4588
 2216TIP3    H128139   5.962   0.469   4.988 -0.0684 -0.1649 -0.5192
 2216TIP3    H228140   5.867   0.398   4.893 -0.6929 -1.2249  0.8494
 2217TIP3   OH228141   0.277   0.514   1.925 -0.4778  0.5237 -0.0648
 2217TIP3    H128142   0.278   0.488   1.833  0.5082 -0.3579  0.1696
 2217TIP3    H228143   0.234   0.599   1.926 -0.0698  0.7628 -1.4026
 2218TIP3   OH228144   0.541   5.499   3.923  0.0102  0.0200  0.0603
 2218TIP3    H128145   0.626   5.462   3.899 -0.3020  0.4333 -1.8184
 2218TIP3    H228146   0.478   5.446   3.874 -0.9915 -1.1885  2.4865
 2219TIP3   OH228147   4.870   3.114   6.497 -0.4068 -0.1448 -0.5152
 2219TIP3    H128148   4.829   3.037   6.459 -2.2987  1.0014 -0.9064
 2219TIP3    H228149   4.841   3.187   6.442 -0.8220  1.1883  1.3589
 2220TIP3   OH228150   4.626   2.741  13.280  0.6442 -0.0156 -0.5354
 2220TIP3    H128151   4.586   2.823  13.310 -1.0607 -0.4775 -1.3992
 2220TIP3    H228152   4.716   2.745  13.312 -0.2048  0.8587  1.9343
 2221TIP3   OH228153   5.285   6.177  12.741  0.3520 -0.3212 -0.2323
 2221TIP3    H128154   5.247   6.116  12.804 -0.3753  0.9351  0.5947
 2221TIP3    H228155   5.215   6.192  12.677  1.3028 -2.1024 -1.7906
 2222TIP3   OH228156   5.942   3.382   0.740  0.0231  0.1320 -0.2007
 2222TIP3    H128157   6.035   3.370   0.760 -0.0806 -2.6030 -0.9759
 2222TIP3    H228158   5.902   3.297   0.758 -1.9880  0.6704 -1.7101
 2223TIP3   OH228159   2.783   3.977  10.923 -0.2860 -0.2100  0.1486
 2223TIP3    H128160   2.838   4.012  10.853 -1.2311 -0.0012 -0.5172
 2223TIP3    H228161   2.754   3.891  10.891 -2.6095  0.8337 -0.8338
 2224TIP3   OH228162   3.727   5.784   2.845  0.0498 -0.1144 -0.1585
 2224TIP3    H128163   3.750   5.860   2.792  1.4636 -0.2940  0.1464
 2224TIP3    H228164   3.634   5.795   2.864  0.5349  2.4143  1.2184
 2225TIP3   OH228165   0.389   5.582   0.950 -0.2808  0.3994  0.3133
 2225TIP3    H128166   0.464   5.618   0.998 -0.2224  0.5870  0.0849
 2225TIP3    H228167   0.428   5.543   0.871 -0.1862 -1.3634  1.1989
 2226TIP3   OH228168   6.604   3.698  15.926 -0.1609  0.4092 -0.4059
 2226TIP3    H128169   6.605   3.696  15.830 -0.8221  1.5757 -0.4630
 2226TIP3    H228170   6.530   3.642  15.951  1.9234 -2.5229 -0.3996
 2227TIP3   OH228171   5.444   3.492   4.252  0.4998 -0.3981  0.3554
 2227TIP3    H128172   5.476   3.404   4.274  0.0768 -0.9873 -1.2920
 2227TIP3    H228173   5.505   3.551   4.297  2.0094 -1.5138 -0.1449
 2228TIP3   OH228174   1.343   3.201  11.137  0.1002 -0.3473  0.2641
 2228TIP3    H128175   1.356   3.284  11.183 -0.8499 -0.5102  0.8455
 2228TIP3    H228176   1.343   3.135  11.206 -0.2524 -0.7125 -0.0799
 2229TIP3   OH228177   2.361   2.045  13.310 -0.4381  0.2945 -0.8771
 2229TIP3    H128178   2.336   2.057  13.218  0.3710  0.2722 -1.1084
 2229TIP3    H228179   2.353   1.951  13.325  1.9397 -0.1078 -1.7080
 2230TIP3   OH228180   4.708   5.348  15.889 -0.3180 -0.8308 -0.1368
 2230TIP3    H128181   4.627   5.343  15.939 -0.0170 -0.4560  0.3928
 2230TIP3    H228182   4.685   5.399  15.811 -0.4161 -0.0989  0.3673
 2231TIP3   OH228183   4.434   5.573   0.790  0.5185  0.0119  0.4188
 2231TIP3    H128184   4.412   5.615   0.872  0.5635  0.2128  0.3279
 2231TIP3    H228185   4.491   5.500   0.815  1.2956  0.6294  0.4901
 2232TIP3   OH228186   0.775   2.154   2.140 -0.5960 -0.2277  0.3011
 2232TIP3    H128187   0.686   2.167   2.173 -0.7325  0.3476 -0.2840
 2232TIP3    H228188   0.781   2.211   2.063  0.2881 -0.2420  0.3531
 2233TIP3   OH228189   5.543   3.823   4.726 -0.1165 -0.2820  0.6538
 2233TIP3    H128190   5.489   3.789   4.798 -0.3519 -2.3052 -0.4225
 2233TIP3    H228191   5.622   3.769   4.727  0.4267  0.4758  0.1408
 2234TIP3   OH228192   0.872   5.808   6.259 -0.1678  0.0798 -0.3235
 2234TIP3    H128193   0.791   5.783   6.215  0.3881 -0.4069 -1.0923
 2234TIP3    H228194   0.940   5.755   6.217  0.9507  2.2860 -1.4698
 2235TIP3   OH228195   1.565   1.791   2.267 -0.3275  0.4710  0.4358
 2235TIP3    H128196   1.539   1.702   2.293  0.8742  0.3584  1.3178
 2235TIP3    H228197   1.487   1.844   2.283 -0.7033 -0.2293  1.0030
 2236TIP3   OH228198   5.518   0.890  13.759  0.1773  0.5631 -0.3954
 2236TIP3    H128199   5.489   0.949  13.829  1.8438  1.1000 -0.0895
 2236TIP3    H228200   5.523   0.946  13.681 -0.1452  0.3471 -0.5719
 2237TIP3   OH228201   5.628   0.677   2.739  0.2318  0.2677  0.0754
 2237TIP3    H128202   5.584   0.746   2.788 -1.5946  0.1104 -1.2720
 2237TIP3    H228203   5.559   0.634   2.689  2.0003  0.4905 -2.7650
 2238TIP3   OH228204   2.384   4.173  13.838 -0.5163 -0.7111  0.1692
 2238TIP3    H128205   2.467   4.126  13.847  0.7801  1.6834  2.1386
 2238TIP3    H228206   2.335   4.151  13.916 -0.1825  0.5573  0.7705
 2239TIP3   OH228207   5.282   4.303   1.379 -0.4134  0.5170  0.1740
 2239TIP3    H128208   5.242   4.289   1.293  2.7559 -0.5877 -1.2836
 2239TIP3    H228209   5.258   4.224   1.429 -2.1209  1.0814  0.3176
 2240TIP3   OH228210   3.388   5.656  17.026 -0.3777 -0.2375  0.5896
 2240TIP3    H128211   3.354   5.573  16.993  0.0567 -0.9040  1.7739
 2240TIP3    H228212   3.323   5.686  17.089 -1.3103  1.1430 -0.9385
 2241TIP3   OH228213   0.071   5.793   1.654 -0.1044  0.0201  1.1583
 2241TIP3    H128214   0.026   5.877   1.658  3.1134  1.8462  2.7146
 2241TIP3    H228215   0.124   5.798   1.574  1.0422  0.0281  1.9075
 2242TIP3   OH228216   1.338   4.733   5.972  0.2098 -0.5069 -0.0036
 2242TIP3    H128217   1.281   4.808   5.957 -0.0591 -0.7380 -0.1370
 2242TIP3    H228218   1.388   4.756   6.050 -1.2599 -0.9961  1.1393
 2243TIP3   OH228219   6.044   2.379   1.823  0.9057  0.2267  0.1188
 2243TIP3    H128220   5.965   2.409   1.867  0.3349 -0.5620 -0.3344
 2243TIP3    H228221   6.068   2.298   1.869  0.2746 -0.6335 -1.0060
 2244TIP3   OH228222   0.890   4.161   1.091 -0.3942 -0.4359 -0.4696
 2244TIP3    H128223   0.979   4.130   1.106 -0.7655 -1.0032  0.7255
 2244TIP3    H228224   0.887   4.246   1.133 -0.3210 -0.2582 -0.8210
 2245TIP3   OH228225   3.353   6.791  13.419  0.6256  0.0709  0.9268
 2245TIP3    H128226   3.427   6.850  13.411 -1.9499  3.3248 -1.5492
 2245TIP3    H228227   3.308   6.818  13.499 -0.0536  0.8908  0.2798
 2246TIP3   OH228228   5.325   3.250  15.669 -0.4662 -0.3223  0.3692
 2246TIP3    H128229   5.259   3.200  15.619  0.0200  1.3480 -2.1597
 2246TIP3    H228230   5.404   3.242  15.616 -0.0384  1.9696  0.5959
 2247TIP3   OH228231   3.474   5.011  14.377 -0.1533  0.0353  0.4194
 2247TIP3    H128232   3.422   5.089  14.397 -0.0975  0.4117 -0.8372
 2247TIP3    H228233   3.452   4.989  14.287  0.5132 -0.8814  0.4600
 2248TIP3   OH228234   0.339   1.787  16.476 -0.1498 -0.0917  0.7291
 2248TIP3    H128235   0.358   1.696  16.497  2.5328 -0.1329 -1.3190
 2248TIP3    H228236   0.420   1.834  16.496 -0.0051  1.0582 -2.1214
 2249TIP3   OH228237   0.491   5.760   5.387  0.0118 -0.2500 -0.2536
 2249TIP3    H128238   0.561   5.825   5.381 -1.2315  1.1713 -0.0899
 2249TIP3    H228239   0.490   5.735   5.480 -1.2817  1.6451  0.3105
 2250TIP3   OH228240   4.387   6.379   6.082  0.4252 -0.1835  0.2472
 2250TIP3    H128241   4.301   6.350   6.114  0.1145  1.0629  0.5985
 2250TIP3    H228242   4.438   6.393   6.162  0.1714  1.3733  0.1624
 2251TIP3   OH228243   2.431   0.167  14.985 -0.2705 -0.1973  0.3302
 2251TIP3    H128244   2.483   0.242  14.958 -1.1228 -0.2201 -1.4839
 2251TIP3    H228245   2.441   0.104  14.914 -1.5240 -0.8106  0.6726
 2252TIP3   OH228246   0.856   3.536   0.880 -0.4710 -0.3932 -0.2688
 2252TIP3    H128247   0.941   3.533   0.837 -0.0036 -2.9308  0.6413
 2252TIP3    H228248   0.800   3.477   0.829 -1.5352  0.7995 -0.5260
 2253TIP3   OH228249   2.729   5.425  14.790 -0.0547 -0.3530  0.4481
 2253TIP3    H128250   2.805   5.376  14.822 -0.8886 -1.3616  0.9428
 2253TIP3    H228251   2.656   5.394  14.844 -0.6156  1.5008  0.8406
 2254TIP3   OH228252   3.681   3.304   4.397 -0.6156 -0.0100  0.5005
 2254TIP3    H128253   3.606   3.331   4.450 -0.1231  0.9150  0.7432
 2254TIP3    H228254   3.752   3.293   4.459 -0.1575  0.6163  0.0957
 2255TIP3   OH228255   2.173   0.576   3.146  0.0063 -0.3546  0.3389
 2255TIP3    H128256   2.109   0.532   3.090  1.3754 -2.6453  0.4284
 2255TIP3    H228257   2.151   0.548   3.235 -0.0772  0.4646  0.5780
 2256TIP3   OH228258   1.308   1.781  16.358  0.0125 -0.4424 -0.0712
 2256TIP3    H128259   1.265   1.708  16.404 -0.8181  0.5429  0.7691
 2256TIP3    H228260   1.381   1.740  16.312 -0.0548 -1.7187  0.8895
 2257TIP3   OH228261   4.191   3.919  15.579  0.0511  0.1666  0.8006
 2257TIP3    H128262   4.230   3.846  15.627  0.9621 -0.1168 -0.3156
 2257TIP3    H228263   4.217   3.904  15.488 -0.3249  1.5198  0.4503
 2258TIP3   OH228264   1.918   0.824  15.432 -0.1641 -0.3134  0.4037
 2258TIP3    H128265   1.832   0.826  15.476 -1.2112 -1.7661 -1.4188
 2258TIP3    H228266   1.959   0.744  15.464  0.4052  0.2336  1.0560
 2259TIP3   OH228267   0.119   4.228   5.852  0.1651  0.3560 -0.6127
 2259TIP3    H128268   0.111   4.197   5.761 -0.7302  0.3171 -0.5349
 2259TIP3    H228269   0.118   4.148   5.905  0.0138  0.4058 -0.5380
 2260TIP3   OH228270   6.397   0.420   3.981  0.3619  0.6745 -0.4725
 2260TIP3    H128271   6.464   0.481   4.011  0.0769  0.7704 -0.0258
 2260TIP3    H228272   6.446   0.342   3.954  0.5356 -0.2228  2.1493
 2261TIP3   OH228273   0.428   2.469   5.280 -0.3786  0.5777  0.0847
 2261TIP3    H128274   0.348   2.498   5.323 -0.6751  1.8109 -1.1980
 2261TIP3    H228275   0.492   2.457   5.350 -2.0253 -1.7872  1.2921
 2262TIP3   OH228276   4.503   0.928   3.897 -0.2380  0.0939  0.3466
 2262TIP3    H128277   4.438   0.947   3.829  0.3766  1.9198  0.2050
 2262TIP3    H228278   4.529   1.015   3.930  0.2817 -0.7101  2.1536
 2263TIP3   OH228279   0.539   1.224  12.009 -0.0220 -0.3256  0.7542
 2263TIP3    H128280   0.526   1.174  11.928  1.6594 -0.6583  0.6700
 2263TIP3    H228281   0.618   1.276  11.994 -0.3667  0.5261  1.7502
 2264TIP3   OH228282   5.053   5.873   2.870  0.4567 -0.3203 -0.0360
 2264TIP3    H128283   5.063   5.914   2.784 -2.2857 -0.5973 -0.5782
 2264TIP3    H228284   4.961   5.847   2.874  0.2800  0.3458  3.2884
 2265TIP3   OH228285   6.220   3.467   0.237  0.1855 -0.2447 -0.4297
 2265TIP3    H128286   6.250   3.436   0.152  1.0664 -1.0754  0.1545
 2265TIP3    H228287   6.226   3.562   0.232  0.4785 -0.2972 -1.2115
 2266TIP3   OH228288   6.456   5.593   2.185  0.8562  0.1240 -0.1256
 2266TIP3    H128289   6.513   5.669   2.173 -2.5604  2.5815 -3.3245
 2266TIP3    H228290   6.385   5.626   2.240 -0.5191 -0.7363 -1.3022
 2267TIP3   OH228291   1.606   5.492   2.814  0.5268  0.0120 -0.0574
 2267TIP3    H128292   1.560   5.428   2.869  1.2819  0.0641  0.6663
 2267TIP3    H228293   1.680   5.520   2.868  0.8281  0.6768 -0.8015
 2268TIP3   OH228294   3.134   4.546  14.769 -0.3683  0.3578  0.0077
 2268TIP3    H128295   3.124   4.562  14.862 -0.7417  2.1169 -0.3013
 2268TIP3    H228296   3.054   4.580  14.730 -0.1186 -0.1427 -0.9819
 2269TIP3   OH228297   1.896   0.867   5.532  0.0834  0.0085 -0.2037
 2269TIP3    H128298   1.904   0.784   5.485 -0.4959  0.4502 -1.1110
 2269TIP3    H228299   1.925   0.933   5.469 -0.8570  0.6256 -0.0103
 2270TIP3   OH228300   2.161   6.450   4.160 -0.4292 -0.0599 -0.0879
 2270TIP3    H128301   2.249   6.413   4.170 -0.3045  0.0648 -0.6739
 2270TIP3    H228302   2.125   6.450   4.248  0.3050  0.2501  0.2213
 2271TIP3   OH228303   0.568   6.788   1.363 -0.1392 -0.3820  0.3006
 2271TIP3    H128304   0.510   6.775   1.289  0.1591  0.3000 -0.0614
 2271TIP3    H228305   0.570   6.883   1.375 -0.9730 -0.5171  1.8135
 2272TIP3   OH228306   1.406   0.137  12.196  0.0240  0.2735  0.1061
 2272TIP3    H128307   1.380   0.183  12.117 -0.7952 -0.2196  0.0780
 2272TIP3    H228308   1.448   0.057  12.164 -1.6530 -0.6594  0.1524
 2273TIP3   OH228309   2.992   5.301   1.091  0.4571 -0.4695  0.0293
 2273TIP3    H128310   2.936   5.316   1.166  3.5979  0.4488  2.3955
 2273TIP3    H228311   2.985   5.207   1.074 -2.0208 -0.3320 -0.1223
 2274TIP3   OH228312   3.287   6.684   3.422  0.4554 -0.1969  0.6103
 2274TIP3    H128313   3.336   6.747   3.369  0.2662  1.2631  2.0818
 2274TIP3    H228314   3.349   6.656   3.489  0.1483 -0.6348  0.7166
 2275TIP3   OH228315   0.812   5.098  13.041  0.0776 -0.1031 -0.4712
 2275TIP3    H128316   0.817   5.190  13.015  0.0281  0.5739  1.6825
 2275TIP3    H228317   0.778   5.053  12.964 -1.1073  1.8719 -1.1829
 2276TIP3   OH228318   4.033   4.896  15.821 -0.7614 -0.5570  0.5815
 2276TIP3    H128319   4.086   4.969  15.790 -0.3105 -0.8482  0.6534
 2276TIP3    H228320   3.947   4.909  15.780 -0.1969 -0.9131 -0.7498
 2277TIP3   OH228321   2.447   3.730  13.820 -0.0896  0.6394 -0.3758
 2277TIP3    H128322   2.423   3.817  13.854 -0.8640  0.5338 -0.6164
 2277TIP3    H228323   2.416   3.731  13.729  0.4269  0.3185 -0.5554
 2278TIP3   OH228324   0.254   3.357   5.960 -0.1196  0.2644 -0.0816
 2278TIP3    H128325   0.240   3.392   5.872 -0.6386 -1.3550 -0.6729
 2278TIP3    H228326   0.322   3.414   5.997  2.3569 -0.7544 -2.6194
 2279TIP3   OH228327   6.622   3.525   4.254  0.0111  0.3001 -0.2638
 2279TIP3    H128328   6.556   3.566   4.198  0.5992 -0.2728 -1.3884
 2279TIP3    H228329   6.695   3.507   4.196  1.6124  1.8397  1.1441
 2280TIP3   OH228330   1.071   1.016  11.920  0.2589  0.3594  0.0560
 2280TIP3    H128331   1.084   0.964  11.841 -0.6066 -0.4930  0.4507
 2280TIP3    H228332   1.147   0.997  11.974  0.0189 -0.4164  0.1386
 2281TIP3   OH228333   5.668   0.597   6.644  0.4753 -0.7185  0.1547
 2281TIP3    H128334   5.741   0.598   6.582  0.7396  0.9418  0.4238
 2281TIP3    H228335   5.706   0.564   6.725  0.6083 -1.0807 -0.0547
 2282TIP3   OH228336   0.036   4.422  13.858  0.1583  0.2778 -0.4579
 2282TIP3    H128337   0.054   4.406  13.951 -0.7562  1.2211 -0.0938
 2282TIP3    H228338   0.122   4.429  13.817  0.5702 -1.1676  0.1263
 2283TIP3   OH228339   2.527   0.007  12.915  0.1450 -0.3007  0.7847
 2283TIP3    H128340   2.527  -0.070  12.972  0.7881 -0.3481  0.7302
 2283TIP3    H228341   2.481   0.074  12.965 -0.0283 -0.5904  1.0162
 2284TIP3   OH228342   2.654   4.257   0.417  0.8540 -0.7845  0.1388
 2284TIP3    H128343   2.633   4.322   0.484 -0.1254 -0.4660 -0.4587
 2284TIP3    H228344   2.678   4.179   0.466 -0.3936 -0.7331  0.8669
 2285TIP3   OH228345   0.322   0.347  11.699 -0.1748  0.2092  0.2754
 2285TIP3    H128346   0.295   0.290  11.771  2.1049 -0.4882  0.6851
 2285TIP3    H228347   0.340   0.431  11.741  1.3457 -0.2528  0.6104
 2286TIP3   OH228348   4.001   6.127  15.317 -0.1029  0.2985 -0.1028
 2286TIP3    H128349   4.052   6.198  15.277  0.1067 -0.5567 -1.3928
 2286TIP3    H228350   4.054   6.100  15.392  0.4476  0.6405 -0.3565
 2287TIP3   OH228351   4.376   1.621  17.286  0.1507 -0.3032 -0.0695
 2287TIP3    H128352   4.370   1.664  17.200  1.2365  1.0004  0.4861
 2287TIP3    H228353   4.468   1.627  17.310 -0.3288  0.4581  1.7342
 2288TIP3   OH228354   2.180   2.179  15.034  0.3674  0.0300 -0.0881
 2288TIP3    H128355   2.221   2.194  15.119  0.4382  0.2104 -0.1531
 2288TIP3    H228356   2.143   2.264  15.010 -3.0600 -0.8386  1.5218
 2289TIP3   OH228357   1.307   6.738   3.398  0.5772  0.0190  0.3227
 2289TIP3    H128358   1.341   6.813   3.348  0.9142  0.4466  1.1704
 2289TIP3    H228359   1.380   6.676   3.400  0.3200 -0.3172 -0.3226
 2290TIP3   OH228360   1.606   0.056  13.263 -0.7728 -0.6787 -0.5350
 2290TIP3    H128361   1.594   0.081  13.171 -0.4145 -0.2651 -0.4679
 2290TIP3    H228362   1.577   0.132  13.313  0.0257 -0.5037 -0.3271
 2291TIP3   OH228363   6.197   5.151  13.299  0.3221  0.1448 -0.5878
 2291TIP3    H128364   6.225   5.147  13.390  0.9070  1.0327 -0.7068
 2291TIP3    H228365   6.196   5.245  13.279  1.2313 -0.0838 -1.7929
 2292TIP3   OH228366   1.280   5.591  13.159  0.4788  0.1368  0.3273
 2292TIP3    H128367   1.234   5.533  13.220  0.7640 -1.4078 -0.8592
 2292TIP3    H228368   1.343   5.534  13.115  3.3205  2.0852  1.6031
 2293TIP3   OH228369   5.372   0.563   3.091  0.1678  0.1008 -0.3630
 2293TIP3    H128370   5.340   0.594   3.176 -1.1553 -0.3544 -0.6595
 2293TIP3    H228371   5.332   0.623   3.027 -0.1636 -0.5274 -0.7580
 2294TIP3   OH228372   6.332   1.301   1.533 -0.0818  0.1170  0.2256
 2294TIP3    H128373   6.390   1.242   1.484  0.5619 -0.0298  1.1292
 2294TIP3    H228374   6.268   1.330   1.468 -0.3365 -1.4478 -0.2908
 2295TIP3   OH228375   0.544   5.791  11.141 -0.2897 -0.3582  0.2751
 2295TIP3    H128376   0.547   5.784  11.046  0.3754  1.6430  0.1021
 2295TIP3    H228377   0.480   5.726  11.168  0.0617 -1.4917 -1.4670
 2296TIP3   OH228378   5.477   5.408  16.234 -0.2312  0.4506  0.1640
 2296TIP3    H128379   5.428   5.402  16.316 -0.3364  0.7239  0.1216
 2296TIP3    H228380   5.413   5.385  16.166 -0.4617  1.3814  0.0563
 2297TIP3   OH228381   4.573   4.674   1.992 -0.2106 -0.6116  0.3213
 2297TIP3    H128382   4.617   4.637   1.915  2.3060 -2.6170  2.5455
 2297TIP3    H228383   4.626   4.750   2.015 -0.7142 -0.2618  0.3467
 2298TIP3   OH228384   3.796   5.999   2.710 -0.1251  0.9212  0.3628
 2298TIP3    H128385   3.732   6.036   2.649  0.0626  3.5550  1.6450
 2298TIP3    H228386   3.782   6.046   2.792  1.9285 -0.0689  1.3699
 2299TIP3   OH228387   0.584   6.488   6.490 -0.0859 -0.4888 -0.2547
 2299TIP3    H128388   0.597   6.579   6.516  1.0947 -0.5663 -0.5275
 2299TIP3    H228389   0.671   6.450   6.491 -0.5672 -1.6284 -0.1311
 2300TIP3   OH228390   4.467   5.998  15.557  0.2159 -0.3047 -0.2500
 2300TIP3    H128391   4.551   5.983  15.512  0.7562  0.4939  0.4633
 2300TIP3    H228392   4.439   6.084  15.528  0.3351  0.0189  0.5765
 2301TIP3   OH228393   1.303   2.531   4.151  0.1611  0.1918  0.3729
 2301TIP3    H128394   1.269   2.491   4.231  0.6897 -2.8238 -0.7629
 2301TIP3    H228395   1.392   2.558   4.173  0.1856 -0.3077  0.8889
 2302TIP3   OH228396   1.809   1.264  11.626  0.3897 -0.0751  0.0497
 2302TIP3    H128397   1.786   1.353  11.600  1.8514  0.2930 -0.0672
 2302TIP3    H228398   1.886   1.274  11.681  0.6585 -1.2720 -0.0841
 2303TIP3   OH228399   0.998   2.557   1.657  0.2136  0.1877 -0.4347
 2303TIP3    H128400   1.061   2.545   1.586 -0.5641 -1.6811 -0.8901
 2303TIP3    H228401   0.916   2.580   1.613 -0.1951 -0.6615 -0.1377
 2304TIP3   OH228402   1.536   3.949  12.896 -0.1194  0.0278  0.1968
 2304TIP3    H128403   1.462   4.009  12.893 -0.4426 -0.1424  2.6830
 2304TIP3    H228404   1.497   3.862  12.887  0.0369  0.0415 -0.6533
 2305TIP3   OH228405   0.436   1.453   3.556 -0.2008  0.6367  0.3459
 2305TIP3    H128406   0.373   1.499   3.501  1.0961  1.9184 -0.0900
 2305TIP3    H228407   0.382   1.388   3.603 -1.8255  1.6068 -0.0884
 2306TIP3   OH228408   5.198   2.076  15.198 -0.4024 -0.3060  0.1741
 2306TIP3    H128409   5.152   2.144  15.149 -1.0096 -1.1314 -0.4201
 2306TIP3    H228410   5.261   2.124  15.251  0.1522  0.6366 -1.2767
 2307TIP3   OH228411   4.011   3.916  12.204 -0.0747  0.4871 -0.0711
 2307TIP3    H128412   4.085   3.975  12.218 -1.5142  2.2517  0.5314
 2307TIP3    H228413   4.051   3.832  12.180  2.0919  1.3485  0.2975
 2308TIP3   OH228414   5.335   5.264   4.908 -0.0180 -0.2909  0.2802
 2308TIP3    H128415   5.402   5.206   4.869  0.3901  0.9664 -0.9898
 2308TIP3    H228416   5.252   5.228   4.877  0.1485 -1.0265  0.6733
 2309TIP3   OH228417   1.658   1.811  13.419 -0.3826  0.2551 -0.1579
 2309TIP3    H128418   1.631   1.901  13.435 -2.1137 -0.1714 -0.5134
 2309TIP3    H228419   1.655   1.802  13.323  1.9173  0.4165 -0.2984
 2310TIP3   OH228420   0.214   3.836  12.998  0.7784  0.2641 -0.4188
 2310TIP3    H128421   0.208   3.865  12.907 -0.2293  1.0460 -0.1151
 2310TIP3    H228422   0.139   3.778  13.010  1.7110 -0.9890 -0.4768
 2311TIP3   OH228423   6.668   6.048  13.895 -0.5152 -0.2178  0.3120
 2311TIP3    H128424   6.601   6.117  13.894  0.0985  0.4104  1.2744
 2311TIP3    H228425   6.632   5.980  13.952 -1.7498 -1.3941 -1.7338
 2312TIP3   OH228426   6.376   3.609  16.836  0.1181  0.5287  0.0309
 2312TIP3    H128427   6.304   3.663  16.870  0.3592  2.2561 -2.0284
 2312TIP3    H228428   6.346   3.582  16.749  2.2012  1.9035 -1.1888
 2313TIP3   OH228429   6.484   6.544   0.947 -0.7915  0.2234  0.5523
 2313TIP3    H128430   6.440   6.599   0.882 -0.5148 -0.8686 -0.5996
 2313TIP3    H228431   6.567   6.519   0.905 -1.2072 -1.6146  0.7542
 2314TIP3   OH228432   6.494   1.773   0.075  0.1333 -0.0568 -0.1049
 2314TIP3    H128433   6.539   1.731   0.148 -2.0251  1.1902  2.1079
 2314TIP3    H228434   6.434   1.835   0.117 -0.6248  1.3303 -3.0026
 2315TIP3   OH228435   4.172   1.916   4.465  0.7291 -0.1260 -1.0517
 2315TIP3    H128436   4.100   1.964   4.507  3.1012  1.7503  1.2447
 2315TIP3    H228437   4.219   1.874   4.538  2.2576 -0.8357 -2.3769
 2316TIP3   OH228438   3.774   5.446  15.570 -0.0483  0.2518  0.3226
 2316TIP3    H128439   3.868   5.451  15.552 -0.1686  1.5792  0.0060
 2316TIP3    H228440   3.757   5.517  15.631 -1.2580  1.6473 -1.5264
 2317TIP3   OH228441   4.924   0.811   3.174 -0.1641  0.2635 -0.5084
 2317TIP3    H128442   4.989   0.827   3.243  0.4493  0.9527 -1.2221
 2317TIP3    H228443   4.847   0.860   3.202 -0.2491 -0.2443  0.1575
 2318TIP3   OH228444   0.584   4.285  14.791 -0.5010  0.0910  0.8948
 2318TIP3    H128445   0.564   4.219  14.725  0.5562 -0.9713  1.5983
 2318TIP3    H228446   0.679   4.286  14.796 -0.5423  0.8242  1.7522
 2319TIP3   OH228447   3.949   6.300   2.629  0.1512 -0.1981 -0.7501
 2319TIP3    H128448   3.856   6.325   2.627  0.0780 -0.4427 -0.5371
 2319TIP3    H228449   3.965   6.259   2.545 -0.0345 -0.5056 -0.6352
 2320TIP3   OH228450   2.549   5.323   0.029 -0.6038  0.0598 -0.0697
 2320TIP3    H128451   2.627   5.339  -0.025  0.8600  0.8027  2.1142
 2320TIP3    H228452   2.504   5.251  -0.014  0.6489  0.3835 -2.0602
 2321TIP3   OH228453   2.070   2.580   3.973 -0.1011 -0.5066 -0.2136
 2321TIP3    H128454   2.131   2.605   4.042 -2.9898  2.1855  1.6835
 2321TIP3    H228455   2.026   2.502   4.006 -0.4211 -0.1005  0.3418
 2322TIP3   OH228456   4.771   2.277   6.163 -0.5936 -0.4594 -0.0061
 2322TIP3    H128457   4.730   2.363   6.179 -0.9459 -0.6336  0.0418
 2322TIP3    H228458   4.843   2.274   6.226  0.8027  0.6943 -1.4470
 2323TIP3   OH228459   1.291   1.858   5.700 -0.1947  0.5636 -0.0674
 2323TIP3    H128460   1.221   1.797   5.678  0.0960  0.8330 -1.8498
 2323TIP3    H228461   1.256   1.910   5.773 -0.3855 -1.7840  1.6368
 2324TIP3   OH228462   1.642   5.204  13.115 -0.1823  0.8569 -0.6592
 2324TIP3    H128463   1.726   5.199  13.070  1.1507 -0.8499  1.8481
 2324TIP3    H228464   1.663   5.202  13.208 -2.9995 -1.7173  0.1124
 2325TIP3   OH228465   1.730   2.195  14.453 -0.1119  0.0529  0.2682
 2325TIP3    H128466   1.758   2.236  14.371 -4.0570 -1.1677 -1.9121
 2325TIP3    H228467   1.771   2.108  14.451  0.8518  0.4935  0.2803
 2326TIP3   OH228468   6.222   0.682   0.410  0.2825  0.7663  0.1878
 2326TIP3    H128469   6.231   0.692   0.505 -1.0195  0.4125  0.3602
 2326TIP3    H228470   6.168   0.756   0.383 -0.1655  0.3330 -0.1237
 2327TIP3   OH228471   3.482   1.596  15.038 -0.0347  0.1972  0.2625
 2327TIP3    H128472   3.430   1.593  14.957 -0.9785  1.3887  0.7716
 2327TIP3    H228473   3.551   1.660  15.019 -0.7007  1.0432  0.6124
 2328TIP3   OH228474   0.292   3.448   3.327 -0.4580 -0.8029 -0.0460
 2328TIP3    H128475   0.270   3.482   3.413  0.8249  1.4439 -0.5226
 2328TIP3    H228476   0.311   3.355   3.342 -0.6729 -0.5681  1.9815
 2329TIP3   OH228477   1.547   2.658  15.010  0.1002 -0.7894 -0.0749
 2329TIP3    H128478   1.537   2.752  15.022 -1.4465 -1.0324  0.7616
 2329TIP3    H228479   1.471   2.620  15.054 -0.5363 -2.3354 -2.3541
 2330TIP3   OH228480   0.012   6.293   3.384  0.5478 -0.4119  0.0377
 2330TIP3    H128481  -0.068   6.343   3.370 -0.0837 -1.5397 -0.4626
 2330TIP3    H228482   0.003   6.259   3.473  1.3919  1.0510  0.7271
 2331TIP3   OH228483   3.994   6.752  15.489 -0.1135  0.4370 -0.1036
 2331TIP3    H128484   4.040   6.677  15.451  0.2314  0.6346 -0.0813
 2331TIP3    H228485   3.987   6.732  15.582 -0.8613  0.0035 -0.2403
 2332TIP3   OH228486   3.719   0.842   3.794 -0.0722  0.2373  0.3484
 2332TIP3    H128487   3.752   0.753   3.802  1.3484  0.6470 -0.5031
 2332TIP3    H228488   3.685   0.847   3.704 -0.2516  0.5313  0.4303
 2333TIP3   OH228489   5.919   5.384   1.251 -0.0967  0.4118 -0.5376
 2333TIP3    H128490   5.954   5.381   1.162 -2.3047  0.4511 -1.4802
 2333TIP3    H228491   5.869   5.466   1.254 -0.4611  0.1678  0.5703
 2334TIP3   OH228492   4.669   0.182  11.309  0.4349 -0.5808  0.5460
 2334TIP3    H128493   4.604   0.152  11.245 -0.6772  0.1622  1.2938
 2334TIP3    H228494   4.655   0.276  11.315 -0.5357 -0.8255  2.9891
 2335TIP3   OH228495   6.521   6.772   1.096  0.2429 -0.7118 -0.1445
 2335TIP3    H128496   6.574   6.692   1.084  1.2489 -0.0084 -0.5567
 2335TIP3    H228497   6.584   6.838   1.123 -0.2464  0.4131 -1.6407
 2336TIP3   OH228498   3.044   3.707   5.659 -0.0504 -0.3622 -0.2492
 2336TIP3    H128499   3.051   3.666   5.746  1.1583 -0.5337 -0.3998
 2336TIP3    H228500   3.125   3.681   5.615 -0.2340  0.4789 -1.1011
 2337TIP3   OH228501   2.313   5.486  15.811 -0.4918  0.4910  0.3950
 2337TIP3    H128502   2.381   5.551  15.797 -1.2715  1.2890  0.1891
 2337TIP3    H228503   2.256   5.526  15.877 -0.7929 -0.1246  0.5088
 2338TIP3   OH228504   3.237   1.404   2.955 -0.3134  0.6590 -0.0198
 2338TIP3    H128505   3.212   1.331   2.899  0.4383  0.3132  0.0913
 2338TIP3    H228506   3.203   1.482   2.910 -1.0077  0.2636 -0.1976
 2339TIP3   OH228507   2.780   3.460  14.044  0.0886 -0.0885 -0.4593
 2339TIP3    H128508   2.840   3.520  13.999  0.7529 -0.5882 -0.2438
 2339TIP3    H228509   2.726   3.423  13.975  0.3706 -0.0231 -0.7150
 2340TIP3   OH228510   0.533   0.508   1.954 -0.0674  0.0869  0.5753
 2340TIP3    H128511   0.555   0.591   1.911  0.1987  0.1261  0.7817
 2340TIP3    H228512   0.438   0.510   1.962 -0.0727  0.3243  0.4792
 2341TIP3   OH228513   5.554   0.882   1.334 -0.0304 -0.3951 -0.4107
 2341TIP3    H128514   5.468   0.874   1.375 -0.9700  0.5131 -2.0731
 2341TIP3    H228515   5.551   0.967   1.290  1.4812 -0.6427 -1.0526
 2342TIP3   OH228516   5.249   6.347  13.588 -0.0668  0.3895 -0.8601
 2342TIP3    H128517   5.312   6.397  13.536 -1.3983  2.7965 -0.2897
 2342TIP3    H228518   5.184   6.316  13.524 -0.8498  2.0095 -0.9035
 2343TIP3   OH228519   3.209   1.155   2.457 -0.0747  1.1966  0.1985
 2343TIP3    H128520   3.120   1.188   2.445 -0.4653 -0.0028 -0.2873
 2343TIP3    H228521   3.224   1.097   2.383  0.6355  0.3683  0.9632
 2344TIP3   OH228522   2.954   6.187   3.789 -0.4505  0.1208 -0.5578
 2344TIP3    H128523   3.014   6.262   3.785 -1.6420  1.1971  0.9186
 2344TIP3    H228524   2.929   6.172   3.698  0.5161  0.9181 -0.9760
 2345TIP3   OH228525   1.003   0.376  12.324 -0.2180  0.7306  0.3999
 2345TIP3    H128526   1.073   0.386  12.260  0.7266  1.1886  1.4797
 2345TIP3    H228527   1.043   0.327  12.396 -0.4455  2.5461  1.8377
 2346TIP3   OH228528   2.380   0.481   0.155 -0.4605  0.0126 -0.1843
 2346TIP3    H128529   2.417   0.451   0.238 -2.3500 -0.4356  0.5381
 2346TIP3    H228530   2.426   0.430   0.089 -0.3173 -1.0931  0.7328
 2347TIP3   OH228531   3.685   1.434   2.098  0.0035 -0.0415 -0.5301
 2347TIP3    H128532   3.675   1.488   2.020  0.3841 -1.1766 -1.3951
 2347TIP3    H228533   3.777   1.407   2.097 -0.0916 -0.4186  0.0830
 2348TIP3   OH228534   2.670   4.915   3.315  0.4306  0.2647  0.0487
 2348TIP3    H128535   2.658   4.821   3.324 -3.2164  0.7794  4.0656
 2348TIP3    H228536   2.601   4.943   3.255  0.8901  0.5130 -0.3758
 2349TIP3   OH228537   0.895   0.568   3.394 -0.2770  0.4166 -0.3107
 2349TIP3    H128538   0.868   0.488   3.350 -1.0388  0.2603  0.4052
 2349TIP3    H228539   0.962   0.605   3.338 -0.3813 -0.3847 -0.9846
 2350TIP3   OH228540   4.478   2.329  16.832 -0.3290 -0.2108 -0.2347
 2350TIP3    H128541   4.497   2.279  16.753  0.6838  0.1502 -0.2304
 2350TIP3    H228542   4.487   2.265  16.903  1.6839  0.0987 -0.1620
 2351TIP3   OH228543   1.655   0.221  13.920  0.0854  0.5147 -0.2497
 2351TIP3    H128544   1.578   0.163  13.922 -0.2994  0.9545  2.6561
 2351TIP3    H228545   1.705   0.192  13.844 -0.4422 -3.1906  0.6031
 2352TIP3   OH228546   0.299   3.657  13.719  0.3687  0.0961  0.0528
 2352TIP3    H128547   0.266   3.572  13.749  1.3353 -1.0635 -1.9629
 2352TIP3    H228548   0.389   3.660  13.750  0.4817  0.1622 -0.2794
 2353TIP3   OH228549   5.585   3.976  13.855 -0.3699  0.0933  0.2118
 2353TIP3    H128550   5.536   4.057  13.872  0.7146  0.6818  0.6192
 2353TIP3    H228551   5.573   3.959  13.762  2.4918  2.8630 -0.8054
 2354TIP3   OH228552   0.985   2.760   2.663  0.4005  0.2384  0.0369
 2354TIP3    H128553   0.889   2.765   2.663  0.2269 -2.0019  0.9071
 2354TIP3    H228554   1.007   2.732   2.751  1.9485  1.4385  0.0633
 2355TIP3   OH228555   4.760   0.990  14.101  0.2880 -0.4365  0.1008
 2355TIP3    H128556   4.785   1.036  14.182  1.4977  0.5029 -0.7679
 2355TIP3    H228557   4.751   1.059  14.036 -1.2429 -1.1229 -0.4647
 2356TIP3   OH228558   2.352   1.129  14.622 -0.2818 -0.1956 -0.2089
 2356TIP3    H128559   2.355   1.152  14.529 -1.1355 -0.6975 -0.3712
 2356TIP3    H228560   2.300   1.198  14.662  1.5809  1.0339  0.2442
 2357TIP3   OH228561   1.007   6.150  16.213  0.2762 -0.2669 -0.4970
 2357TIP3    H128562   1.017   6.225  16.154 -1.0666 -0.5052 -1.0661
 2357TIP3    H228563   1.058   6.080  16.172  1.8213  0.3924  0.2128
 2358TIP3   OH228564   4.465   3.372  14.554 -0.3383  0.1562  0.2875
 2358TIP3    H128565   4.504   3.432  14.491 -0.6551  0.5540  0.4650
 2358TIP3    H228566   4.377   3.355  14.520 -0.1700 -0.3964  0.1137
 2359TIP3   OH228567   1.893   0.934   4.009  0.2440  0.5458 -0.0972
 2359TIP3    H128568   1.837   1.007   4.033  0.6644  0.7720  0.1960
 2359TIP3    H228569   1.849   0.857   4.046  0.8639  0.8751  1.4037
 2360TIP3   OH228570   6.236   6.181   5.964  0.3325 -0.7032  0.6220
 2360TIP3    H128571   6.273   6.267   5.942 -2.0165  0.3597  0.5417
 2360TIP3    H228572   6.158   6.201   6.015 -0.5075 -2.7842  0.2477
 2361TIP3   OH228573   4.679   3.743  14.611  0.0402  0.6340  0.1565
 2361TIP3    H128574   4.614   3.812  14.597 -0.5353  0.1058  0.2021
 2361TIP3    H228575   4.740   3.752  14.538  0.1790  1.4222  0.3609
 2362TIP3   OH228576   1.577   4.797  16.349  0.6909 -0.0321 -0.5261
 2362TIP3    H128577   1.647   4.814  16.286  0.5874  0.5271 -0.4942
 2362TIP3    H228578   1.502   4.847  16.315  0.7348  0.5563  0.2229
 2363TIP3   OH228579   5.160   2.638  12.797 -0.2984  0.0456 -0.3744
 2363TIP3    H128580   5.195   2.700  12.862 -1.2369 -0.7084  0.9050
 2363TIP3    H228581   5.108   2.692  12.738  1.4396  0.9136 -1.2009
 2364TIP3   OH228582   5.553   0.659  13.357  0.2484 -0.2468  0.3042
 2364TIP3    H128583   5.632   0.657  13.304  0.8797  2.1400  0.9887
 2364TIP3    H228584   5.499   0.728  13.317 -0.3396 -0.1070  1.3000
 2365TIP3   OH228585   4.497   1.490  14.953  0.7779 -0.4147 -0.3406
 2365TIP3    H128586   4.523   1.451  14.869  0.9770 -1.1343  0.0548
 2365TIP3    H228587   4.546   1.442  15.019  1.6325  1.0117  0.1147
 2366TIP3   OH228588   2.685   1.932   5.633  0.0568  0.1249  0.3025
 2366TIP3    H128589   2.680   1.983   5.552 -0.1412  2.1508  1.5186
 2366TIP3    H228590   2.654   1.992   5.701  1.4406 -1.0753  2.0807
 2367TIP3   OH228591   0.469   1.965   0.727 -0.0365  0.5990 -0.2057
 2367TIP3    H128592   0.503   1.879   0.753  2.1639  1.7501  1.1026
 2367TIP3    H228593   0.375   1.951   0.715  0.3978 -2.1909 -1.0923
 2368TIP3   OH228594   2.182   2.532   2.712 -0.4399  0.0957 -0.3009
 2368TIP3    H128595   2.128   2.592   2.763 -0.0016 -0.6647  1.1227
 2368TIP3    H228596   2.123   2.496   2.646 -1.3893  0.1037  0.5226
 2369TIP3   OH228597   5.676   1.065  15.926 -0.5209 -0.4906 -0.2102
 2369TIP3    H128598   5.716   1.111  16.000 -1.3300 -0.0420 -0.0346
 2369TIP3    H228599   5.724   1.096  15.850  2.5713 -3.4147  0.3531
 2370TIP3   OH228600   2.322   5.475  13.695  0.1512 -0.2166 -0.4575
 2370TIP3    H128601   2.339   5.393  13.650  0.1856 -0.8684  0.7056
 2370TIP3    H228602   2.239   5.505  13.660 -0.0500 -0.9472 -0.6159
 2371TIP3   OH228603   3.684   1.745   5.348 -0.3355 -0.1432 -0.0739
 2371TIP3    H128604   3.647   1.781   5.267 -0.9561 -1.3891 -0.3618
 2371TIP3    H228605   3.771   1.714   5.322 -0.2106  0.1916 -0.0645
 2372TIP3   OH228606   0.048   5.321   6.052 -0.0181  0.4297  0.3327
 2372TIP3    H128607   0.086   5.300   5.966  0.3563  0.7226  0.4225
 2372TIP3    H228608   0.110   5.384   6.090  1.1718 -1.5531  1.8632
 2373TIP3   OH228609   4.451   4.112  11.170  0.0163  0.1069  0.4481
 2373TIP3    H128610   4.410   4.095  11.085  0.1960  0.3711  0.3074
 2373TIP3    H228611   4.407   4.051  11.230  1.3647 -1.6201 -0.2348
 2374TIP3   OH228612   0.223   3.612   4.685  0.4223 -0.4268 -0.2588
 2374TIP3    H128613   0.251   3.703   4.680 -2.6930  0.6003 -1.4669
 2374TIP3    H228614   0.206   3.587   4.595 -2.2827 -0.9021  0.3003
 2375TIP3   OH228615   2.854   2.269   3.675  0.3775 -0.5423  0.6233
 2375TIP3    H128616   2.776   2.214   3.682  1.4657 -2.2222  0.0396
 2375TIP3    H228617   2.841   2.319   3.595 -0.6548  0.1337  1.1906
 2376TIP3   OH228618   6.237   6.452   4.680  0.1104 -0.0863  0.2362
 2376TIP3    H128619   6.296   6.380   4.657 -0.8557 -0.4381 -1.2277
 2376TIP3    H228620   6.275   6.528   4.636  0.3022  0.0001  0.5480
 2377TIP3   OH228621   0.048   6.486  16.910 -0.2151 -0.4419  0.3073
 2377TIP3    H128622   0.100   6.566  16.912 -1.3430  0.3213  0.2944
 2377TIP3    H228623  -0.011   6.494  16.985  0.4214 -1.8147  0.9886
 2378TIP3   OH228624   6.284   0.932   2.769  0.3464 -0.5037 -0.2235
 2378TIP3    H128625   6.302   0.972   2.854 -1.7497  0.6231 -0.2543
 2378TIP3    H228626   6.268   1.006   2.711  1.8881 -1.2438 -1.7025
 2379TIP3   OH228627   4.419   5.992  15.884 -0.1143 -0.2078 -0.3339
 2379TIP3    H128628   4.386   5.968  15.797 -1.0110 -3.0181  0.6621
 2379TIP3    H228629   4.343   6.031  15.928 -0.9305 -2.5290  0.4576
 2380TIP3   OH228630   0.345   2.076  12.910 -0.4466  0.5864  0.0923
 2380TIP3    H128631   0.390   2.157  12.932  0.0857 -0.1929  2.1275
 2380TIP3    H228632   0.415   2.010  12.911 -1.2738 -0.3070  1.1936
 2381TIP3   OH228633   1.661   0.265   2.220  0.2024 -0.5412 -0.1717
 2381TIP3    H128634   1.639   0.178   2.189 -1.6211 -0.2893  0.3331
 2381TIP3    H228635   1.685   0.253   2.312 -0.6499 -0.4506  0.0716
 2382TIP3   OH228636   4.057   0.913   4.512  0.2134 -0.4977 -0.3467
 2382TIP3    H128637   4.052   0.827   4.469  0.8406 -0.0987 -1.2322
 2382TIP3    H228638   3.966   0.932   4.537 -0.2212 -0.6410 -1.7026
 2383TIP3   OH228639   3.637   3.232   1.518 -0.2040  0.4795 -0.1409
 2383TIP3    H128640   3.728   3.214   1.494 -0.0625  0.4505  0.4027
 2383TIP3    H228641   3.624   3.324   1.496  0.9754  1.4688  2.7454
 2384TIP3   OH228642   2.154   5.294   2.975 -0.0428 -0.1594 -0.0706
 2384TIP3    H128643   2.250   5.302   2.971 -0.1264  3.7940  1.4799
 2384TIP3    H228644   2.124   5.333   2.893 -0.3005  1.0340  0.5662
 2385TIP3   OH228645   6.147   2.573   4.898  0.2562 -0.0419  0.3431
 2385TIP3    H128646   6.098   2.559   4.817  2.0134  1.2773 -1.0000
 2385TIP3    H228647   6.112   2.506   4.958 -0.8941 -1.2406 -1.5493
 2386TIP3   OH228648   2.231   5.642   3.172 -0.1345 -0.1718 -0.2025
 2386TIP3    H128649   2.245   5.662   3.080 -0.0238  0.1722 -0.1142
 2386TIP3    H228650   2.251   5.724   3.218  0.0584 -0.4092  0.1493
 2387TIP3   OH228651   6.720   0.772   1.332 -0.0598 -0.3765 -0.8421
 2387TIP3    H128652   6.766   0.832   1.391 -0.0104  0.3083 -1.5635
 2387TIP3    H228653   6.628   0.778   1.358 -0.1746  0.6557 -1.4487
 2388TIP3   OH228654   1.034   5.549   1.349  0.5450 -0.1709 -0.4791
 2388TIP3    H128655   1.108   5.559   1.408 -0.4175  0.7635  0.6190
 2388TIP3    H228656   0.988   5.471   1.381 -0.5251  0.8893  0.6858
 2389TIP3   OH228657   0.234   3.506   2.125  0.0042 -0.1818 -1.0419
 2389TIP3    H128658   0.158   3.478   2.175  0.9943  0.9495  1.2444
 2389TIP3    H228659   0.247   3.598   2.149  3.0039 -0.7471 -0.0072
 2390TIP3   OH228660   4.216   2.105  14.070 -0.2069 -0.3248 -0.5713
 2390TIP3    H128661   4.269   2.112  14.149  1.3676  0.3858 -1.6349
 2390TIP3    H228662   4.238   2.019  14.034 -0.6521 -0.5000 -0.4323
 2391TIP3   OH228663   5.025   3.532   5.139 -0.1566 -0.5766 -0.1940
 2391TIP3    H128664   4.963   3.502   5.072  1.3976 -0.9860 -1.4944
 2391TIP3    H228665   4.974   3.530   5.220 -1.9481 -0.5437 -1.2665
 2392TIP3   OH228666   6.201   4.630  16.030  0.5788 -0.1486 -0.1732
 2392TIP3    H128667   6.144   4.706  16.041  0.0497 -0.9013  3.2492
 2392TIP3    H228668   6.156   4.575  15.966 -2.0660 -0.1876  1.5704
 2393TIP3   OH228669   4.639   5.644   2.612  0.0260  0.2875 -0.8237
 2393TIP3    H128670   4.693   5.594   2.551  0.5776  0.7491 -0.7206
 2393TIP3    H228671   4.648   5.735   2.583 -2.3259  0.2041 -2.0833
 2394TIP3   OH228672   4.558   2.222  15.669 -0.0069  0.6368  0.2732
 2394TIP3    H128673   4.566   2.304  15.621  0.2800 -0.4345 -1.6198
 2394TIP3    H228674   4.649   2.197  15.689  0.0953 -0.2176 -1.0558
 2395TIP3   OH228675   6.541   3.550  12.219 -0.4454 -0.2037  0.4341
 2395TIP3    H128676   6.591   3.528  12.141 -2.0279 -0.8524 -0.4441
 2395TIP3    H228677   6.464   3.598  12.187 -1.6178 -1.3102  1.4430
 2396TIP3   OH228678   3.734   1.964   2.460  0.8804  0.3719  0.1431
 2396TIP3    H128679   3.721   1.870   2.475 -2.2838  0.7133  0.2743
 2396TIP3    H228680   3.825   1.980   2.484  0.6345 -2.0776  3.3155
 2397TIP3   OH228681   1.763   0.939   5.779  0.0860  0.2294 -0.4999
 2397TIP3    H128682   1.832   0.948   5.712 -1.7197 -0.3181 -2.5383
 2397TIP3    H228683   1.720   1.024   5.780 -0.3047  0.0320 -0.5138
 2398TIP3   OH228684   1.048   4.118   4.183 -0.8025  0.2671 -0.2369
 2398TIP3    H128685   1.107   4.051   4.149 -0.3491  0.1622  0.7182
 2398TIP3    H228686   1.054   4.190   4.120  3.4903  1.9687  1.6843
 2399TIP3   OH228687   4.018   1.816  14.154  0.1280 -0.3278  0.5094
 2399TIP3    H128688   4.007   1.895  14.208 -1.0297 -0.7843  0.9650
 2399TIP3    H228689   3.981   1.840  14.069  1.0330  0.0557  0.2055
 2400TIP3   OH228690   5.890   6.259  16.555  0.2677  0.0774 -0.7222
 2400TIP3    H128691   5.910   6.217  16.638 -1.4307 -1.1017 -0.8610
 2400TIP3    H228692   5.944   6.338  16.554 -0.9201  1.0417  2.2464
 2401TIP3   OH228693   5.741   6.578   2.715 -0.0913 -0.3750  0.1030
 2401TIP3    H128694   5.818   6.566   2.661 -0.5417  1.0727 -0.9401
 2401TIP3    H228695   5.755   6.522   2.791  2.6300  0.8617  0.6218
 2402TIP3   OH228696   6.297   3.307   1.698  0.2190  0.6897  0.0634
 2402TIP3    H128697   6.299   3.279   1.606 -1.1433 -3.0990  0.9951
 2402TIP3    H228698   6.231   3.376   1.701  0.6886  1.2785 -1.8439
 2403TIP3   OH228699   2.743   4.142   6.016 -0.0643  0.3931 -0.3368
 2403TIP3    H128700   2.803   4.130   6.089  0.3684  1.2049 -0.5415
 2403TIP3    H228701   2.659   4.163   6.057 -0.6619 -2.2893  0.0056
 2404TIP3   OH228702   1.292   2.836  16.007 -0.2038 -0.4302  0.2854
 2404TIP3    H128703   1.233   2.787  16.064  0.9946 -0.6094  1.4115
 2404TIP3    H228704   1.249   2.920  15.994 -0.1042 -0.0402  2.2210
 2405TIP3   OH228705   3.687   1.219   3.068  0.0131 -0.0841 -0.2413
 2405TIP3    H128706   3.720   1.293   3.120  1.7508 -1.0461  0.1059
 2405TIP3    H228707   3.662   1.258   2.984  0.4856  0.9789  0.0922
 2406TIP3   OH228708   4.324   0.966  13.172  0.1176  0.0509  0.1559
 2406TIP3    H128709   4.259   1.026  13.208 -2.5528 -2.2398 -0.5832
 2406TIP3    H228710   4.294   0.879  13.195  1.3662 -1.2587 -2.6130
 2407TIP3   OH228711   0.656   3.819   4.399 -0.1848  0.1469  0.7840
 2407TIP3    H128712   0.713   3.896   4.387 -0.5723  0.6129  1.8782
 2407TIP3    H228713   0.679   3.762   4.325  1.2254  0.6145  0.8247
 2408TIP3   OH228714   6.429   6.405  14.219 -0.9037 -0.2426 -0.1075
 2408TIP3    H128715   6.421   6.430  14.311 -1.0119 -0.2746 -0.1089
 2408TIP3    H228716   6.495   6.465  14.184 -0.5815 -0.4845  0.0836
 2409TIP3   OH228717   0.972   3.751   3.459 -0.2605 -0.3961 -0.0540
 2409TIP3    H128718   1.040   3.763   3.525 -0.3398 -2.2008  0.4162
 2409TIP3    H228719   0.911   3.688   3.498 -2.2275  1.1342 -0.4656
 2410TIP3   OH228720   6.109   0.937   0.338 -0.0182 -0.2900  0.2368
 2410TIP3    H128721   6.050   1.005   0.370  0.1894  0.9079 -1.7652
 2410TIP3    H228722   6.171   0.983   0.281  0.9382 -1.9710 -0.1713
 2411TIP3   OH228723   6.227   1.221   0.334 -0.8091  0.0231  0.4437
 2411TIP3    H128724   6.259   1.312   0.335  1.9723 -0.7942 -1.1747
 2411TIP3    H228725   6.168   1.217   0.259  0.9578  0.0521 -1.0387
 2412TIP3   OH228726   4.672   5.872  13.855  0.0061 -0.1022 -0.5467
 2412TIP3    H128727   4.692   5.793  13.805  0.6778  0.8125 -1.7875
 2412TIP3    H228728   4.620   5.925  13.795 -0.5455  0.3569  0.3139
 2413TIP3   OH228729   5.322   6.292   5.301  0.2391  0.1269  0.4374
 2413TIP3    H128730   5.248   6.328   5.349  0.7840  1.4530  0.3150
 2413TIP3    H228731   5.356   6.365   5.249  0.9009 -0.7593 -0.4301
 2414TIP3   OH228732   5.700   2.520   3.143  0.3621  0.0034  0.5760
 2414TIP3    H128733   5.663   2.440   3.182  0.0830  0.4152  1.1654
 2414TIP3    H228734   5.757   2.556   3.211 -1.2908  1.5480  1.2187
 2415TIP3   OH228735   5.796   1.180  16.143 -0.2599  0.2236  0.4505
 2415TIP3    H128736   5.812   1.091  16.173 -0.9964  0.1413  0.6057
 2415TIP3    H228737   5.829   1.235  16.214 -0.2235  0.0677  0.5547
 2416TIP3   OH228738   6.245   0.718   2.937  0.1046  0.2054 -0.0245
 2416TIP3    H128739   6.160   0.676   2.949 -0.3713  1.5837  1.9334
 2416TIP3    H228740   6.232   0.776   2.862 -1.0364  1.1431  0.8600
 2417TIP3   OH228741   4.054   0.535   0.934  0.0877  0.0205 -0.2976
 2417TIP3    H128742   4.032   0.595   1.005 -0.0694  0.0397 -0.3608
 2417TIP3    H228743   3.970   0.497   0.908  0.1811 -0.2053 -0.2765
 2418TIP3   OH228744   1.818   6.500  14.324  0.7279 -0.4458  1.2313
 2418TIP3    H128745   1.827   6.425  14.383  0.7668 -0.0731  1.7076
 2418TIP3    H228746   1.724   6.508  14.311  0.7625 -1.1413  0.4276
 2419TIP3   OH228747   3.795   6.131   2.965 -0.0245 -0.4055  0.3600
 2419TIP3    H128748   3.722   6.159   3.019 -0.1341 -0.7972  0.4171
 2419TIP3    H228749   3.824   6.211   2.921 -1.6173 -0.5474 -1.0364
 2420TIP3   OH228750   4.385   2.918  16.092  0.3497  0.0526 -0.3899
 2420TIP3    H128751   4.393   2.997  16.146 -1.9946  0.3839 -0.4464
 2420TIP3    H228752   4.379   2.847  16.156  1.2242  0.0262 -0.3185
 2421TIP3   OH228753   0.399   1.138  17.046  0.2082 -0.1566 -0.1746
 2421TIP3    H128754   0.443   1.075  17.103  0.7998 -1.6696 -2.1767
 2421TIP3    H228755   0.436   1.223  17.070  1.6925 -0.9661  0.5217
 2422TIP3   OH228756   4.816   1.101  15.886  0.2905 -0.1793 -0.1564
 2422TIP3    H128757   4.903   1.062  15.878 -0.1141 -0.7609 -2.3919
 2422TIP3    H228758   4.756   1.026  15.881 -0.3644  0.2719  0.7276
 2423TIP3   OH228759   0.378   3.133  12.981 -0.1011  0.4223  0.2060
 2423TIP3    H128760   0.422   3.048  12.985 -0.3521  0.2232 -0.9678
 2423TIP3    H228761   0.289   3.116  13.012  0.1850  0.5075  1.0948
 2424TIP3   OH228762   2.668   6.061   1.051  0.7425  0.6757 -0.0367
 2424TIP3    H128763   2.749   6.009   1.047  0.2264 -0.0750 -2.3451
 2424TIP3    H228764   2.699   6.151   1.055  1.6503  0.3442  3.4841
 2425TIP3   OH228765   4.925   5.707   2.635 -0.1843  0.1261  0.3425
 2425TIP3    H128766   4.861   5.744   2.696  0.5531  0.1671  1.1078
 2425TIP3    H228767   4.878   5.638   2.589 -1.9053  2.5288 -1.7939
 2426TIP3   OH228768   5.584   2.951   0.838 -0.4675 -0.2362  0.1409
 2426TIP3    H128769   5.545   2.877   0.884  0.4300 -0.7499  0.1168
 2426TIP3    H228770   5.668   2.917   0.806 -0.7734  0.2954 -1.3125
 2427TIP3   OH228771   1.409   0.025  14.407 -0.0994  0.5355 -0.9837
 2427TIP3    H128772   1.463   0.104  14.404  3.6368 -1.4812  2.7806
 2427TIP3    H228773   1.360   0.032  14.489 -0.9078 -0.3568 -1.3709
 2428TIP3   OH228774   3.520   5.651   1.427 -0.7749  0.3525  0.1127
 2428TIP3    H128775   3.463   5.596   1.481 -2.6780  1.7514 -0.3752
 2428TIP3    H228776   3.585   5.590   1.391  1.3496 -0.5246  4.7385
 2429TIP3   OH228777   0.707   2.207  11.716 -0.1823  0.0761  0.0376
 2429TIP3    H128778   0.795   2.225  11.684 -0.3995 -0.6450 -1.0274
 2429TIP3    H228779   0.720   2.169  11.803  0.5275  0.4530  0.0985
 2430TIP3   OH228780   1.890   5.942  11.779 -0.8973 -0.2134  0.4158
 2430TIP3    H128781   1.844   5.875  11.728 -0.8840 -1.8858  2.5135
 2430TIP3    H228782   1.971   5.901  11.806 -0.1171  1.2371  0.3999
 2431TIP3   OH228783   0.163   6.401  15.531 -0.0114  0.0798 -0.0580
 2431TIP3    H128784   0.079   6.438  15.557 -0.7100 -1.3448 -0.1864
 2431TIP3    H228785   0.143   6.346  15.455  0.6457 -1.9266  1.1460
 2432TIP3   OH228786   3.609   3.662   5.178 -0.0778  0.4661 -0.6059
 2432TIP3    H128787   3.616   3.567   5.184 -0.7544  0.3462 -1.5147
 2432TIP3    H228788   3.674   3.695   5.240 -0.4490 -0.5860  0.3727
 2433TIP3   OH228789   1.398   4.619   2.972  0.0940 -0.5160 -0.2128
 2433TIP3    H128790   1.379   4.697   2.921 -2.3581 -0.5562  0.4951
 2433TIP3    H228791   1.488   4.631   3.003 -0.0188  1.7302 -0.6033
 2434TIP3   OH228792   1.892   1.115  12.691 -0.4185  0.5290  0.0073
 2434TIP3    H128793   1.945   1.037  12.674 -0.6736  0.7777 -2.1888
 2434TIP3    H228794   1.806   1.094  12.653 -0.3590  2.0261 -1.0344
 2435TIP3   OH228795   4.833   2.704  15.709 -0.2353 -0.6773  0.6089
 2435TIP3    H128796   4.808   2.649  15.783 -1.7617 -1.8102 -0.7027
 2435TIP3    H228797   4.903   2.655  15.666 -1.8973 -1.9149 -0.8193
 2436TIP3   OH228798   6.094   6.562   2.740  0.3149 -0.0498  0.6804
 2436TIP3    H128799   6.187   6.552   2.761  0.0616 -2.3599  0.8983
 2436TIP3    H228800   6.092   6.629   2.671  2.1675 -0.2885  0.3458
 2437TIP3   OH228801   3.571   6.246  11.452  0.3689 -0.3207 -0.1600
 2437TIP3    H128802   3.532   6.196  11.381 -1.1706  1.4210 -0.6170
 2437TIP3    H228803   3.536   6.207  11.532  0.5305 -1.0226 -0.4305
 2438TIP3   OH228804   6.764   5.169  12.865 -0.0127 -0.1545 -0.4331
 2438TIP3    H128805   6.823   5.238  12.833 -2.5776  1.7707 -1.2865
 2438TIP3    H228806   6.695   5.164  12.798 -1.2153 -1.8312  0.8581
 2439TIP3   OH228807   2.707   0.271  14.175 -0.0165  0.4767 -0.3276
 2439TIP3    H128808   2.731   0.268  14.083 -1.2228 -0.0818 -0.6506
 2439TIP3    H228809   2.623   0.317  14.177  0.3407  1.1303  0.5837
 2440TIP3   OH228810   5.597   2.106  12.130 -0.2645  0.2249 -0.0189
 2440TIP3    H128811   5.524   2.157  12.164  0.5742  1.3685  0.1113
 2440TIP3    H228812   5.675   2.156  12.153  0.5671 -0.9055 -0.2644
 2441TIP3   OH228813   4.086   0.689  14.457  0.0826 -0.2996  0.1441
 2441TIP3    H128814   4.091   0.783  14.472 -0.9748  0.1095 -1.7750
 2441TIP3    H228815   4.153   0.652  14.514 -0.0236  1.5196  1.5521
 2442TIP3   OH228816   3.670   4.256   4.872  0.1595 -0.5578  0.2175
 2442TIP3    H128817   3.705   4.328   4.820  0.7185 -1.2592 -0.3994
 2442TIP3    H228818   3.746   4.222   4.920 -0.4795  0.5677  2.1354
 2443TIP3   OH228819   1.312   1.832   1.346 -0.0188 -0.3162  1.4443
 2443TIP3    H128820   1.352   1.916   1.322 -0.7488 -0.2890  0.2375
 2443TIP3    H228821   1.227   1.855   1.382 -1.5999 -0.5920 -1.7765
 2444TIP3   OH228822   3.685   3.419   0.812  0.7846  0.2382  0.4445
 2444TIP3    H128823   3.770   3.395   0.848  0.9893  1.9946  1.2800
 2444TIP3    H228824   3.626   3.417   0.888 -0.0414 -1.3668 -0.2017
 2445TIP3   OH228825   1.902   2.146   1.734  0.1994  0.0530  0.7856
 2445TIP3    H128826   1.979   2.202   1.719  0.9784 -1.2961 -0.5188
 2445TIP3    H228827   1.936   2.057   1.728 -1.3997 -0.5675  0.6105
 2446TIP3   OH228828   1.118   5.847   2.180  0.1547  0.4851  0.1550
 2446TIP3    H128829   1.124   5.812   2.090  0.3925 -0.5380  0.5536
 2446TIP3    H228830   1.203   5.827   2.219 -0.5920 -0.7833  1.1938
 2447TIP3   OH228831   3.684   2.923  11.643  0.7178  0.8622  0.1715
 2447TIP3    H128832   3.731   2.896  11.565  2.5145  0.0515  1.4707
 2447TIP3    H228833   3.708   2.859  11.709 -0.2163  1.8999  1.5823
 2448TIP3   OH228834   0.811   0.884  16.405 -0.4907  0.1298  0.4789
 2448TIP3    H128835   0.845   0.859  16.491 -0.7169 -2.0780 -0.0242
 2448TIP3    H228836   0.724   0.845  16.402  0.3438 -1.7623 -1.5656
 2449TIP3   OH228837   0.755   3.070  17.000  0.0632  0.1217  0.6912
 2449TIP3    H128838   0.718   3.034  16.920  1.0467  4.2468 -1.8572
 2449TIP3    H228839   0.679   3.103  17.049 -0.3405 -0.2066  0.2961
 2450TIP3   OH228840   2.805   0.696  12.358 -0.1240 -0.3015  0.5170
 2450TIP3    H128841   2.728   0.707  12.303 -0.7918  1.3553  1.7071
 2450TIP3    H228842   2.876   0.736  12.309 -0.5219  0.3502  0.4685
 2451TIP3   OH228843   0.531   0.790   5.136 -0.0917  0.2940  0.3106
 2451TIP3    H128844   0.537   0.769   5.042 -0.4767 -0.5519  0.4767
 2451TIP3    H228845   0.591   0.864   5.146 -1.4466  1.6469 -0.9634
 2452TIP3   OH228846   4.462   5.038  13.387  0.3058 -0.2447 -0.0618
 2452TIP3    H128847   4.508   5.101  13.442  0.3378 -0.1585 -0.1863
 2452TIP3    H228848   4.372   5.037  13.422  0.0026  0.7198 -0.7697
 2453TIP3   OH228849   0.704   6.565   1.509  0.0041 -0.1626 -0.5435
 2453TIP3    H128850   0.709   6.645   1.562  0.6537 -0.9369  0.6037
 2453TIP3    H228851   0.660   6.593   1.428  1.8681  1.7785 -0.9758
 2454TIP3   OH228852   3.073   3.104  15.491  0.4070 -0.0246  0.3404
 2454TIP3    H128853   2.989   3.067  15.464 -0.4655  1.5386  0.8212
 2454TIP3    H228854   3.081   3.186  15.441  2.6055 -1.0783 -1.2191
 2455TIP3   OH228855   3.226   4.990   3.943 -0.4125 -1.1697 -0.6893
 2455TIP3    H128856   3.133   4.981   3.923 -0.7367  3.1388 -2.1543
 2455TIP3    H228857   3.228   5.039   4.025  0.5524 -0.7492 -0.9489
 2456TIP3   OH228858   2.886   4.233  12.432  0.3323 -0.8317 -0.7477
 2456TIP3    H128859   2.945   4.292  12.477 -0.6921 -1.1516  1.1022
 2456TIP3    H228860   2.855   4.282  12.356  1.9029 -0.1830 -0.9891
 2457TIP3   OH228861   3.328   4.490   2.964 -0.2506 -0.3000 -0.0790
 2457TIP3    H128862   3.281   4.465   2.884  2.0377 -1.6318 -1.1019
 2457TIP3    H228863   3.338   4.409   3.013  2.0547 -0.3689 -0.5443
 2458TIP3   OH228864   6.510   2.397   1.853 -0.2530  0.3165 -0.1890
 2458TIP3    H128865   6.471   2.336   1.916 -0.0186 -0.5989 -0.9129
 2458TIP3    H228866   6.438   2.457   1.831 -1.1332 -1.0121 -1.0898
 2459TIP3   OH228867   2.129   2.628   1.230 -0.4929  0.6848 -0.0935
 2459TIP3    H128868   2.199   2.693   1.223  0.4916 -0.2207  1.0203
 2459TIP3    H228869   2.126   2.606   1.323  0.5720 -2.2930 -0.6463
 2460TIP3   OH228870   6.083   3.790   1.354  0.2568  0.1545  0.0521
 2460TIP3    H128871   6.077   3.696   1.334  3.0060  0.0904 -0.9467
 2460TIP3    H228872   6.177   3.809   1.350 -0.3006  3.1957 -0.9496
 2461TIP3   OH228873   4.653   2.836  15.037  0.0982  0.1317  0.0401
 2461TIP3    H128874   4.702   2.763  14.998  2.6270  0.3565  2.4987
 2461TIP3    H228875   4.653   2.903  14.969 -0.0126 -1.1993 -1.3402
 2462TIP3   OH228876   3.623   5.527  12.554 -0.2198  0.2123  0.4710
 2462TIP3    H128877   3.540   5.562  12.522 -0.3942 -0.2215  0.4503
 2462TIP3    H228878   3.690   5.577  12.507 -0.4711  0.0945 -0.0167
 2463TIP3   OH228879   2.381   0.691   6.328 -0.4058  0.8264 -0.2689
 2463TIP3    H128880   2.319   0.763   6.335  0.0485  1.1400  0.6362
 2463TIP3    H228881   2.335   0.615   6.363  0.8181  1.7547  3.9344
 2464TIP3   OH228882   3.404   3.656  13.016  0.0349 -0.7830  0.9273
 2464TIP3    H128883   3.457   3.638  12.938 -1.4768 -1.0751 -0.0833
 2464TIP3    H228884   3.419   3.581  13.073 -0.8392 -1.9275 -0.2545
 2465TIP3   OH228885   5.498   1.683  13.666  0.7276 -0.2078  0.4981
 2465TIP3    H128886   5.544   1.760  13.633 -3.7469  2.8130  0.4519
 2465TIP3    H228887   5.480   1.703  13.758  0.8668 -2.0208  0.9613
 2466TIP3   OH228888   1.953   3.666   2.489  0.0932  0.9199  0.0564
 2466TIP3    H128889   1.871   3.689   2.446 -0.1151 -0.3475 -0.2848
 2466TIP3    H228890   2.014   3.651   2.417  0.3465  0.8888  0.2778
 2467TIP3   OH228891   0.952   4.678  11.877 -0.0660 -0.4267 -0.2028
 2467TIP3    H128892   1.026   4.698  11.819 -0.7481  1.3650 -0.5066
 2467TIP3    H228893   0.991   4.667  11.963  1.1730 -4.5245 -1.0475
 2468TIP3   OH228894   1.833   2.742   4.739 -0.2516 -0.2379  0.3621
 2468TIP3    H128895   1.840   2.834   4.715 -0.3503 -0.7037 -1.6383
 2468TIP3    H228896   1.886   2.733   4.819 -0.5162  1.5837  0.7857
 2469TIP3   OH228897   2.119   4.498   0.763 -0.3359  0.1193 -0.3916
 2469TIP3    H128898   2.188   4.520   0.826 -0.4783 -0.5810  0.0164
 2469TIP3    H228899   2.103   4.405   0.777 -2.9834  0.7148  1.1403
 2470TIP3   OH228900   5.740   1.658  15.317  0.1528 -0.3256  0.5100
 2470TIP3    H128901   5.781   1.605  15.385 -0.8770 -3.0941 -0.8669
 2470TIP3    H228902   5.781   1.629  15.236 -1.2676  0.1300 -0.4118
 2471TIP3   OH228903   5.090   1.492  13.598 -0.0943  0.0184 -0.5906
 2471TIP3    H128904   5.001   1.491  13.563  0.0811  0.2401 -1.0520
 2471TIP3    H228905   5.146   1.471  13.523  0.3328  1.1796 -0.6193
 2472TIP3   OH228906   3.600   3.073   3.455  0.3052  0.0070 -0.1220
 2472TIP3    H128907   3.640   2.995   3.493  1.5992  0.1614 -1.1114
 2472TIP3    H228908   3.577   3.048   3.366  1.5163  0.9610 -0.7407
 2473TIP3   OH228909   1.534   3.760  15.002  0.0545 -0.4678 -0.1429
 2473TIP3    H128910   1.500   3.809  15.077 -2.3369 -1.7681 -0.2772
 2473TIP3    H228911   1.478   3.683  14.997  1.3149 -1.3230 -2.1926
 2474TIP3   OH228912   3.572   0.960   6.784  0.0321  0.2230 -0.0592
 2474TIP3    H128913   3.608   1.034   6.834 -0.0574  0.3913 -0.2442
 2474TIP3    H228914   3.563   0.993   6.695 -3.7361  1.3448  0.5496
 2475TIP3   OH228915   2.615   3.691   0.060  0.3270 -0.7245 -0.3631
 2475TIP3    H128916   2.526   3.664   0.081 -0.7821  2.0681 -1.0604
 2475TIP3    H228917   2.635   3.760   0.123  0.4447  1.3654 -2.5475
 2476TIP3   OH228918   2.070   3.850   0.832  0.4225  0.0574 -0.3188
 2476TIP3    H128919   2.074   3.757   0.810  1.1592 -0.4659  1.7416
 2476TIP3    H228920   1.991   3.858   0.886  1.1087  0.3065  0.6820
 2477TIP3   OH228921   5.884   1.228  11.224  0.1050 -0.1921  0.1741
 2477TIP3    H128922   5.872   1.274  11.141  1.2959  0.4143  0.3139
 2477TIP3    H228923   5.800   1.184  11.240 -2.0506  3.7971  1.2135
 2478TIP3   OH228924   5.124   1.429   1.192 -0.1577 -0.1923  0.0204
 2478TIP3    H128925   5.086   1.403   1.109  0.6107  0.8102 -0.6719
 2478TIP3    H228926   5.059   1.488   1.231  0.9402  2.2027 -1.5494
 2479TIP3   OH228927   4.465   0.780   5.502 -0.4704 -0.1098 -0.0992
 2479TIP3    H128928   4.416   0.698   5.497  0.2586 -0.4834 -2.9984
 2479TIP3    H228929   4.415   0.841   5.448  0.9218  0.1886 -1.1202
 2480TIP3   OH228930   1.467   6.171  14.822 -0.2106  0.3400 -0.0098
 2480TIP3    H128931   1.470   6.110  14.896 -2.7810 -0.2290 -0.2903
 2480TIP3    H228932   1.489   6.256  14.860 -0.4970 -0.1103  1.2161
 2481TIP3   OH228933   3.157   4.749  12.281  0.0606  0.2403 -0.2102
 2481TIP3    H128934   3.241   4.788  12.257  0.0132  1.0635  0.9000
 2481TIP3    H228935   3.152   4.759  12.376 -1.4584  0.5641 -0.2976
 2482TIP3   OH228936   1.715   2.307   5.474 -0.1153  0.2065  0.2306
 2482TIP3    H128937   1.808   2.303   5.454  0.1436 -0.5275  1.4681
 2482TIP3    H228938   1.674   2.338   5.393  1.4475  3.0356  0.3979
 2483TIP3   OH228939   1.018   2.975   3.290 -0.2752 -0.0707  0.0527
 2483TIP3    H128940   0.963   3.003   3.217 -0.6773  1.1330  0.8077
 2483TIP3    H228941   1.090   3.038   3.291  0.1716 -0.5754  0.1919
 2484TIP3   OH228942   6.581   0.442   2.562 -0.3701  0.1894  0.3474
 2484TIP3    H128943   6.538   0.469   2.481 -0.0030 -0.1854  0.0225
 2484TIP3    H228944   6.512   0.448   2.628 -1.2847 -1.5565 -0.3644
 2485TIP3   OH228945   2.257   3.423   0.263  0.3920 -0.4051 -0.0782
 2485TIP3    H128946   2.292   3.421   0.353  1.9122  0.4058 -0.6164
 2485TIP3    H228947   2.163   3.436   0.275  0.6758  0.6137  1.3944
 2486TIP3   OH228948   5.840   5.953  15.511  0.0202  0.0431 -0.0456
 2486TIP3    H128949   5.854   5.862  15.537  1.0251  0.2069  0.0289
 2486TIP3    H228950   5.746   5.959  15.495 -0.2248 -0.7473  0.9537
 2487TIP3   OH228951   3.596   5.108   4.131 -0.3137 -0.1683  0.2847
 2487TIP3    H128952   3.524   5.091   4.192 -0.9130 -0.0075 -0.3591
 2487TIP3    H228953   3.553   5.122   4.047  0.5482 -1.1621 -0.3385
 2488TIP3   OH228954   1.085   4.528  17.012  0.1892  0.2166  0.1225
 2488TIP3    H128955   1.000   4.556  16.978 -0.9735 -2.1133  0.9544
 2488TIP3    H228956   1.138   4.608  17.011 -1.5249  1.4357 -1.7738
 2489TIP3   OH228957   3.963   4.316  12.322  0.4892  0.5595  0.1307
 2489TIP3    H128958   3.992   4.390  12.375 -0.4233  1.9792 -1.2646
 2489TIP3    H228959   4.013   4.323  12.241  0.0717 -0.0830 -0.1949
 2490TIP3   OH228960   3.238   5.118  12.494 -0.6940 -0.1436 -0.2567
 2490TIP3    H128961   3.231   5.027  12.523 -2.9816  0.2418  0.6364
 2490TIP3    H228962   3.325   5.125  12.456 -0.3347 -2.6068 -0.0201
 2491TIP3   OH228963   0.101   2.909   2.965 -0.0358 -0.2515 -0.3600
 2491TIP3    H128964   0.040   2.918   3.038  0.5428  0.9931 -0.0015
 2491TIP3    H228965   0.134   2.998   2.950  2.1210 -0.9550 -0.1624
 2492TIP3   OH228966   6.589   4.454  13.137 -0.4341  0.1851  0.3099
 2492TIP3    H128967   6.538   4.406  13.071 -0.9500  0.4393  0.5220
 2492TIP3    H228968   6.524   4.493  13.194 -0.0467  1.8671 -0.3593
 2493TIP3   OH228969   6.456   3.306  11.964 -0.3116 -0.2053  0.5572
 2493TIP3    H128970   6.507   3.228  11.982 -1.0671 -0.8369  0.0257
 2493TIP3    H228971   6.399   3.316  12.041  0.0243  0.0225  0.7780
 2494TIP3   OH228972   5.265   6.744   0.988 -0.0888 -0.1784 -0.2047
 2494TIP3    H128973   5.258   6.801   0.911 -2.8631  2.2097  1.6180
 2494TIP3    H228974   5.269   6.804   1.062 -0.3830 -2.3717  1.7142
 2495TIP3   OH228975   6.727   4.354  14.413  0.0936  0.2267 -1.2324
 2495TIP3    H128976   6.650   4.340  14.358 -0.5322 -1.0969 -0.1023
 2495TIP3    H228977   6.692   4.387  14.495  0.6030 -1.1256 -0.4249
 2496TIP3   OH228978   6.742   1.421   2.042 -0.0232 -1.0368  0.0820
 2496TIP3    H128979   6.775   1.407   1.954 -1.4470  0.0139 -0.6600
 2496TIP3    H228980   6.808   1.381   2.099  0.4492 -2.5863 -1.4722
 2497TIP3   OH228981   1.150   1.702  16.601  0.1080 -0.2256 -0.7878
 2497TIP3    H128982   1.168   1.766  16.670 -0.3278 -1.1263  0.2005
 2497TIP3    H228983   1.215   1.633  16.615  0.4370 -0.1185 -1.7013
 2498TIP3   OH228984   1.170   1.873   1.066 -0.2517 -0.2842 -0.0501
 2498TIP3    H128985   1.119   1.936   1.016 -2.8643 -2.3006 -0.1030
 2498TIP3    H228986   1.193   1.804   1.003  1.1972 -0.2088  0.3541
 2499TIP3   OH228987   2.283   6.492  14.844 -0.5399 -0.0043 -0.1655
 2499TIP3    H128988   2.282   6.508  14.750 -0.8837  0.4390 -0.0850
 2499TIP3    H228989   2.361   6.438  14.857  1.2517  2.4005 -0.3113
 2500TIP3   OH228990   5.339   5.755  11.267  0.0963  0.4704  0.2994
 2500TIP3    H128991   5.428   5.790  11.256 -0.6427  2.3045 -0.2106
 2500TIP3    H228992   5.339   5.673  11.217  0.3738  2.5028 -3.4325
 2501TIP3   OH228993   2.437   5.642   1.050  0.4610  0.5561 -0.5291
 2501TIP3    H128994   2.438   5.724   1.099  0.4577  0.8752 -1.0644
 2501TIP3    H228995   2.362   5.594   1.085  0.8877  0.4645  0.2939
 2502TIP3   OH228996   0.718   6.113  12.193 -0.2659  0.5969 -0.0794
 2502TIP3    H128997   0.792   6.085  12.248 -1.5413 -0.5345  1.1400
 2502TIP3    H228998   0.759   6.157  12.118  1.8129 -2.0387 -0.6634
 2503TIP3   OH228999   4.012   2.542  13.194 -0.6785  0.3204 -0.0234
 2503TIP3    H129000   4.013   2.594  13.274 -0.3406  0.8518 -0.3724
 2503TIP3    H229001   3.926   2.500  13.194 -0.9239  0.8178  0.3009
 2504TIP3   OH229002   0.427   6.048   5.840  0.3761  0.1442  0.4354
 2504TIP3    H129003   0.432   6.134   5.881 -1.9417 -0.7522  2.8842
 2504TIP3    H229004   0.375   5.995   5.900  0.2071 -2.5136 -1.8142
 2505TIP3   OH229005   3.580   1.293  16.929 -0.0775  0.2482  0.0473
 2505TIP3    H129006   3.659   1.326  16.972  0.3031  0.6762 -0.9394
 2505TIP3    H229007   3.508   1.336  16.975  0.2201 -0.5653  1.3195
 2506TIP3   OH229008   1.030   0.109   5.495 -0.7897 -0.4900  0.5641
 2506TIP3    H129009   0.956   0.167   5.514 -1.1317 -1.4577  2.4382
 2506TIP3    H229010   1.027   0.043   5.565  1.5416 -0.8471  0.4043
 2507TIP3   OH229011   1.661   3.074   1.687 -0.4382 -0.2850  0.2857
 2507TIP3    H129012   1.588   3.135   1.694  0.1544  0.5137 -0.2959
 2507TIP3    H229013   1.708   3.082   1.770 -0.4507 -0.0578  0.2709
 2508TIP3   OH229014   3.485   4.182   4.530  0.3876  0.3513 -0.4252
 2508TIP3    H129015   3.477   4.273   4.559 -2.2115  0.1804 -0.3271
 2508TIP3    H229016   3.396   4.147   4.539  1.2943 -2.1741 -0.5689
 2509TIP3   OH229017   1.377   3.551  12.927  0.0462  0.4730  0.5413
 2509TIP3    H129018   1.349   3.552  12.835 -0.8140 -0.1920  0.7883
 2509TIP3    H229019   1.297   3.566  12.977  0.7310  2.5092  1.1698
 2510TIP3   OH229020   0.253   1.252   3.602  0.6545 -0.2998  0.2965
 2510TIP3    H129021   0.280   1.188   3.536 -0.1512 -1.8112  1.3869
 2510TIP3    H229022   0.275   1.213   3.686 -0.8566  0.3344  1.0439
 2511TIP3   OH229023   6.115   4.977   6.359 -0.9119 -0.0247  0.3363
 2511TIP3    H129024   6.194   5.031   6.357  0.4296 -1.8964 -1.9006
 2511TIP3    H229025   6.046   5.034   6.324 -0.0754  0.9768  0.2740
 2512TIP3   OH229026   5.390   4.171   0.746 -0.5766  0.1494 -0.0583
 2512TIP3    H129027   5.466   4.207   0.792 -0.5731  0.4350 -0.2885
 2512TIP3    H229028   5.417   4.083   0.720 -0.2463  0.3298 -0.3337
 2513TIP3   OH229029   5.248   3.448  12.287  0.1920 -0.0937  0.2062
 2513TIP3    H129030   5.215   3.398  12.362  0.3051 -0.2464  0.1537
 2513TIP3    H229031   5.217   3.538  12.303 -0.6285 -0.3185 -0.0653
 2514TIP3   OH229032   0.424   2.567   0.849 -0.4988  0.3109  0.1717
 2514TIP3    H129033   0.473   2.485   0.838  0.2838  0.5819  1.4951
 2514TIP3    H229034   0.486   2.636   0.824 -1.3143  0.5174 -1.4399
 2515TIP3   OH229035   3.298   6.443  15.970 -0.8139  0.7873  0.1775
 2515TIP3    H129036   3.290   6.538  15.973 -0.0222  0.9452 -1.7994
 2515TIP3    H229037   3.251   6.416  15.891 -0.5226 -0.4061  0.3810
 2516TIP3   OH229038   6.507   4.618   3.816 -0.1153 -0.3970  0.0940
 2516TIP3    H129039   6.427   4.589   3.860  0.3958 -1.1225  0.5718
 2516TIP3    H229040   6.574   4.614   3.884  0.3185  0.2383 -0.2951
 2517TIP3   OH229041   6.571   4.456   4.556  0.4339  0.7429 -0.1519
 2517TIP3    H129042   6.621   4.388   4.601  0.6223 -0.9760 -2.7315
 2517TIP3    H229043   6.621   4.474   4.476 -1.0403  1.8617 -0.8812
 2518TIP3   OH229044   5.489   3.391   1.463  0.1112 -0.2315 -0.3619
 2518TIP3    H129045   5.465   3.458   1.399  1.0455 -1.9412 -2.6667
 2518TIP3    H229046   5.408   3.374   1.511 -1.1461 -0.0925 -2.3039
 2519TIP3   OH229047   1.680   2.281   3.032  0.1681 -0.1106 -0.2851
 2519TIP3    H129048   1.612   2.301   3.097  0.9298  0.9902  0.2196
 2519TIP3    H229049   1.632   2.257   2.953 -0.8265  0.8900 -0.0132
 2520TIP3   OH229050   0.766   0.926   0.025 -0.4633  0.2498 -1.2447
 2520TIP3    H129051   0.695   0.863   0.031 -1.0488  0.9928  2.6857
 2520TIP3    H229052   0.843   0.880   0.060 -0.1954  0.8076 -1.0762
 2521TIP3   OH229053   0.870   3.574  11.275 -0.1455  0.1851 -0.2772
 2521TIP3    H129054   0.789   3.527  11.296  1.1283 -0.8004  3.2108
 2521TIP3    H229055   0.932   3.505  11.253  0.8182  0.4789  1.3724
 2522TIP3   OH229056   2.044   1.181   1.342  0.0938  0.2842  0.7673
 2522TIP3    H129057   2.029   1.270   1.372  2.1526  0.7429  0.5839
 2522TIP3    H229058   2.135   1.180   1.313 -0.4087 -1.3856 -1.0216
 2523TIP3   OH229059   4.110   3.095  12.584 -0.4776 -0.4096  0.6206
 2523TIP3    H129060   4.076   3.147  12.511 -0.7208 -2.9552 -1.2086
 2523TIP3    H229061   4.032   3.078  12.638 -1.3446 -2.4631 -1.1495
 2524TIP3   OH229062   3.853   5.408   4.039 -0.1636  0.0328  0.5017
 2524TIP3    H129063   3.864   5.353   3.962 -0.0528  0.7133  0.0265
 2524TIP3    H229064   3.843   5.346   4.111  1.8463 -0.6202  0.2630
 2525TIP3   OH229065   1.390   0.290   0.089 -0.1388 -0.3696  0.4482
 2525TIP3    H129066   1.378   0.198   0.112  2.0709 -0.8979 -0.2018
 2525TIP3    H229067   1.359   0.339   0.165  0.1379 -1.7425  1.4826
 2526TIP3   OH229068   6.076   5.065  17.205 -0.4410 -0.5954  0.3538
 2526TIP3    H129069   6.115   5.153  17.211 -1.4128  0.0319 -1.6825
 2526TIP3    H229070   6.059   5.053  17.112 -2.4138 -2.0464  0.8475
 2527TIP3   OH229071   2.802   1.407   5.485 -0.0674 -0.0455 -0.3488
 2527TIP3    H129072   2.833   1.412   5.394  1.4341  2.1838  0.2026
 2527TIP3    H229073   2.857   1.469   5.532 -2.5159  0.7919  1.6036
 2528TIP3   OH229074   5.240   6.040   1.855 -0.2179  0.8956 -0.3999
 2528TIP3    H129075   5.263   6.122   1.810 -0.2929  1.4432  0.5443
 2528TIP3    H229076   5.248   6.060   1.948 -1.4275  0.1814 -0.1246
 2529TIP3   OH229077   4.566   6.604  16.327 -0.1426  0.2557  0.1350
 2529TIP3    H129078   4.600   6.523  16.288  0.5072  0.1569  0.8871
 2529TIP3    H229079   4.643   6.660  16.336 -0.4115  0.5538  0.6007
 2530TIP3   OH229080   5.318   0.413   3.403 -0.5189 -0.4047 -0.4898
 2530TIP3    H129081   5.244   0.367   3.362 -0.1315 -0.3070 -1.3303
 2530TIP3    H229082   5.313   0.501   3.367 -0.1277 -0.3329 -0.3666
 2531TIP3   OH229083   5.949   3.417   4.269  0.0900 -0.0227  0.5991
 2531TIP3    H129084   5.922   3.494   4.218  1.0985  0.2716  0.4906
 2531TIP3    H229085   5.999   3.364   4.207 -0.6382 -0.8031  0.6611
 2532TIP3   OH229086   2.337   4.480   3.936  0.8029 -0.0956 -0.5134
 2532TIP3    H129087   2.287   4.512   3.862 -0.3499  1.8145  0.9843
 2532TIP3    H229088   2.428   4.487   3.909  0.4565  1.7140 -1.3532
 2533TIP3   OH229089   3.776   0.372   4.887  0.4951  0.1146  0.4520
 2533TIP3    H129090   3.846   0.396   4.826  0.3764 -3.0856 -1.1357
 2533TIP3    H229091   3.697   0.412   4.850  1.1378  2.4592  1.4247
 2534TIP3   OH229092   1.697   1.656   6.168 -0.6856  0.5543 -0.7830
 2534TIP3    H129093   1.783   1.685   6.138 -0.7679  0.8970 -0.6902
 2534TIP3    H229094   1.649   1.636   6.088 -0.6548  0.7441 -0.8483
 2535TIP3   OH229095   5.094   1.067   2.240 -0.0054 -0.1369 -0.1292
 2535TIP3    H129096   5.175   1.021   2.263  1.1504  1.9436  0.2870
 2535TIP3    H229097   5.032   1.044   2.310  0.6355 -0.7721  0.2441
 2536TIP3   OH229098   2.217   6.145  15.439  0.1615 -0.4010 -0.1516
 2536TIP3    H129099   2.238   6.053  15.430  1.0090 -0.2599  0.2551
 2536TIP3    H229100   2.237   6.183  15.354  0.0246 -0.5586 -0.2529
 2537TIP3   OH229101   4.032   3.128   4.104  0.1485  0.6264  0.1805
 2537TIP3    H129102   4.045   3.107   4.196 -2.2225  0.3534  0.5137
 2537TIP3    H229103   4.009   3.221   4.104  0.3062  0.6662 -0.1581
 2538TIP3   OH229104   0.524   5.323  11.272 -0.2729 -0.6807 -0.3158
 2538TIP3    H129105   0.586   5.360  11.210 -1.3596  0.6632 -0.6442
 2538TIP3    H229106   0.560   5.344  11.358 -1.4107  2.3319 -0.4532
 2539TIP3   OH229107   2.599   2.614   4.326  0.0918 -0.5959  0.2766
 2539TIP3    H129108   2.631   2.702   4.348 -0.9064 -0.4012  1.0160
 2539TIP3    H229109   2.545   2.589   4.400 -1.3371 -0.9612 -0.8485
 2540TIP3   OH229110   3.635   2.353  14.582  0.5053 -0.5784 -0.2599
 2540TIP3    H129111   3.632   2.262  14.611  0.7210 -0.4292  0.2465
 2540TIP3    H229112   3.728   2.371  14.568  0.6299  0.0475  1.2416
 2541TIP3   OH229113   2.418   1.036   1.499 -0.1401 -0.6732 -0.2562
 2541TIP3    H129114   2.389   1.127   1.493  0.4247 -0.5125 -0.6194
 2541TIP3    H229115   2.492   1.031   1.439  1.1295 -0.8599  1.2592
 2542TIP3   OH229116   2.808   6.050  12.427 -0.5333 -0.1247  0.2553
 2542TIP3    H129117   2.862   5.992  12.481  0.1851  0.7364  0.4823
 2542TIP3    H229118   2.869   6.086  12.362 -0.9366  0.5012  0.2185
 2543TIP3   OH229119   1.456   5.908   0.989 -0.7512 -0.4327 -0.1827
 2543TIP3    H129120   1.486   5.964   0.918  0.8589 -0.5407  0.3768
 2543TIP3    H229121   1.383   5.956   1.029 -0.6487  0.3508 -0.9202
 2544TIP3   OH229122   4.001   0.384  16.241  0.4556  0.2605  0.4360
 2544TIP3    H129123   4.045   0.416  16.320  2.4533  0.4308 -0.6696
 2544TIP3    H229124   4.025   0.447  16.173 -2.3938  0.9221 -0.0682
 2545TIP3   OH229125   2.280   3.453   5.456 -0.5444  0.8213  0.3645
 2545TIP3    H129126   2.353   3.393   5.466 -1.2721 -0.1311  0.1519
 2545TIP3    H229127   2.296   3.498   5.374 -0.2487  0.5403  0.2692
 2546TIP3   OH229128   1.453   3.260  14.982 -0.3049  0.0736 -0.0600
 2546TIP3    H129129   1.424   3.243  15.071  1.7369 -0.2369  0.5769
 2546TIP3    H229130   1.378   3.236  14.927 -1.8139  0.8629  1.5745
 2547TIP3   OH229131   4.783   0.802   4.827 -0.3014 -0.3166  0.3649
 2547TIP3    H129132   4.787   0.896   4.843 -0.8614  0.0114 -1.2493
 2547TIP3    H229133   4.708   0.771   4.877 -0.9462  0.3497 -0.1744
 2548TIP3   OH229134   2.513   5.366   3.980 -0.3668  0.1408  0.2230
 2548TIP3    H129135   2.419   5.379   3.977 -0.2122  1.3708  0.2484
 2548TIP3    H229136   2.550   5.454   3.969  0.7463 -0.0151  2.3001
 2549TIP3   OH229137   6.087   0.904  16.635  0.4051  0.0119  0.0850
 2549TIP3    H129138   6.177   0.872  16.623  0.3837 -0.7615  1.7536
 2549TIP3    H229139   6.097   0.994  16.664  0.6840 -0.2867  0.9401
 2550TIP3   OH229140   4.679   5.891  11.890 -0.1981 -0.0627 -0.6948
 2550TIP3    H129141   4.639   5.859  11.809 -2.4272  2.0977 -0.5768
 2550TIP3    H229142   4.614   5.871  11.958  0.0232  1.2989 -0.0528
 2551TIP3   OH229143   0.160   1.267  11.629 -0.0304 -0.6943 -0.1645
 2551TIP3    H129144   0.195   1.349  11.663 -0.4599 -0.5588 -0.0361
 2551TIP3    H229145   0.119   1.225  11.705  0.6503 -1.2823 -0.1145
 2552TIP3   OH229146   1.068   1.404  10.602 -0.0014  0.3263 -0.3117
 2552TIP3    H129147   1.002   1.388  10.534  0.5745 -0.2838 -0.7423
 2552TIP3    H229148   1.144   1.352  10.574 -1.0374 -3.3252  2.8500
 2553TIP3   OH229149   5.580   6.100  12.774 -0.0287  0.0107  0.4727
 2553TIP3    H129150   5.556   6.189  12.750  0.2480  0.5098  1.9142
 2553TIP3    H229151   5.594   6.055  12.691  1.9701  1.9059 -0.3108
 2554TIP3   OH229152   0.766   4.351   3.791 -0.2367 -0.5777  0.1910
 2554TIP3    H129153   0.831   4.297   3.747  0.2546 -0.8948  1.2898
 2554TIP3    H229154   0.816   4.418   3.837 -0.7891  0.2550 -0.3844
 2555TIP3   OH229155   4.508   3.317   0.639  0.4527  0.0579  0.4100
 2555TIP3    H129156   4.448   3.277   0.702  0.3624  1.0895  1.0014
 2555TIP3    H229157   4.462   3.395   0.608  1.5607  0.9945  1.0424
 2556TIP3   OH229158   2.572   0.313  15.256  0.2440 -0.7909 -0.3525
 2556TIP3    H129159   2.602   0.367  15.183  0.9897 -1.3371 -0.4636
 2556TIP3    H229160   2.491   0.355  15.285  0.7175  0.2781 -0.5364
 2557TIP3   OH229161   5.612   0.212  14.906 -0.1963  0.7099 -0.0515
 2557TIP3    H129162   5.562   0.270  14.964 -1.3756 -1.9491  1.7625
 2557TIP3    H229163   5.552   0.139  14.888  1.6743 -0.6446 -1.1123
 2558TIP3   OH229164   6.712   5.756   4.373  0.7008 -0.1745 -0.0812
 2558TIP3    H129165   6.641   5.761   4.309 -0.4182 -1.5032  0.9852
 2558TIP3    H229166   6.706   5.667   4.408  3.6313 -0.7477 -0.7380
 2559TIP3   OH229167   3.611   5.304   2.578  0.4443 -0.2212  0.3453
 2559TIP3    H129168   3.523   5.295   2.615  0.0885 -1.7433 -0.7926
 2559TIP3    H229169   3.653   5.370   2.634 -1.4629  0.7051  0.7893
 2560TIP3   OH229170   5.806   0.704   0.747  0.1840  0.1328  0.4087
 2560TIP3    H129171   5.810   0.707   0.842  5.3333  0.1927  0.4723
 2560TIP3    H229172   5.782   0.614   0.726 -0.9707  0.1145  1.7122
 2561TIP3   OH229173   3.307   2.016  15.696 -0.3187 -0.5112 -0.3831
 2561TIP3    H129174   3.394   2.004  15.734  0.4809  0.3485 -1.8790
 2561TIP3    H229175   3.303   1.953  15.625 -0.5900  0.0400 -0.8623
 2562TIP3   OH229176   5.311   2.240   3.824 -0.2136  0.5136 -0.2074
 2562TIP3    H129177   5.226   2.214   3.860  0.2307  0.1372  0.5967
 2562TIP3    H229178   5.292   2.267   3.734 -1.2705  0.9904  0.1522
 2563TIP3   OH229179   2.885   1.259  17.281  0.4095 -0.2241  0.1068
 2563TIP3    H129180   2.969   1.292  17.312  1.1852 -2.6714  0.8602
 2563TIP3    H229181   2.855   1.200  17.351 -0.8830 -1.0413 -1.0793
 2564TIP3   OH229182   5.488   3.803   3.934 -0.2951 -0.0904  0.4791
 2564TIP3    H129183   5.559   3.790   3.997 -0.1807 -0.2769  0.3099
 2564TIP3    H229184   5.410   3.813   3.989 -0.2194 -0.4062  0.6457
 2565TIP3   OH229185   6.734   5.552  15.160 -0.3997 -0.1701 -0.1041
 2565TIP3    H129186   6.665   5.519  15.216 -0.8569 -1.2781 -1.2797
 2565TIP3    H229187   6.815   5.538  15.210 -0.5633 -3.0815 -0.5078
 2566TIP3   OH229188   4.847   4.665  14.699  0.5750  0.4678 -0.6577
 2566TIP3    H129189   4.831   4.655  14.605 -0.4462 -0.9299 -0.3643
 2566TIP3    H229190   4.939   4.641  14.710 -0.3474 -3.8823 -0.7878
 2567TIP3   OH229191   1.160   6.498  15.421  0.3666  0.3636 -0.1973
 2567TIP3    H129192   1.188   6.458  15.504 -2.1707 -1.4480 -0.1049
 2567TIP3    H229193   1.167   6.428  15.356 -2.9709 -0.0751 -0.2893
 2568TIP3   OH229194   2.690   1.987  14.372 -0.3953  0.2174 -0.0546
 2568TIP3    H129195   2.679   1.984  14.467 -0.4819 -0.6206 -0.0801
 2568TIP3    H229196   2.627   1.922  14.338 -1.3618  1.4688 -0.7869
 2569TIP3   OH229197   1.840   6.197  14.176 -0.0619  0.2972 -0.1135
 2569TIP3    H129198   1.770   6.143  14.212 -1.4205  0.7587 -1.9067
 2569TIP3    H229199   1.795   6.272  14.136  1.0483 -0.8774 -4.0601
 2570TIP3   OH229200   5.453   4.641   0.395  0.4520  0.0751 -0.1475
 2570TIP3    H129201   5.362   4.653   0.421  0.4551  1.6663 -0.7941
 2570TIP3    H229202   5.500   4.631   0.478 -0.2677 -0.5357  0.1971
 2571TIP3   OH229203   3.493   4.419  13.308 -0.0950 -0.1262 -0.0030
 2571TIP3    H129204   3.502   4.345  13.368  0.5619  0.2536  0.3808
 2571TIP3    H229205   3.542   4.490  13.350 -1.7155  0.8942  0.2298
 2572TIP3   OH229206   4.925   3.935   3.638 -0.3843  0.5823  0.1412
 2572TIP3    H129207   4.888   3.872   3.576 -0.9865  0.1685  0.9063
 2572TIP3    H229208   5.007   3.964   3.597 -0.3766 -0.2749 -0.4758
 2573TIP3   OH229209   5.048   4.996   0.050 -0.2429 -0.4459 -0.0473
 2573TIP3    H129210   5.016   4.981   0.139 -1.0740  0.4966 -0.1800
 2573TIP3    H229211   5.141   4.971   0.054 -0.3843 -0.8700  0.9531
 2574TIP3   OH229212   1.142   3.004   5.376 -0.0475  0.4504 -0.0220
 2574TIP3    H129213   1.178   3.012   5.287  0.8639  0.6167  0.3444
 2574TIP3    H229214   1.110   3.092   5.396 -0.4345  0.3649 -0.2561
 2575TIP3   OH229215   3.920   0.454  12.058 -0.0138  0.3355 -0.2387
 2575TIP3    H129216   3.926   0.532  12.112  0.9561  1.2747 -1.6384
 2575TIP3    H229217   3.835   0.460  12.015 -0.1471  0.3643  0.0302
 2576TIP3   OH229218   3.336   2.423   0.325 -0.2214  0.2783 -0.4001
 2576TIP3    H129219   3.278   2.479   0.272  0.1135  2.1346  1.1195
 2576TIP3    H229220   3.363   2.354   0.264  0.2753  2.3723 -2.7585
 2577TIP3   OH229221   4.517   3.659  16.629  0.8487 -0.0833  0.0912
 2577TIP3    H129222   4.498   3.567  16.612 -1.0920  0.1127  0.9595
 2577TIP3    H229223   4.488   3.705  16.550  1.7456 -0.1999 -0.3106
 2578TIP3   OH229224   5.171   1.532   2.525  0.5544  0.4462  0.0037
 2578TIP3    H129225   5.219   1.494   2.451 -1.0412 -0.1723 -0.7600
 2578TIP3    H229226   5.090   1.564   2.486 -2.2674 -3.4911  1.9725
 2579TIP3   OH229227   2.848   2.975   1.796  0.3107 -0.9217 -0.5245
 2579TIP3    H129228   2.773   3.006   1.747  0.1210 -0.2611  0.1655
 2579TIP3    H229229   2.821   2.888   1.828 -0.0678 -0.7963 -0.4928
 2580TIP3   OH229230   4.170   6.040  15.542 -0.2181  0.3483 -0.4169
 2580TIP3    H129231   4.261   6.016  15.524  0.3912  1.3568  1.1452
 2580TIP3    H229232   4.134   5.965  15.590 -0.6975 -0.6702 -2.2452
 2581TIP3   OH229233   4.298   5.183   3.782 -0.2304  0.5834 -0.0321
 2581TIP3    H129234   4.257   5.233   3.852  0.3486 -1.3589  1.8021
 2581TIP3    H229235   4.381   5.227   3.767 -0.4791  1.1853  0.3066
 2582TIP3   OH229236   0.766   4.381   6.130 -0.2005 -0.3925  0.2789
 2582TIP3    H129237   0.842   4.438   6.118 -2.0393  1.8342 -1.8112
 2582TIP3    H229238   0.791   4.298   6.089  0.7937  0.5953 -1.1981
 2583TIP3   OH229239   0.443   5.398   1.912 -0.2309 -0.1683  0.1868
 2583TIP3    H129240   0.365   5.348   1.890  0.2951 -0.1082 -2.0869
 2583TIP3    H229241   0.514   5.334   1.910 -0.0284  0.0354  0.7796
 2584TIP3   OH229242   5.833   0.436   4.671  0.4296  0.2222  0.3030
 2584TIP3    H129243   5.885   0.444   4.591 -0.2526  4.3796  0.0672
 2584TIP3    H229244   5.742   0.435   4.640  0.0486  3.8743  0.8760
 2585TIP3   OH229245   2.331   1.815   3.102  0.3238 -0.3688 -0.3700
 2585TIP3    H129246   2.315   1.904   3.069  0.7274  0.2413  0.9958
 2585TIP3    H229247   2.425   1.803   3.094  1.0220  1.1050  3.4475
 2586TIP3   OH229248   2.388   0.717  13.064  0.3313 -0.0645  0.1355
 2586TIP3    H129249   2.417   0.807  13.051 -0.4068  0.1759  0.0946
 2586TIP3    H229250   2.377   0.709  13.159 -1.5073  0.5289  0.0245
 2587TIP3   OH229251   2.083   6.172  12.795  0.5745 -0.7743  0.5146
 2587TIP3    H129252   2.113   6.261  12.774  2.1797 -1.3554  0.2451
 2587TIP3    H229253   2.155   6.115  12.770 -0.3319 -2.1591  0.9102
 2588TIP3   OH229254   1.111   0.045   6.509  0.3030  0.0724 -0.1859
 2588TIP3    H129255   1.016   0.033   6.504  0.3036  0.1841 -0.4945
 2588TIP3    H229256   1.136   0.073   6.421  0.4193  1.5255  0.2951
 2589TIP3   OH229257   4.354   5.126   2.301 -0.3182  0.4369 -0.1657
 2589TIP3    H129258   4.339   5.140   2.394  0.4078  0.3844 -0.0404
 2589TIP3    H229259   4.342   5.213   2.262  1.4538  0.9093  0.2576
 2590TIP3   OH229260   0.881   1.627   2.950  0.1921 -0.2837  1.0356
 2590TIP3    H129261   0.940   1.632   3.025 -1.2914  1.0996  2.2065
 2590TIP3    H229262   0.794   1.643   2.987 -0.7444 -0.7079 -0.8320
 2591TIP3   OH229263   1.296   0.520   5.578 -0.1635  0.2370 -0.4445
 2591TIP3    H129264   1.216   0.537   5.529 -0.6695  1.1485  0.6571
 2591TIP3    H229265   1.273   0.451   5.639  0.2421 -0.3307 -0.9178
 2592TIP3   OH229266   3.389   4.383   5.364  0.0222 -0.2382 -0.2816
 2592TIP3    H129267   3.443   4.321   5.314 -2.5177 -1.0377 -2.2571
 2592TIP3    H229268   3.388   4.462   5.311 -0.4189 -0.1019 -0.0717
 2593TIP3   OH229269   1.293   5.868  13.078  0.7254 -0.7111 -0.2992
 2593TIP3    H129270   1.319   5.785  13.119  4.0726  0.3983  0.0994
 2593TIP3    H229271   1.273   5.926  13.151 -2.8958 -1.3634 -0.5845
 2594TIP3   OH229272   5.233   2.927  12.509 -0.4759 -0.0204  0.3465
 2594TIP3    H129273   5.297   2.960  12.446 -0.3271  0.0508  0.5345
 2594TIP3    H229274   5.173   2.874  12.457 -0.7409  0.5768  0.0348
 2595TIP3   OH229275   3.994   2.685  15.970  0.3333  0.7620 -0.2892
 2595TIP3    H129276   4.049   2.647  16.038 -0.3841  1.6245  0.8186
 2595TIP3    H229277   3.912   2.707  16.014 -0.0162  1.7031 -1.3407
 2596TIP3   OH229278   4.228   2.140   1.338 -0.4462 -1.1602 -0.1449
 2596TIP3    H129279   4.198   2.094   1.416  0.8723  0.1113  1.1795
 2596TIP3    H229280   4.314   2.102   1.319  1.2937  1.4261  1.7629
 2597TIP3   OH229281   1.457   1.227   3.525 -0.3212  0.4861  0.0935
 2597TIP3    H129282   1.435   1.143   3.484 -0.0322 -0.0378  0.9801
 2597TIP3    H229283   1.487   1.204   3.613 -0.3777  1.5353  0.4054
 2598TIP3   OH229284   3.197   5.442  16.412 -0.5222 -0.0347  0.4980
 2598TIP3    H129285   3.237   5.386  16.346 -0.6955  1.4086 -0.8788
 2598TIP3    H229286   3.238   5.528  16.398 -0.5645  0.3119  2.2711
 2599TIP3   OH229287   1.608   5.866  13.323  0.3054 -0.2487 -0.4264
 2599TIP3    H129288   1.592   5.877  13.417 -1.2179 -1.3422 -0.5251
 2599TIP3    H229289   1.607   5.955  13.288  0.4862  0.1443  0.5300
 2600TIP3   OH229290   0.412   3.540   0.546 -0.2561  0.7088  0.2717
 2600TIP3    H129291   0.440   3.621   0.589 -1.1316  0.0206  2.2977
 2600TIP3    H229292   0.322   3.526   0.577 -0.6493 -0.2782 -1.2042
 2601TIP3   OH229293   5.307   3.512   4.800  0.1234 -0.1269  0.4723
 2601TIP3    H129294   5.266   3.526   4.715  1.1309  0.3854  0.0551
 2601TIP3    H229295   5.398   3.489   4.779 -0.1030 -1.9980  1.3327
 2602TIP3   OH229296   1.506   2.547  17.295 -0.0342 -0.2944 -0.5142
 2602TIP3    H129297   1.434   2.549  17.358  0.9629 -3.1928  0.8913
 2602TIP3    H229298   1.577   2.592  17.339  0.0010 -0.3738 -0.4888
 2603TIP3   OH229299   4.381   4.605   3.981 -0.3381 -0.3594  0.1626
 2603TIP3    H129300   4.430   4.577   3.903 -0.6006 -1.6120  0.4275
 2603TIP3    H229301   4.445   4.605   4.052 -0.2961 -0.0835  0.1264
 2604TIP3   OH229302   4.305   0.088   0.039 -0.0716  0.2094  0.6246
 2604TIP3    H129303   4.210   0.077   0.044 -0.1272 -0.3405 -1.0075
 2604TIP3    H229304   4.320   0.123  -0.049  1.2384  0.3694  0.8948
 2605TIP3   OH229305   6.583   5.970  17.301 -0.4187 -0.6561 -0.3645
 2605TIP3    H129306   6.560   5.880  17.281 -2.1137 -0.2334 -0.4260
 2605TIP3    H229307   6.510   6.004  17.353  0.1139  0.7190 -0.4475
 2606TIP3   OH229308   4.108   4.695   5.180  0.1378 -0.0642 -0.0152
 2606TIP3    H129309   4.176   4.719   5.243  1.4858 -1.9176 -0.6934
 2606TIP3    H229310   4.056   4.627   5.224 -1.0464  1.0065  0.3176
 2607TIP3   OH229311   1.034   6.765  13.015  0.0522 -0.1732 -0.5077
 2607TIP3    H129312   1.010   6.686  13.064 -1.6774  0.3290 -0.4959
 2607TIP3    H229313   1.129   6.771  13.026 -0.1148 -0.7197  1.8223
 2608TIP3   OH229314   0.917   0.209  13.770  0.2028 -0.0929  0.0154
 2608TIP3    H129315   0.902   0.180  13.860 -1.5790 -0.6547 -0.4148
 2608TIP3    H229316   0.831   0.242  13.741  0.9374  0.8282 -1.2149
 2609TIP3   OH229317   6.413   3.572   3.432 -0.8838  0.1515  0.1873
 2609TIP3    H129318   6.427   3.587   3.338 -1.4213 -2.1794 -0.3224
 2609TIP3    H229319   6.458   3.490   3.450 -1.7453 -0.0158  1.7424
 2610TIP3   OH229320   5.168   6.421   3.092 -0.0451  0.1631 -0.2294
 2610TIP3    H129321   5.148   6.358   3.022  1.1669  0.1186 -0.5595
 2610TIP3    H229322   5.258   6.448   3.074 -0.2066  1.2273  0.5070
 2611TIP3   OH229323   5.976   4.381  13.430 -0.1006  0.3656 -0.2517
 2611TIP3    H129324   6.004   4.421  13.348  2.4639 -1.0644 -0.1520
 2611TIP3    H229325   6.000   4.289  13.422 -3.1822 -0.6661  0.6908
 2612TIP3   OH229326   1.168   2.291  15.964 -0.2260  0.6131  0.4857
 2612TIP3    H129327   1.213   2.366  15.926  0.7640  0.4745  1.3367
 2612TIP3    H229328   1.230   2.219  15.957 -0.4766  0.3057  1.2920
 2613TIP3   OH229329   5.991   3.308  13.398 -0.6480 -0.5194 -0.4164
 2613TIP3    H129330   6.007   3.237  13.335  2.1068 -1.5385  1.2349
 2613TIP3    H229331   6.070   3.361  13.395 -1.5562  0.9437  0.3402
 2614TIP3   OH229332   2.487   5.162   3.158 -0.1692  0.1980  0.6748
 2614TIP3    H129333   2.408   5.151   3.211  0.3310 -0.7414  1.2553
 2614TIP3    H229334   2.458   5.212   3.082 -1.6355 -1.2577  0.2081
 2615TIP3   OH229335   2.796   0.850  15.499 -0.0770 -0.1816  0.6203
 2615TIP3    H129336   2.867   0.880  15.442 -0.4790  2.1617  1.2669
 2615TIP3    H229337   2.741   0.797  15.442 -0.0736  1.4701 -1.0079
 2616TIP3   OH229338   4.616   3.798   2.255  0.5266 -0.3140  0.1502
 2616TIP3    H129339   4.575   3.740   2.318 -1.0701  0.1196 -0.4456
 2616TIP3    H229340   4.679   3.850   2.306 -1.3511  0.6481  1.5904
 2617TIP3   OH229341   6.436   5.173  15.671  0.4036  0.1292 -0.0652
 2617TIP3    H129342   6.453   5.103  15.733 -1.1681 -0.6516 -0.4397
 2617TIP3    H229343   6.440   5.130  15.585 -1.4395  0.2505 -0.2560
 2618TIP3   OH229344   6.162   6.332  16.734 -0.3195 -0.1294  0.2489
 2618TIP3    H129345   6.218   6.345  16.811  0.1867 -0.0856 -0.1238
 2618TIP3    H229346   6.088   6.282  16.768  0.2406 -0.7341  0.6295
 2619TIP3   OH229347   1.324   5.642  17.067 -0.3164  0.0369 -0.0306
 2619TIP3    H129348   1.418   5.638  17.083  0.0793  0.3366 -1.9529
 2619TIP3    H229349   1.315   5.630  16.972 -2.1506  0.8505 -0.0193
 2620TIP3   OH229350   5.477   4.265   2.994 -1.0545 -0.6543 -0.2759
 2620TIP3    H129351   5.468   4.188   3.051 -0.9970  0.3282  1.1334
 2620TIP3    H229352   5.483   4.229   2.906 -1.4707 -2.2404  0.2958
 2621TIP3   OH229353   1.867   5.567   5.266  0.3253  0.4585 -0.1878
 2621TIP3    H129354   1.907   5.525   5.342 -0.2129 -0.7191 -0.5236
 2621TIP3    H229355   1.866   5.660   5.287 -1.5282  0.0384  2.1105
 2622TIP3   OH229356   0.426   5.396  13.561 -0.2795 -0.1113 -0.1136
 2622TIP3    H129357   0.342   5.379  13.605 -0.6654  1.4739 -0.1955
 2622TIP3    H229358   0.414   5.480  13.517  0.7247 -0.7759 -1.7558
 2623TIP3   OH229359   5.694   1.173  12.697  0.3368 -0.3648  0.2855
 2623TIP3    H129360   5.789   1.168  12.690  0.3165 -0.4902  0.0848
 2623TIP3    H229361   5.666   1.083  12.714  0.0202 -0.9604 -2.8225
 2624TIP3   OH229362   5.480   1.570  11.422 -0.3297 -0.0779  0.5984
 2624TIP3    H129363   5.431   1.650  11.441  1.7181  1.6071 -0.7781
 2624TIP3    H229364   5.418   1.514  11.376 -1.3250  1.4647 -0.0034
 2625TIP3   OH229365   5.823   0.904   3.101 -0.4965 -0.1969 -0.1433
 2625TIP3    H129366   5.875   0.973   3.142  0.6113 -0.8545 -0.4115
 2625TIP3    H229367   5.788   0.853   3.174 -0.7149  0.2001  0.0353
 2626TIP3   OH229368   5.372   0.945   5.298 -0.2864 -0.5471  0.3352
 2626TIP3    H129369   5.352   1.001   5.223 -0.0303 -1.1088 -0.1636
 2626TIP3    H229370   5.353   0.999   5.374 -0.5061  0.0510 -0.1361
 2627TIP3   OH229371   6.468   2.718  14.920  0.4945  0.0319  0.1466
 2627TIP3    H129372   6.387   2.757  14.887 -0.3561 -0.8762  1.0809
 2627TIP3    H229373   6.528   2.721  14.845  0.2293  2.3502 -0.0466
 2628TIP3   OH229374   6.348   0.090  15.009 -0.2433 -0.6561  0.1011
 2628TIP3    H129375   6.393   0.104  15.092 -1.7221  0.8065  0.7172
 2628TIP3    H229376   6.320   0.178  14.982  0.9210 -0.9508 -2.4078
 2629TIP3   OH229377   6.154   5.091   4.278  0.8401 -0.1119  0.2594
 2629TIP3    H129378   6.085   5.105   4.214  1.3304 -1.0884 -0.5150
 2629TIP3    H229379   6.134   5.006   4.318  0.8416  0.2325  1.0162
 2630TIP3   OH229380   1.852   6.353  14.828 -0.3896 -0.5310 -0.1623
 2630TIP3    H129381   1.830   6.446  14.825  0.2543 -0.3924 -1.2786
 2630TIP3    H229382   1.794   6.312  14.764 -1.3386 -1.0756  0.9985
 2631TIP3   OH229383   4.780   5.087  15.906  0.0411 -0.3557 -0.4187
 2631TIP3    H129384   4.822   5.064  15.989  0.6089 -0.2320 -0.6663
 2631TIP3    H229385   4.775   5.182  15.908  1.1392 -0.2601 -1.0244
 2632TIP3   OH229386   4.584   0.515  14.337 -0.6332 -0.3725 -0.0581
 2632TIP3    H129387   4.674   0.497  14.308  0.4697  1.5893  1.8486
 2632TIP3    H229388   4.547   0.569  14.267  0.2517  0.1694 -0.1250
 2633TIP3   OH229389   2.053   3.126  13.748  0.1363 -0.0521 -0.9200
 2633TIP3    H129390   2.091   3.039  13.739 -1.7593 -0.7583 -2.8505
 2633TIP3    H229391   2.080   3.155  13.835 -0.0998 -3.0259  0.2585
 2634TIP3   OH229392   5.230   4.301  16.274  0.1549  0.0144  0.0768
 2634TIP3    H129393   5.324   4.321  16.273  0.0474  0.6144 -1.9977
 2634TIP3    H229394   5.226   4.206  16.277  0.8563 -0.0469 -0.6461
 2635TIP3   OH229395   4.351   6.118  12.158 -0.2353 -0.0847 -0.4020
 2635TIP3    H129396   4.306   6.148  12.237 -0.5753  0.5138 -0.8198
 2635TIP3    H229397   4.427   6.176  12.150  0.0225 -0.4039 -0.2949
 2636TIP3   OH229398   2.201   5.536   0.527 -0.6021  0.0441  0.1507
 2636TIP3    H129399   2.128   5.594   0.550  0.4291  2.0646 -1.3429
 2636TIP3    H229400   2.170   5.487   0.451  0.1325  2.3091 -1.7346
 2637TIP3   OH229401   5.896   0.118  13.735  0.9687 -0.3465 -0.1145
 2637TIP3    H129402   5.865   0.125  13.644  0.6444 -1.9378 -0.1694
 2637TIP3    H229403   5.861   0.195  13.778 -3.1129 -1.8633 -0.2279
 2638TIP3   OH229404   5.042   3.915  15.974 -0.1497  0.2613  0.6555
 2638TIP3    H129405   4.969   3.971  15.948  0.2734  0.8023  0.5992
 2638TIP3    H229406   5.003   3.848  16.030 -0.6430  0.7104  0.8610
 2639TIP3   OH229407   3.315   0.473  16.576 -0.0301 -0.0512  0.1975
 2639TIP3    H129408   3.273   0.387  16.569  0.4785 -0.3030  0.2068
 2639TIP3    H229409   3.275   0.526  16.507 -0.5623 -0.2035  0.3886
 2640TIP3   OH229410   0.993   6.628  15.934 -0.2405 -0.0585  0.1153
 2640TIP3    H129411   1.026   6.579  15.859 -0.0890 -0.4159  0.4139
 2640TIP3    H229412   1.008   6.720  15.911  0.8330 -0.2031  0.1860
 2641TIP3   OH229413   5.484   3.774  15.081 -0.0167  0.1053 -0.1130
 2641TIP3    H129414   5.579   3.763  15.073 -0.1871 -1.0672 -0.6346
 2641TIP3    H229415   5.447   3.702  15.031 -1.2210  1.6250 -1.4870
 2642TIP3   OH229416   5.335   1.189  13.727 -0.1529  0.6479 -0.1681
 2642TIP3    H129417   5.347   1.233  13.643  1.1869  1.0028  0.1915
 2642TIP3    H229418   5.382   1.244  13.790 -1.6397  0.7101  0.9289
 2643TIP3   OH229419   5.881   3.576  13.598 -0.0432 -0.4508 -0.5182
 2643TIP3    H129420   5.809   3.636  13.617  1.9124  1.2736  2.0348
 2643TIP3    H229421   5.873   3.508  13.665  0.0728 -0.8950 -0.9456
 2644TIP3   OH229422   0.717   4.842  15.272 -0.1482 -0.4261 -0.2508
 2644TIP3    H129423   0.621   4.840  15.275 -0.1504 -0.8569 -0.6170
 2644TIP3    H229424   0.744   4.791  15.347 -0.1961  0.7110  0.5700
 2645TIP3   OH229425   0.139   4.093   4.354  0.5564  0.1184  0.1466
 2645TIP3    H129426   0.208   4.145   4.313  1.0276  2.3336  3.3306
 2645TIP3    H229427   0.058   4.125   4.315  1.1121 -1.0285 -2.1159
 2646TIP3   OH229428   6.630   1.056  13.289  0.6614 -0.6000 -0.3197
 2646TIP3    H129429   6.584   1.003  13.223 -1.4103  0.5838  0.0788
 2646TIP3    H229430   6.662   1.132  13.240  0.8030 -0.6578 -0.3161
 2647TIP3   OH229431   3.703   5.044  11.253  0.1138 -0.5073 -0.4452
 2647TIP3    H129432   3.790   5.037  11.291  0.0141 -1.0421 -0.3044
 2647TIP3    H229433   3.713   5.103  11.178  0.1118  1.4849  1.0287
 2648TIP3   OH229434   4.825   5.498   2.473 -0.1617 -0.1499 -0.0704
 2648TIP3    H129435   4.765   5.427   2.452 -0.0166 -0.1869 -0.3622
 2648TIP3    H229436   4.907   5.475   2.428 -0.2922  0.4944 -0.6531
 2649TIP3   OH229437   3.849   5.451   5.339  0.3713  0.2282  0.3723
 2649TIP3    H129438   3.761   5.485   5.322  0.1850  1.1372  2.7436
 2649TIP3    H229439   3.879   5.499   5.416  3.1712  0.2954 -0.6207
 2650TIP3   OH229440   6.091   6.148  13.067  0.8107 -0.1273 -0.2245
 2650TIP3    H129441   6.078   6.203  13.144  1.0166 -0.6459  0.1826
 2650TIP3    H229442   6.004   6.113  13.047  0.7438  0.0667 -0.2778
 2651TIP3   OH229443   0.439   2.320  16.222 -0.7939 -0.1349 -0.3157
 2651TIP3    H129444   0.399   2.400  16.256  0.2560 -0.3354  1.5246
 2651TIP3    H229445   0.427   2.256  16.292  2.9038 -0.1254  0.5655
 2652TIP3   OH229446   1.727   6.743  13.923 -0.7041 -0.4978  0.1673
 2652TIP3    H129447   1.806   6.723  13.973 -0.0561  3.9418  1.3309
 2652TIP3    H229448   1.659   6.756  13.989 -0.3521  3.3229  0.0123
 2653TIP3   OH229449   0.648   6.039  13.494 -0.3666 -0.0529  0.3382
 2653TIP3    H129450   0.585   6.016  13.562 -0.6455  1.1516  0.5079
 2653TIP3    H229451   0.704   5.961  13.486 -1.1995 -0.7363  0.9369
 2654TIP3   OH229452   0.557   3.693   3.661  0.1277  0.0039  0.2813
 2654TIP3    H129453   0.607   3.768   3.628 -1.7670  2.4772  2.6277
 2654TIP3    H229454   0.466   3.715   3.642 -0.4545 -2.1535  0.3081
 2655TIP3   OH229455   0.415   2.330  15.954  0.5889 -0.0238 -0.3552
 2655TIP3    H129456   0.498   2.285  15.939  0.8279  0.4184 -0.3765
 2655TIP3    H229457   0.391   2.308  16.044  1.4341  0.9505  0.1350
 2656TIP3   OH229458   0.423   0.167   4.833 -0.1444 -0.0007  1.1176
 2656TIP3    H129459   0.502   0.187   4.884  0.8752  1.7224 -0.9435
 2656TIP3    H229460   0.350   0.195   4.889  0.8522  0.7422  2.0974
 2657TIP3   OH229461   2.940   1.587   5.631  0.4480  0.2105 -0.8570
 2657TIP3    H129462   2.960   1.599   5.724  1.0579 -1.1884 -0.7836
 2657TIP3    H229463   3.025   1.572   5.590  0.0656 -0.3552 -1.4521
 2658TIP3   OH229464   6.377   1.110   5.044 -0.4125  0.1714  0.9979
 2658TIP3    H129465   6.303   1.161   5.077 -0.5718  0.8784 -0.4138
 2658TIP3    H229466   6.442   1.114   5.115 -1.5866 -0.2057  2.1297
 2659TIP3   OH229467   3.342   6.197   3.942 -0.4343  0.1035 -0.2973
 2659TIP3    H129468   3.267   6.194   4.002 -1.1244  0.7373 -1.1002
 2659TIP3    H229469   3.341   6.286   3.908  1.3814  0.4710  0.5195
 2660TIP3   OH229470   5.406   3.633  11.535  0.0500  0.1806 -0.0062
 2660TIP3    H129471   5.312   3.649  11.523 -0.1192 -0.0299  0.9161
 2660TIP3    H229472   5.447   3.719  11.525 -0.3315  0.4093  0.3461
 2661TIP3   OH229473   5.156   0.338  13.391 -0.0452 -0.1623 -0.2272
 2661TIP3    H129474   5.197   0.298  13.468  0.8638  1.4877  0.1867
 2661TIP3    H229475   5.098   0.270  13.357  0.5833 -1.4133  1.0979
 2662TIP3   OH229476   1.040   3.970   2.777 -0.2364 -0.0606  0.6425
 2662TIP3    H129477   1.028   3.959   2.872 -0.9322  0.3584  0.6083
 2662TIP3    H229478   1.130   3.940   2.761 -0.1258 -0.1784  1.4276
 2663TIP3   OH229479   0.175   1.372  15.998  0.3192  0.3529  0.1180
 2663TIP3    H129480   0.201   1.324  16.076 -0.2331 -0.4858 -0.1992
 2663TIP3    H229481   0.215   1.459  16.008 -0.1704  0.4297  1.5725
 2664TIP3   OH229482   2.329   6.193  11.709  0.0748  0.2147  0.1068
 2664TIP3    H129483   2.347   6.235  11.793  0.7905  0.6693 -0.2631
 2664TIP3    H229484   2.233   6.185  11.707  0.0975 -0.5896  1.3249
 2665TIP3   OH229485   6.390   5.720   1.264 -0.1782 -0.4824 -0.1391
 2665TIP3    H129486   6.407   5.782   1.194 -0.3765  1.0797  1.1189
 2665TIP3    H229487   6.476   5.697   1.298 -0.1678  0.9142  0.8494
 2666TIP3   OH229488   0.304   3.301  14.623 -0.2842 -0.2909 -0.5064
 2666TIP3    H129489   0.295   3.363  14.696  1.6749 -0.8303  0.2561
 2666TIP3    H229490   0.251   3.226  14.648  0.4189 -0.4960  0.4187
 2667TIP3   OH229491   2.986   0.562  11.438  0.3837 -0.6378 -0.6232
 2667TIP3    H129492   3.030   0.488  11.397  2.1497 -0.2594  0.4692
 2667TIP3    H229493   3.057   0.622  11.461 -0.7667  0.3099  0.6265
 2668TIP3   OH229494   2.292   1.292  15.204 -0.0879  0.5165  0.1929
 2668TIP3    H129495   2.266   1.383  15.190  0.7588  1.0387  1.7429
 2668TIP3    H229496   2.224   1.255  15.259  0.3035  0.6612  0.7855
 2669TIP3   OH229497   1.138   5.995   5.337 -0.2260  0.2870 -0.3391
 2669TIP3    H129498   1.152   5.901   5.327 -0.7984  0.0301  1.0590
 2669TIP3    H229499   1.172   6.015   5.424 -0.3272  1.3376 -0.5301
 2670TIP3   OH229500   4.350   2.880  14.092 -0.7066 -0.1125 -0.1000
 2670TIP3    H129501   4.426   2.841  14.136 -1.3064 -0.6468  0.4928
 2670TIP3    H229502   4.376   2.885  14.000 -0.2019 -0.9284 -0.0152
 2671TIP3   OH229503   3.059   4.267  14.026  0.4674  0.1310  0.1205
 2671TIP3    H129504   2.995   4.311  14.082 -0.3440 -0.0447 -0.6436
 2671TIP3    H229505   3.117   4.222  14.087  0.9214  1.6901  0.9012
 2672TIP3   OH229506   2.547   0.651  16.769 -0.1842 -0.8647  0.3484
 2672TIP3    H129507   2.506   0.722  16.818 -1.6371 -0.4142 -1.4309
 2672TIP3    H229508   2.641   0.666  16.778 -0.4166  2.2045 -1.2050
 2673TIP3   OH229509   3.090   1.413   4.945  0.2426  0.4882  0.5244
 2673TIP3    H129510   3.130   1.455   5.022 -0.5535  3.6251 -0.6248
 2673TIP3    H229511   3.003   1.387   4.975  0.3521  0.6223  0.9734
 2674TIP3   OH229512   1.158   3.417   5.789  0.2935  0.7329 -0.0484
 2674TIP3    H129513   1.189   3.372   5.868 -1.4852 -0.2143  0.1637
 2674TIP3    H229514   1.192   3.364   5.717 -0.6839 -0.2522  0.1792
 2675TIP3   OH229515   4.546   3.370   0.223 -0.3025  0.1138  0.6440
 2675TIP3    H129516   4.558   3.397   0.314  0.2785 -1.3301  1.0353
 2675TIP3    H229517   4.627   3.397   0.180  0.6376 -1.5926  1.2189
 2676TIP3   OH229518   2.284   6.709  14.996  0.7259  0.2150 -0.0745
 2676TIP3    H129519   2.324   6.785  14.952  2.6549 -0.4288  0.4655
 2676TIP3    H229520   2.291   6.638  14.933 -1.5445  0.5398 -0.7771
 2677TIP3   OH229521   3.736   0.206  16.225 -0.0193 -0.3852 -0.2097
 2677TIP3    H129522   3.694   0.122  16.247 -0.1602  0.1574  1.7373
 2677TIP3    H229523   3.770   0.238  16.308 -1.5893  2.3932 -0.5315
 2678TIP3   OH229524   2.216   4.042  15.643 -0.3350 -0.1338  0.3101
 2678TIP3    H129525   2.128   4.078  15.652 -0.5549 -0.5135 -0.2486
 2678TIP3    H229526   2.263   4.073  15.721 -1.4738 -1.4102  1.5667
 2679TIP3   OH229527   4.518   0.796  11.902 -0.3792  0.1606  0.2654
 2679TIP3    H129528   4.487   0.720  11.853 -0.2100 -0.7507  1.5212
 2679TIP3    H229529   4.549   0.857  11.834  1.3644 -1.7018 -0.7403
 2680TIP3   OH229530   1.318   2.458  15.424 -0.2609  0.4587  0.2092
 2680TIP3    H129531   1.378   2.518  15.381  0.7504 -0.4258  0.3451
 2680TIP3    H229532   1.311   2.383  15.364 -0.7282  0.2716  0.4867
 2681TIP3   OH229533   1.991   1.789  14.079  0.1874  0.1041 -0.0618
 2681TIP3    H129534   2.061   1.734  14.115  0.7107  0.1772 -0.9471
 2681TIP3    H229535   1.914   1.767  14.131  1.2903  1.4696  2.3172
 2682TIP3   OH229536   4.646   2.354   1.278 -0.3202  0.1509 -0.0157
 2682TIP3    H129537   4.628   2.390   1.364 -0.0370 -0.6403  0.3812
 2682TIP3    H229538   4.561   2.355   1.233 -0.4973  0.4111  0.3236
 2683TIP3   OH229539   0.710   3.860  11.828 -0.7602  0.3110 -0.6875
 2683TIP3    H129540   0.800   3.854  11.797 -0.0300  0.6149  1.2686
 2683TIP3    H229541   0.701   3.949  11.861 -1.9643  0.4593 -1.3377
 2684TIP3   OH229542   6.644   1.441   5.439 -0.0577  0.0172  0.0528
 2684TIP3    H129543   6.712   1.421   5.503 -0.2633 -1.9581 -0.2747
 2684TIP3    H229544   6.670   1.526   5.401 -0.0741  1.3776  2.8679
 2685TIP3   OH229545   2.797   3.923  17.249  0.0484  0.2472  0.7947
 2685TIP3    H129546   2.708   3.951  17.226  0.6303  1.0549 -0.6114
 2685TIP3    H229547   2.809   3.839  17.205 -0.1050 -0.0022  1.2198
 2686TIP3   OH229548   3.896   4.006  13.495 -0.2502  0.1229  0.4858
 2686TIP3    H129549   3.975   4.010  13.442  0.1073  0.8139  1.0582
 2686TIP3    H229550   3.844   3.937  13.455 -0.6488  1.5744 -1.6849
 2687TIP3   OH229551   1.865   4.837  11.834 -0.1105 -0.1710  0.0804
 2687TIP3    H129552   1.913   4.905  11.881 -2.3216  0.9666  0.7793
 2687TIP3    H229553   1.790   4.816  11.890 -1.7835 -0.1464 -2.0188
 2688TIP3   OH229554   2.370   4.620  12.446 -0.0358 -0.0790 -0.2913
 2688TIP3    H129555   2.423   4.579  12.378 -0.8032 -1.0893 -0.3014
 2688TIP3    H229556   2.418   4.604  12.528  0.9754  1.2850 -0.5812
 2689TIP3   OH229557   6.429   4.583  15.022 -0.4505 -0.6659 -0.4721
 2689TIP3    H129558   6.507   4.639  15.014  0.5059 -2.0367 -1.0411
 2689TIP3    H229559   6.366   4.620  14.959 -0.6987  1.0957  0.7474
 2690TIP3   OH229560   3.430   0.667  15.725  0.0590  0.4501 -0.1137
 2690TIP3    H129561   3.359   0.697  15.782  0.6028  1.5338  0.0208
 2690TIP3    H229562   3.505   0.655  15.784  0.5576  1.3498 -0.5447
 2691TIP3   OH229563   4.944   6.642   5.807  1.0840  0.0881 -0.1731
 2691TIP3    H129564   4.982   6.668   5.723 -0.6033 -1.3702 -1.4656
 2691TIP3    H229565   4.993   6.563   5.832  2.4155  1.2121  0.8839
 2692TIP3   OH229566   1.521   1.968  13.870  0.2170 -0.4090 -0.0533
 2692TIP3    H129567   1.578   2.037  13.835 -0.7599  1.0217  1.0464
 2692TIP3    H229568   1.579   1.915  13.926  0.3983  1.4916  1.6959
 2693TIP3   OH229569   0.019   3.679  13.081 -0.5332  0.2008  0.2353
 2693TIP3    H129570  -0.052   3.632  13.037  1.3367 -1.6191 -1.0690
 2693TIP3    H229571   0.074   3.610  13.119  0.9872  1.4715  0.4691
 2694TIP3   OH229572   0.477   5.567  11.725  0.0267 -0.4331  0.8230
 2694TIP3    H129573   0.431   5.625  11.786  0.0627  1.2543 -0.6524
 2694TIP3    H229574   0.433   5.581  11.641  0.7073 -1.8119  0.2121
 2695TIP3   OH229575   2.662   5.212   2.795 -0.1577  0.1778  0.5315
 2695TIP3    H129576   2.723   5.154   2.840 -0.2509 -0.2146  0.1599
 2695TIP3    H229577   2.717   5.282   2.760  0.8835 -2.3538 -3.5704
 2696TIP3   OH229578   2.774   5.148  11.563  0.4436  0.1990  0.0952
 2696TIP3    H129579   2.857   5.138  11.610  0.5331 -0.3606 -0.1767
 2696TIP3    H229580   2.727   5.067  11.580 -1.5109  1.7867  3.0486
 2697TIP3   OH229581   6.638   4.199  17.089  0.2178  0.1099  0.6979
 2697TIP3    H129582   6.682   4.284  17.082  1.2700 -0.5835 -2.0040
 2697TIP3    H229583   6.709   4.136  17.095 -0.3897 -0.8398 -1.3260
 2698TIP3   OH229584   4.631   1.268   3.616  0.0376 -0.9609  0.4703
 2698TIP3    H129585   4.672   1.213   3.683 -0.5023 -1.0169  0.7627
 2698TIP3    H229586   4.539   1.242   3.617  0.2175 -1.8213 -1.1337
 2699TIP3   OH229587   2.502   5.932   2.364 -0.6032 -0.4328  0.4282
 2699TIP3    H129588   2.462   5.878   2.432 -2.2598  0.5591  0.2985
 2699TIP3    H229589   2.544   6.004   2.412 -1.4453  0.0613  0.4388
 2700TIP3   OH229590   0.473   0.621   5.374  0.7161  0.0183 -0.1937
 2700TIP3    H129591   0.483   0.705   5.330  1.0826  0.0342 -0.0877
 2700TIP3    H229592   0.399   0.579   5.330 -1.5637  1.6818  1.7798
 2701TIP3   OH229593   4.659   2.138  13.110 -0.3175  0.0409  0.0924
 2701TIP3    H129594   4.620   2.197  13.175  0.6640  0.9225 -0.0935
 2701TIP3    H229595   4.615   2.054  13.125 -1.0919  0.5784  0.9723
 2702TIP3   OH229596   3.682   4.770   2.141  0.4933  0.0247 -0.0907
 2702TIP3    H129597   3.665   4.676   2.135 -0.6862  0.3088 -2.1310
 2702TIP3    H229598   3.675   4.790   2.235  1.9664 -2.0727  0.5525
 2703TIP3   OH229599   0.210   4.811  13.927  0.1736  0.1328  0.0466
 2703TIP3    H129600   0.224   4.751  14.001 -1.1156 -0.4613 -0.1784
 2703TIP3    H229601   0.128   4.855  13.947  0.4927  0.9552 -0.4029
 2704TIP3   OH229602   2.224   4.548  12.839 -0.7131 -0.0828  0.2521
 2704TIP3    H129603   2.212   4.461  12.877  0.5560 -0.2282  0.3651
 2704TIP3    H229604   2.185   4.541  12.752 -1.8152 -0.3588  0.7535
 2705TIP3   OH229605   1.323   6.064   5.528  0.6028 -0.6470  0.1041
 2705TIP3    H129606   1.389   6.039   5.464  1.5563  0.7342  0.4981
 2705TIP3    H229607   1.349   6.152   5.557 -1.8910  0.3215 -0.3543
 2706TIP3   OH229608   1.318   4.270  11.827 -0.3078  0.1022  0.5686
 2706TIP3    H129609   1.407   4.270  11.790 -0.2147  1.2335  0.7647
 2706TIP3    H229610   1.326   4.220  11.908 -0.3278 -1.6535 -0.4552
 2707TIP3   OH229611   4.544   2.184  10.303 -0.2578 -0.0958 -0.0263
 2707TIP3    H129612   4.455   2.192  10.267 -0.5576 -1.5896  0.3276
 2707TIP3    H229613   4.531   2.190  10.398 -0.1822 -1.6984  0.1091
 2708TIP3   OH229614   1.393   6.240   2.977 -0.5977  0.3397  0.0040
 2708TIP3    H129615   1.395   6.183   2.900 -1.5997  2.4012 -1.6654
 2708TIP3    H229616   1.341   6.192   3.042  1.9003 -2.3007  0.2302
 2709TIP3   OH229617   5.232   2.122   1.167 -0.0237 -0.3089 -0.0527
 2709TIP3    H129618   5.254   2.057   1.101 -1.5330 -0.0663 -0.8248
 2709TIP3    H229619   5.241   2.076   1.250  0.9669 -0.8860 -0.4614
 2710TIP3   OH229620   6.231   6.666   4.383  0.1433  0.0210 -0.6399
 2710TIP3    H129621   6.315   6.670   4.430 -0.6952 -1.1166  1.0707
 2710TIP3    H229622   6.186   6.747   4.408  0.2960  0.1235 -0.6925
 2711TIP3   OH229623   6.168   6.483   1.210  0.2140 -0.3650 -0.0446
 2711TIP3    H129624   6.135   6.498   1.122 -2.7146  1.6139  1.2137
 2711TIP3    H229625   6.090   6.463   1.262  0.9722  3.1180  2.9188
 2712TIP3   OH229626   5.252   4.704  12.911 -0.2536  0.4516 -0.2451
 2712TIP3    H129627   5.293   4.750  12.984  0.4385  0.1646 -0.4421
 2712TIP3    H229628   5.158   4.711  12.927 -0.1590  1.8569 -0.2197
 2713TIP3   OH229629   0.617   4.478  11.236 -0.7389 -0.0277  0.4321
 2713TIP3    H129630   0.556   4.549  11.217 -1.8353 -1.0550 -0.0614
 2713TIP3    H229631   0.582   4.437  11.315 -1.2135 -1.1296 -0.3102
 2714TIP3   OH229632   4.181   6.318  16.320  0.6071  0.9270 -0.4018
 2714TIP3    H129633   4.109   6.333  16.259 -0.8656 -2.3908  0.3189
 2714TIP3    H229634   4.154   6.363  16.401  1.4590  3.3004 -1.3408
 2715TIP3   OH229635   3.629   4.559   5.731 -0.2358 -0.3228  0.4830
 2715TIP3    H129636   3.568   4.486   5.723 -0.4987  0.0332 -1.1797
 2715TIP3    H229637   3.712   4.518   5.756 -0.7038 -1.0301  0.8996
 2716TIP3   OH229638   5.498   4.715   0.085  0.0725  0.2771  0.1702
 2716TIP3    H129639   5.506   4.704   0.179 -1.6994 -0.2095  0.2948
 2716TIP3    H229640   5.456   4.634   0.054 -1.0671  1.1810 -0.7552
 2717TIP3   OH229641   3.734   1.530  12.985 -0.6189 -0.3696 -0.0891
 2717TIP3    H129642   3.787   1.505  12.909 -0.6857 -0.4952 -0.0935
 2717TIP3    H229643   3.761   1.620  13.003  0.0116 -0.6183  0.2544
 2718TIP3   OH229644   3.467   3.490  13.225  0.1492  0.1270 -0.5074
 2718TIP3    H129645   3.464   3.474  13.320 -0.3450  3.2038  0.1166
 2718TIP3    H229646   3.398   3.435  13.189 -2.0329  1.4086  1.4452
 2719TIP3   OH229647   5.490   2.684  11.733  0.1246  0.0215  0.1193
 2719TIP3    H129648   5.510   2.593  11.710  1.0846  0.2283  0.0931
 2719TIP3    H229649   5.548   2.703  11.806 -1.3232  0.0781  1.2894
 2720TIP3   OH229650   2.399   6.383   4.244 -0.8118  0.5726  0.0510
 2720TIP3    H129651   2.413   6.361   4.336  1.2234 -1.5427 -0.7014
 2720TIP3    H229652   2.482   6.421   4.215 -1.0798  0.2446 -1.1967
 2721TIP3   OH229653   2.175   0.355  16.443  0.0053  0.6650  0.5596
 2721TIP3    H129654   2.194   0.351  16.350 -0.3009 -0.3428  0.5290
 2721TIP3    H229655   2.250   0.400  16.481  0.3475  0.6698 -0.1108
 2722TIP3   OH229656   0.288   0.986  14.122 -0.2183  0.0233  0.1229
 2722TIP3    H129657   0.292   0.957  14.031  0.5885  1.3339 -0.2950
 2722TIP3    H229658   0.216   0.936  14.161  2.6973 -4.6447  0.2872
 2723TIP3   OH229659   3.873   5.625  16.557 -0.0868 -0.1407 -0.4551
 2723TIP3    H129660   3.854   5.532  16.561  0.0309 -0.1578 -0.2328
 2723TIP3    H229661   3.841   5.653  16.472  1.1770 -0.6831 -1.1438
 2724TIP3   OH229662   4.915   6.321  12.808 -1.1955  0.7285 -0.1603
 2724TIP3    H129663   4.899   6.405  12.852 -0.8836 -0.0084  1.4227
 2724TIP3    H229664   4.879   6.256  12.868 -0.7414 -0.3270 -1.0147
 2725TIP3   OH229665   0.970   3.249   2.405  0.1811  0.1733 -0.0524
 2725TIP3    H129666   0.986   3.342   2.423 -0.0674  0.3843 -0.9040
 2725TIP3    H229667   0.907   3.223   2.472  0.6779  0.4652  0.5475
 2726TIP3   OH229668   3.363   1.083  13.187 -0.3111  0.3476  0.4668
 2726TIP3    H129669   3.288   1.063  13.131  0.3150  0.9029 -0.5981
 2726TIP3    H229670   3.419   1.139  13.133  0.8218  0.0221  1.2738
 2727TIP3   OH229671   2.586   6.543   4.472  0.0107  0.1671 -0.7364
 2727TIP3    H129672   2.570   6.601   4.397  0.4072  0.7210 -0.3997
 2727TIP3    H229673   2.505   6.493   4.482 -0.7001  1.3555 -0.4306
 2728TIP3   OH229674   2.788   5.518   3.002 -0.2900  0.0437 -0.2609
 2728TIP3    H129675   2.807   5.561   3.086  0.4841  0.1135 -0.4690
 2728TIP3    H229676   2.710   5.465   3.020  0.6933 -1.0850  0.9199
 2729TIP3   OH229677   3.678   4.778  14.485 -0.5924  0.1064 -0.4828
 2729TIP3    H129678   3.601   4.820  14.448 -0.6622  0.5235  0.1103
 2729TIP3    H229679   3.653   4.686  14.496  0.3119 -0.6724 -3.8732
 2730TIP3   OH229680   5.753   4.880   5.628  0.0701 -0.1089  0.2081
 2730TIP3    H129681   5.758   4.910   5.538 -0.4837  1.8680  0.7857
 2730TIP3    H229682   5.843   4.854   5.650  0.2505 -0.3795 -0.8162
 2731TIP3   OH229683   2.182   4.838  11.829 -0.5219 -0.2936  0.3253
 2731TIP3    H129684   2.256   4.788  11.793 -0.2868  0.6906 -0.6064
 2731TIP3    H229685   2.115   4.833  11.761 -1.2535 -1.0141  1.0831
 2732TIP3   OH229686   4.953   0.294  13.700 -0.3769  0.1081  0.2902
 2732TIP3    H129687   4.898   0.296  13.779  0.5211  2.3336  0.9386
 2732TIP3    H229688   5.042   0.301  13.734  0.0700  0.3339 -0.9011
 2733TIP3   OH229689   2.335   2.433  12.258 -0.4316 -0.4345 -0.0184
 2733TIP3    H129690   2.281   2.498  12.304  0.0640 -0.4273  0.5586
 2733TIP3    H229691   2.338   2.358  12.318 -0.2936 -0.6655 -0.3115
 2734TIP3   OH229692   0.264   6.179   3.280  0.2006 -0.1110 -0.3280
 2734TIP3    H129693   0.175   6.214   3.275  1.0008  2.1504  0.1493
 2734TIP3    H229694   0.259   6.107   3.343 -0.6354  2.3609  2.6429
 2735TIP3   OH229695   2.444   0.346  11.398  0.3573 -0.3991  0.1338
 2735TIP3    H129696   2.422   0.254  11.381 -1.7110  0.2199 -0.8988
 2735TIP3    H229697   2.484   0.376  11.316  3.1917 -0.8792  1.2095
 2736TIP3   OH229698   2.239   6.780  13.482  0.1832 -0.2050 -0.0496
 2736TIP3    H129699   2.316   6.724  13.489 -0.4042 -0.9364  0.9000
 2736TIP3    H229700   2.197   6.754  13.400  1.9709  1.6029 -1.6488
 2737TIP3   OH229701   6.211   5.913  11.187  0.5245 -0.3671 -0.2378
 2737TIP3    H129702   6.178   5.931  11.099  1.0672  1.0609 -0.1654
 2737TIP3    H229703   6.279   5.847  11.174 -0.0501 -0.8679 -0.7653
 2738TIP3   OH229704   4.081   5.850  16.381 -0.1830 -0.6395  0.4366
 2738TIP3    H129705   4.013   5.783  16.380 -0.0176 -0.8255 -1.7268
 2738TIP3    H229706   4.048   5.919  16.325  0.6878  0.0478  0.7510
 2739TIP3   OH229707   2.405   2.137  12.298 -0.2492 -0.3767 -0.9149
 2739TIP3    H129708   2.363   2.138  12.212 -0.9311  1.1579 -0.5954
 2739TIP3    H229709   2.339   2.102  12.357 -1.3859  2.5047 -0.3231
 2740TIP3   OH229710   3.390   3.291   3.021  0.1246 -0.1041 -0.0430
 2740TIP3    H129711   3.454   3.250   3.080  1.8871 -1.3820 -2.6392
 2740TIP3    H229712   3.431   3.373   2.995  0.2687 -0.4542 -0.9434
 2741TIP3   OH229713   5.836   2.694  16.375  0.3360 -0.4897 -0.1243
 2741TIP3    H129714   5.744   2.676  16.391  0.4278 -0.9366 -0.0851
 2741TIP3    H229715   5.850   2.669  16.284  0.7391 -1.7740  0.2705
 2742TIP3   OH229716   5.096   6.265   6.810  0.0639  0.0890 -0.4552
 2742TIP3    H129717   5.054   6.341   6.770 -1.3385 -0.9470 -1.0479
 2742TIP3    H229718   5.174   6.249   6.757 -1.1194 -0.5303 -2.0893
 2743TIP3   OH229719   3.521   5.137   0.999  0.1001 -0.5093 -0.0090
 2743TIP3    H129720   3.600   5.115   1.048 -0.1420 -1.6446 -0.0817
 2743TIP3    H229721   3.473   5.198   1.055  1.4101  0.8658 -0.3365
 2744TIP3   OH229722   2.246   4.915  17.010 -0.3200  0.8078 -0.3810
 2744TIP3    H129723   2.211   4.998  16.977  1.6170  2.0116  0.4371
 2744TIP3    H229724   2.298   4.880  16.938 -2.2755 -0.4891 -1.2441
 2745TIP3   OH229725   3.503   4.946  15.845 -0.1331  0.0037  0.1677
 2745TIP3    H129726   3.443   4.926  15.773  0.3834  1.0453 -0.5874
 2745TIP3    H229727   3.446   4.966  15.919 -0.6901 -0.5346 -0.1107
 2746TIP3   OH229728   4.981   1.778   3.329 -0.6815  0.3498 -0.2897
 2746TIP3    H129729   4.943   1.731   3.403 -1.4518  0.3877 -0.6524
 2746TIP3    H229730   4.909   1.789   3.267  0.0466 -0.0487 -1.2369
 2747TIP3   OH229731   5.380   5.487  13.966 -0.7265 -0.3626  0.4559
 2747TIP3    H129732   5.380   5.561  13.906  0.1969 -0.1437  0.7159
 2747TIP3    H229733   5.332   5.519  14.043 -1.5388 -0.5063  0.0255
 2748TIP3   OH229734   4.682   1.007  13.262  0.0122  0.4482  0.6730
 2748TIP3    H129735   4.768   1.014  13.302 -0.0105  2.4193  0.5031
 2748TIP3    H229736   4.694   0.947  13.188  0.7466 -0.8437  1.8004
 2749TIP3   OH229737   1.533   0.164   4.136  0.6124  0.8894 -0.0140
 2749TIP3    H129738   1.614   0.189   4.182  0.3631  0.6429  0.5635
 2749TIP3    H229739   1.505   0.245   4.093  0.6672  1.2190  0.5501
 2750TIP3   OH229740   3.782   1.337  17.127 -0.1634  0.7437 -0.4875
 2750TIP3    H129741   3.842   1.323  17.200  1.2318  2.4123 -1.2327
 2750TIP3    H229742   3.759   1.430  17.133 -0.9373  0.6285 -1.4956
 2751TIP3   OH229743   6.071   3.694   2.131  0.0667 -0.1353  0.0014
 2751TIP3    H129744   6.140   3.667   2.191  0.0633 -0.8006 -0.2865
 2751TIP3    H229745   6.058   3.618   2.074  0.1769  0.5391 -0.9411
 2752TIP3   OH229746   5.927   3.870  12.218 -0.4648 -0.8815 -0.2851
 2752TIP3    H129747   5.992   3.849  12.286  0.5326 -0.4958 -1.0963
 2752TIP3    H229748   5.922   3.791  12.165 -0.8138 -0.9808 -0.1055
 2753TIP3   OH229749   5.672   4.612   2.683  0.0099  0.6387 -0.5886
 2753TIP3    H129750   5.651   4.546   2.617  0.9379  0.6436 -0.9192
 2753TIP3    H229751   5.760   4.642   2.659  0.1320  1.0563  0.3235
 2754TIP3   OH229752   1.177   1.197   1.406  0.2234 -0.3275 -0.0029
 2754TIP3    H129753   1.169   1.243   1.322  1.6691 -0.3803 -0.1985
 2754TIP3    H229754   1.113   1.127   1.402 -1.3096  1.0204 -0.1240
 2755TIP3   OH229755   5.290   1.803   4.004  0.3338  0.1690  0.1763
 2755TIP3    H129756   5.372   1.756   4.022 -0.8073 -2.6855 -1.3921
 2755TIP3    H229757   5.222   1.738   4.021 -1.4164  1.4878 -1.4585
 2756TIP3   OH229758   3.118   1.127  16.508  0.0632 -0.4116 -0.7624
 2756TIP3    H129759   3.112   1.120  16.603  1.1988  1.2219 -0.5271
 2756TIP3    H229760   3.068   1.205  16.486  1.6258  0.5211 -1.2095
 2757TIP3   OH229761   3.987   4.951   5.320  0.2882 -0.2275  0.3691
 2757TIP3    H129762   4.058   4.994   5.368 -1.0878 -0.1714  2.4554
 2757TIP3    H229763   3.997   4.858   5.341  0.4310 -0.3689 -0.3009
 2758TIP3   OH229764   1.256   0.624   3.515 -0.2450  0.3583  0.1636
 2758TIP3    H129765   1.186   0.678   3.479 -0.6003 -0.4327 -0.3594
 2758TIP3    H229766   1.257   0.546   3.460 -0.3906 -0.6087  1.4793
 2759TIP3   OH229767   0.559   0.720   0.855  0.4310 -0.0079 -0.2305
 2759TIP3    H129768   0.614   0.706   0.932 -1.0250  1.2362  1.0764
 2759TIP3    H229769   0.583   0.807   0.824  0.4775 -0.2058 -0.7673
 2760TIP3   OH229770   4.745   2.345  10.561 -0.9825  0.2484  0.5188
 2760TIP3    H129771   4.767   2.345  10.468  0.7487  1.4281  0.8818
 2760TIP3    H229772   4.657   2.307  10.564 -1.0822  0.1568 -1.5826
 2761TIP3   OH229773   5.595   3.659   5.587 -0.0115 -0.2662 -0.1388
 2761TIP3    H129774   5.600   3.744   5.543 -1.5275  0.5929  1.2326
 2761TIP3    H229775   5.676   3.614   5.562  0.8814  1.6106 -0.8202
 2762TIP3   OH229776   2.307   0.194  13.608  0.1245  0.5390  0.1702
 2762TIP3    H129777   2.401   0.191  13.628  0.3766  1.8065 -0.7241
 2762TIP3    H229778   2.285   0.104  13.584  0.8890  0.0228  1.3040
 2763TIP3   OH229779   4.855   6.112   2.541 -0.2127 -0.0073 -0.4780
 2763TIP3    H129780   4.838   6.191   2.489 -1.3078  0.6938  0.8739
 2763TIP3    H229781   4.787   6.050   2.515 -0.3093  0.0758 -0.4259
 2764TIP3   OH229782   0.489   2.948  14.501  0.1082  0.0539  0.0007
 2764TIP3    H129783   0.420   2.904  14.451  0.0380 -1.4521  1.3279
 2764TIP3    H229784   0.570   2.906  14.472  0.7506  2.7402 -2.5529
 2765TIP3   OH229785   3.173   3.668   1.665 -0.4369  0.2768  0.2053
 2765TIP3    H129786   3.093   3.720   1.661  0.2800  1.3923 -0.3390
 2765TIP3    H229787   3.241   3.726   1.630  0.1592 -1.4942 -1.8373
 2766TIP3   OH229788   6.547   2.761  16.887  0.6809  0.2475 -0.4073
 2766TIP3    H129789   6.477   2.709  16.926  0.1092  1.1365 -0.2070
 2766TIP3    H229790   6.503   2.810  16.817  1.1056  0.7885 -0.3007
 2767TIP3   OH229791   4.039   6.006  11.741 -0.0269  0.3303  0.6259
 2767TIP3    H129792   4.113   6.001  11.680 -0.3073 -0.6744  0.3492
 2767TIP3    H229793   4.067   5.953  11.816 -0.0349  0.8419  0.9932
 2768TIP3   OH229794   1.418   0.067   3.200  0.4689  0.4490 -0.5197
 2768TIP3    H129795   1.464   0.126   3.259 -0.9417 -0.0227  1.1492
 2768TIP3    H229796   1.345   0.119   3.166  0.8388  0.4921 -1.2411
 2769TIP3   OH229797   5.818   6.488   1.818 -0.1406  0.3193 -0.1767
 2769TIP3    H129798   5.777   6.562   1.773  0.3556  0.2379 -0.7752
 2769TIP3    H229799   5.874   6.529   1.884 -0.1060  0.4734 -0.3005
 2770TIP3   OH229800   3.774   4.299  16.506 -0.5677  0.4667  0.5184
 2770TIP3    H129801   3.817   4.229  16.555  1.5700  1.8769  0.7491
 2770TIP3    H229802   3.736   4.356  16.573 -1.9330 -0.1892  0.3406
 2771TIP3   OH229803   4.080   5.134  16.372 -0.3289  0.2740 -0.4041
 2771TIP3    H129804   4.056   5.042  16.367 -0.2579  0.2308  0.0499
 2771TIP3    H229805   4.025   5.170  16.441 -1.9157  1.0718 -2.0045
 2772TIP3   OH229806   5.239   6.555   3.535 -0.6276 -0.5805  0.1607
 2772TIP3    H129807   5.152   6.562   3.495 -1.1602  1.3462  1.4830
 2772TIP3    H229808   5.299   6.586   3.467 -1.1779 -0.2258 -0.1708
 2773TIP3   OH229809   5.770   2.655   6.057 -0.5345  0.3193 -0.5879
 2773TIP3    H129810   5.806   2.644   6.145  0.3401 -0.2182 -1.0011
 2773TIP3    H229811   5.689   2.703   6.071 -1.3308 -1.2788  0.6909
 2774TIP3   OH229812   6.637   1.166   6.109 -0.7674  0.0928 -0.9013
 2774TIP3    H129813   6.717   1.212   6.137  0.0276 -1.1110 -1.1078
 2774TIP3    H229814   6.570   1.197   6.170  0.1114  0.2789  0.0199
 2775TIP3   OH229815   1.283   2.140   3.746 -0.1410 -0.2053 -0.0020
 2775TIP3    H129816   1.340   2.198   3.796 -0.8938  0.7827 -0.2536
 2775TIP3    H229817   1.234   2.199   3.688 -0.4726 -1.1605 -0.7148
 2776TIP3   OH229818   4.431   5.747  12.750 -0.3535  0.1047  0.5515
 2776TIP3    H129819   4.429   5.803  12.673  0.8474 -0.3406  0.1697
 2776TIP3    H229820   4.385   5.796  12.818  1.2414  1.8480  0.4290
 2777TIP3   OH229821   1.650   4.181   1.604 -0.5143  0.1627  0.2986
 2777TIP3    H129822   1.567   4.161   1.648 -0.7390 -0.9800 -0.5944
 2777TIP3    H229823   1.636   4.153   1.514  0.2980  1.4863 -0.2604
 2778TIP3   OH229824   4.527   0.976  12.654  0.7045  0.0131  0.1979
 2778TIP3    H129825   4.456   0.980  12.718  1.3252 -1.1525  0.9861
 2778TIP3    H229826   4.606   0.969  12.706  1.2267 -0.9256 -0.6889
 2779TIP3   OH229827   2.084   5.687  14.232 -0.5129  0.7163  0.0963
 2779TIP3    H129828   2.002   5.736  14.243 -0.6835  0.8172 -1.4620
 2779TIP3    H229829   2.056   5.603  14.195 -0.0864 -0.0296  1.4211
 2780TIP3   OH229830   1.693   1.724  13.918  0.5075  0.1165  0.3612
 2780TIP3    H129831   1.668   1.646  13.869 -1.2368  1.1283 -0.4307
 2780TIP3    H229832   1.729   1.690  14.000  0.5276 -1.5288 -0.2990
 2781TIP3   OH229833   5.109   4.693   2.835 -0.2021  0.9922 -0.0986
 2781TIP3    H129834   5.087   4.608   2.873  0.3195  1.0237  0.2876
 2781TIP3    H229835   5.099   4.755   2.907  0.8787  1.0399  0.0352
 2782TIP3   OH229836   0.854   0.646  14.956 -0.4050  0.3529  0.4603
 2782TIP3    H129837   0.799   0.703  15.010  0.6358  2.7185 -0.7922
 2782TIP3    H229838   0.941   0.652  14.996  0.0140  0.8112 -0.4715
 2783TIP3   OH229839   5.190   3.482   1.433  0.8799  0.2893  0.0481
 2783TIP3    H129840   5.190   3.422   1.358 -0.3210  1.2170 -0.7344
 2783TIP3    H229841   5.140   3.558   1.403  1.1243  1.0678  1.5063
 2784TIP3   OH229842   3.525   2.494  17.159  0.2452  0.2781  0.0412
 2784TIP3    H129843   3.559   2.453  17.238  2.1516  0.8764 -0.4247
 2784TIP3    H229844   3.551   2.586  17.167  1.0809  0.2117 -1.5833
 2785TIP3   OH229845   4.417   1.139   5.562 -0.4431  0.0674 -0.2975
 2785TIP3    H129846   4.391   1.222   5.521 -0.0895 -0.2393 -1.1692
 2785TIP3    H229847   4.335   1.093   5.579 -0.6177  0.3967 -0.2509
 2786TIP3   OH229848   4.073   6.604   2.529  0.1414 -0.6522 -0.3569
 2786TIP3    H129849   4.068   6.636   2.619 -0.6252  0.3573 -0.7409
 2786TIP3    H229850   4.141   6.537   2.531  0.3427 -0.4320  0.9076
 2787TIP3   OH229851   5.441   5.250   3.328  0.1794 -0.3913  0.1984
 2787TIP3    H129852   5.451   5.335   3.370 -0.3470 -0.4949  0.5455
 2787TIP3    H229853   5.451   5.186   3.399 -0.4030 -0.5772  0.1230
 2788TIP3   OH229854   6.016   3.201  14.434 -0.2531  0.2612 -0.2077
 2788TIP3    H129855   6.086   3.148  14.396 -1.3757 -0.3775 -1.4611
 2788TIP3    H229856   6.044   3.217  14.524  0.7762 -1.2827 -0.2210
 2789TIP3   OH229857   4.266   0.951  11.596 -0.5583  0.2746 -0.7759
 2789TIP3    H129858   4.274   0.954  11.500 -0.8747 -1.8677 -0.9260
 2789TIP3    H229859   4.260   0.857  11.616  0.4672  0.6206  1.4345
 2790TIP3   OH229860   4.030   3.137  11.802 -0.3282  0.3816  0.5310
 2790TIP3    H129861   4.053   3.047  11.777 -0.7879  0.3641  0.1545
 2790TIP3    H229862   4.105   3.168  11.852  0.4666  0.2958 -0.5820
 2791TIP3   OH229863   2.670   2.565   0.590  0.8195  0.1365 -0.3808
 2791TIP3    H129864   2.607   2.539   0.524  2.1910 -0.3731 -1.5518
 2791TIP3    H229865   2.619   2.612   0.656 -0.7981 -0.5572 -1.1041
 2792TIP3   OH229866   1.013   1.128   4.448  0.0505 -0.2831 -0.3015
 2792TIP3    H129867   0.938   1.080   4.484 -0.0548  0.6569  0.7703
 2792TIP3    H229868   1.008   1.215   4.488  0.1426  0.7228 -2.3064
 2793TIP3   OH229869   6.440   5.201  17.154 -0.4002 -0.1028 -0.7995
 2793TIP3    H129870   6.523   5.170  17.191 -0.0032  1.2700 -0.4647
 2793TIP3    H229871   6.467   5.260  17.083 -1.1065 -0.0488 -1.0265
 2794TIP3   OH229872   3.071   2.993   5.044 -0.9650  0.4158  0.4043
 2794TIP3    H129873   3.126   3.064   5.078  0.1118 -0.4452  0.5351
 2794TIP3    H229874   3.079   3.001   4.949 -2.3701  1.5996  0.3524
 2795TIP3   OH229875   6.622   2.895  15.258  0.2761  0.1910 -0.3189
 2795TIP3    H129876   6.628   2.966  15.194 -0.7691  0.3536 -0.2533
 2795TIP3    H229877   6.532   2.864  15.251 -0.0491  0.6144  1.4809
 2796TIP3   OH229878   3.578   1.404  14.793  0.5457 -0.2471 -0.3581
 2796TIP3    H129879   3.546   1.316  14.772  2.6985 -0.9428 -0.9959
 2796TIP3    H229880   3.631   1.392  14.872  0.6923  0.5220 -0.3277
 2797TIP3   OH229881   0.138   6.817  16.105  0.2379 -0.4543  0.2274
 2797TIP3    H129882   0.222   6.821  16.059 -0.1899 -0.5877 -0.5875
 2797TIP3    H229883   0.156   6.855  16.191  0.2629  3.3960 -1.2422
 2798TIP3   OH229884   2.803   1.676   2.875 -0.0199 -0.0995  0.0877
 2798TIP3    H129885   2.814   1.659   2.781  0.5232  0.9041 -0.0442
 2798TIP3    H229886   2.884   1.719   2.901 -0.3224 -0.0375  0.9449
 2799TIP3   OH229887   0.464   0.296  15.201 -0.1075  0.0413  0.0473
 2799TIP3    H129888   0.507   0.346  15.132 -0.4949  1.2588  0.6543
 2799TIP3    H229889   0.533   0.243  15.239  0.5344  0.8266  0.0048
 2800TIP3   OH229890   5.240   0.162  15.208  0.0763  0.6766  0.4229
 2800TIP3    H129891   5.226   0.172  15.114 -0.1900  1.2283  0.5176
 2800TIP3    H229892   5.191   0.083  15.231  0.1806  0.5132  0.0925
 2801TIP3   OH229893   3.368   0.486   3.044  0.1789 -0.0849 -0.4713
 2801TIP3    H129894   3.277   0.464   3.023  0.0896  0.9167 -1.1999
 2801TIP3    H229895   3.361   0.543   3.121 -0.1245  2.6916 -2.3892
 2802TIP3   OH229896   2.785   0.529  13.405  0.1795 -0.1444  0.9394
 2802TIP3    H129897   2.780   0.554  13.312  0.0346 -0.6953  0.7929
 2802TIP3    H229898   2.878   0.517  13.422  0.2146  0.0626  0.8912
 2803TIP3   OH229899   5.258   4.976   4.600  0.0415 -0.5119  0.2500
 2803TIP3    H129900   5.291   5.064   4.614  0.9563 -0.9652  1.0285
 2803TIP3    H229901   5.320   4.937   4.538 -0.1018 -0.7503  0.2551
 2804TIP3   OH229902   3.302   2.901  10.839  0.1284  0.5049 -0.2437
 2804TIP3    H129903   3.379   2.862  10.798  1.0370 -0.5144  2.1909
 2804TIP3    H229904   3.236   2.903  10.770  1.0766 -2.3928 -1.4123
 2805TIP3   OH229905   1.334   0.416  14.162  0.2086  0.0799  0.2115
 2805TIP3    H129906   1.287   0.488  14.204 -1.9212 -0.2871 -1.4046
 2805TIP3    H229907   1.268   0.347  14.151  0.4940  0.2526 -3.9048
 2806TIP3   OH229908   6.537   0.896  14.426 -0.7501 -0.2183 -0.0759
 2806TIP3    H129909   6.550   0.837  14.352 -1.6069 -2.0528  1.1516
 2806TIP3    H229910   6.622   0.939  14.438  0.2127 -1.9038 -0.4811
 2807TIP3   OH229911   4.994   1.871  15.611 -0.2594  0.1047 -0.2939
 2807TIP3    H129912   5.014   1.958  15.579 -1.5431  1.5925  2.5624
 2807TIP3    H229913   4.924   1.839  15.554  0.3077  0.8482 -1.4336
 2808TIP3   OH229914   4.667   6.459   0.741  0.0904 -0.0840  0.0435
 2808TIP3    H129915   4.622   6.521   0.798  0.7970 -0.3750  0.9412
 2808TIP3    H229916   4.742   6.429   0.793  0.0748 -1.2644 -0.5858
 2809TIP3   OH229917   4.108   3.605   5.630 -0.7007 -0.9332 -0.0466
 2809TIP3    H129918   4.107   3.639   5.719 -3.4488  1.3590 -0.7846
 2809TIP3    H229919   4.028   3.553   5.623 -0.5113 -1.1160 -1.1536
 2810TIP3   OH229920   1.897   5.198   0.424 -0.1782  0.4470  0.6879
 2810TIP3    H129921   1.898   5.262   0.495  1.0008  2.8317 -1.3367
 2810TIP3    H229922   1.989   5.179   0.406 -0.4521 -0.1092 -0.2082
 2811TIP3   OH229923   4.610   3.035  16.834  0.5379 -0.0679  0.2294
 2811TIP3    H129924   4.529   2.999  16.796  0.1546  2.6834 -1.8353
 2811TIP3    H229925   4.582   3.071  16.919 -0.3690  0.5517 -0.3085
 2812TIP3   OH229926   5.368   2.551  14.807 -0.6313  0.4560  0.1705
 2812TIP3    H129927   5.290   2.496  14.796 -0.7555  0.5127  0.7696
 2812TIP3    H229928   5.373   2.568  14.900 -0.3469  1.1157  0.0383
 2813TIP3   OH229929   2.374   0.372   2.862 -0.3803 -0.0467 -0.1788
 2813TIP3    H129930   2.329   0.451   2.830 -0.6184  0.1481  0.6261
 2813TIP3    H229931   2.323   0.299   2.827 -1.7271  0.1702  1.2493
 2814TIP3   OH229932   6.699   2.918  13.650  0.0880  0.0624  0.1001
 2814TIP3    H129933   6.643   2.892  13.723  0.9185  0.9100  1.0765
 2814TIP3    H229934   6.775   2.960  13.692  1.6494 -1.3735 -1.1373
 2815TIP3   OH229935   4.555   1.613   0.472  0.6822  0.4715 -0.0536
 2815TIP3    H129936   4.494   1.677   0.434 -0.6903 -0.9707 -0.3689
 2815TIP3    H229937   4.595   1.571   0.397  1.4966  0.8486  0.1574
 2816TIP3   OH229938   3.237   2.585   1.463  0.2557  0.8248 -0.2697
 2816TIP3    H129939   3.186   2.609   1.540  0.3073  2.0313 -0.5923
 2816TIP3    H229940   3.210   2.647   1.396  0.7683  0.2738 -1.0000
 2817TIP3   OH229941   3.654   5.954   1.371 -0.4624  0.2062  0.4843
 2817TIP3    H129942   3.575   5.935   1.320 -0.6994  0.2390  0.8402
 2817TIP3    H229943   3.726   5.923   1.315 -0.6883  0.6895 -0.0921
 2818TIP3   OH229944   2.481   5.635   0.539  0.3657 -0.3933  0.3088
 2818TIP3    H129945   2.388   5.622   0.523  0.5846 -1.0414 -0.4528
 2818TIP3    H229946   2.522   5.553   0.513  0.9681 -0.8191  2.4005
 2819TIP3   OH229947   3.884   0.904   4.940  0.0974  0.4772 -0.5137
 2819TIP3    H129948   3.823   0.875   5.008  3.3961  0.3867  2.7239
 2819TIP3    H229949   3.892   0.829   4.881  0.1601 -1.0907  1.3817
 2820TIP3   OH229950   1.854   0.055   1.285 -0.4474 -0.6360  0.1384
 2820TIP3    H129951   1.863   0.144   1.252 -0.8314 -0.2796  0.9737
 2820TIP3    H229952   1.932   0.042   1.340  0.9774 -1.7444 -1.9693
 2821TIP3   OH229953   5.103   0.812  12.854  0.2624 -0.2134 -0.3116
 2821TIP3    H129954   5.032   0.748  12.851  0.1022 -0.0877  0.5937
 2821TIP3    H229955   5.174   0.771  12.805  0.3685 -1.3454  0.7349
 2822TIP3   OH229956   4.934   3.052   2.034 -0.1240 -0.0625 -0.2480
 2822TIP3    H129957   4.945   3.139   2.072  3.6539  1.1877 -3.4562
 2822TIP3    H229958   4.928   3.067   1.940 -3.4566 -3.1852 -0.7629
 2823TIP3   OH229959   6.708   3.907  16.360 -0.4800  0.6730 -0.5973
 2823TIP3    H129960   6.728   3.982  16.304  0.8177 -0.1391 -1.2647
 2823TIP3    H229961   6.735   3.830  16.309 -0.4545 -0.1680  0.6266
 2824TIP3   OH229962   5.168   0.414  12.652  0.0032  0.2889  0.3299
 2824TIP3    H129963   5.244   0.416  12.709 -0.6527 -0.6116  1.2834
 2824TIP3    H229964   5.190   0.472  12.579  2.3447 -1.2988 -0.3636
 2825TIP3   OH229965   0.654   4.752   3.600 -0.3925 -0.7174  0.5937
 2825TIP3    H129966   0.700   4.830   3.633  0.7360 -0.7080 -0.8598
 2825TIP3    H229967   0.582   4.738   3.662  1.0742 -0.2259  2.5270
 2826TIP3   OH229968   5.513   0.813  17.195 -0.4392  0.0691 -0.0931
 2826TIP3    H129969   5.429   0.775  17.220 -0.5520  0.6700  0.4705
 2826TIP3    H229970   5.575   0.779  17.260 -0.0745 -0.9644 -0.9312
 2827TIP3   OH229971   4.682   0.115   4.624  0.1857  0.1497 -0.0823
 2827TIP3    H129972   4.766   0.097   4.581 -0.7324 -1.4208 -1.3179
 2827TIP3    H229973   4.626   0.149   4.554 -1.0892 -1.6420  0.0119
 2828TIP3   OH229974   0.866   3.147   2.154  0.2108  0.4889 -0.2192
 2828TIP3    H129975   0.792   3.099   2.190  1.3464 -0.7495  0.5532
 2828TIP3    H229976   0.894   3.205   2.225  1.1671 -0.4622  0.2098
 2829TIP3   OH229977   5.673   3.754  13.638  0.1408 -0.0087  0.0948
 2829TIP3    H129978   5.604   3.693  13.664  0.4915 -1.6365 -2.4972
 2829TIP3    H229979   5.627   3.836  13.621 -0.6987 -0.2206  1.2032
 2830TIP3   OH229980   5.677   1.730   2.168 -0.2663  0.0980 -0.3000
 2830TIP3    H129981   5.764   1.720   2.129  0.5479 -0.9364  1.6636
 2830TIP3    H229982   5.617   1.694   2.102  1.0099 -1.2740 -0.7510
 2831TIP3   OH229983   3.579   4.703  12.390  0.0364 -0.1436 -0.2375
 2831TIP3    H129984   3.577   4.778  12.450 -0.5034  0.1889 -0.6565
 2831TIP3    H229985   3.670   4.696  12.364 -0.1257  1.3514 -1.3688
 2832TIP3   OH229986   6.615   4.720  16.195  0.7314  0.0163 -0.0094
 2832TIP3    H129987   6.606   4.648  16.133 -1.2528 -2.2443  2.6001
 2832TIP3    H229988   6.703   4.710  16.231  0.3996 -1.4063  0.5076
 2833TIP3   OH229989   4.240   4.568  11.094 -0.0752  0.6636 -0.7828
 2833TIP3    H129990   4.272   4.481  11.071 -1.0088  0.4155 -1.1763
 2833TIP3    H229991   4.207   4.605  11.012 -1.3439  0.6670 -0.2971
 2834TIP3   OH229992   2.747   2.275  11.687  0.1758  0.1030  0.2070
 2834TIP3    H129993   2.691   2.350  11.707  0.9044  0.4158  1.1015
 2834TIP3    H229994   2.752   2.274  11.591 -0.2395  0.8958  0.1680
 2835TIP3   OH229995   0.728   0.182   5.582  0.4857 -0.8033  0.2828
 2835TIP3    H129996   0.642   0.205   5.616  0.3345 -0.7326 -0.1380
 2835TIP3    H229997   0.711   0.156   5.491  0.9532 -0.4292  0.0849
 2836TIP3   OH229998   0.990   6.269  12.568  0.1468 -0.3826  0.3346
 2836TIP3    H129999   1.028   6.201  12.512 -1.5100  1.5684 -3.6083
 2836TIP3    H230000   1.048   6.345  12.555 -1.4480  0.7339 -0.5810
 2837TIP3   OH230001   2.620   2.409   0.319  0.3411 -0.6597 -0.0189
 2837TIP3    H130002   2.549   2.441   0.375 -0.7549 -1.5894 -0.8274
 2837TIP3    H230003   2.663   2.489   0.287 -0.8063 -0.0510 -0.0941
 2838TIP3   OH230004   4.778   4.591  11.505  0.4250  0.4722  0.4897
 2838TIP3    H130005   4.804   4.502  11.480  0.9292  0.4619  1.0107
 2838TIP3    H230006   4.703   4.578  11.563 -0.6331  0.4881 -0.8333
 2839TIP3   OH230007   2.009   0.357  15.711  0.3767 -0.6837  0.4916
 2839TIP3    H130008   2.043   0.359  15.800  0.9299 -0.2297  0.2730
 2839TIP3    H230009   1.915   0.368  15.721  0.2700 -1.9165  1.1043
 2840TIP3   OH230010   4.951   6.481  11.522 -0.0936 -0.1369  0.1895
 2840TIP3    H130011   4.928   6.472  11.430 -1.8075  0.5174  0.5136
 2840TIP3    H230012   4.896   6.553  11.554  1.0267  0.1766  1.5528
 2841TIP3   OH230013   5.033   0.045  12.179  0.1074 -0.0200  0.0503
 2841TIP3    H130014   4.959  -0.015  12.168  0.7685 -0.5969 -1.3983
 2841TIP3    H230015   5.008   0.123  12.129  0.1981  0.0491  0.1127
 2842TIP3   OH230016   1.870   1.104   0.781  0.2340  0.3619  0.0150
 2842TIP3    H130017   1.915   1.089   0.864  0.1847 -0.1151 -0.0377
 2842TIP3    H230018   1.780   1.124   0.805 -0.7617 -3.3114  0.0386
 2843TIP3   OH230019   3.274   5.781  14.675 -0.5302 -0.1936 -0.3358
 2843TIP3    H130020   3.278   5.721  14.750  0.8380  0.8793  0.5014
 2843TIP3    H230021   3.198   5.836  14.691  0.3294  0.6999  0.8423
 2844TIP3   OH230022   6.406   0.986   6.356  0.0317 -0.6156  0.0140
 2844TIP3    H130023   6.446   1.054   6.410  1.5430 -1.7586  0.3789
 2844TIP3    H230024   6.387   0.915   6.417 -0.3683 -1.0265 -0.5800
 2845TIP3   OH230025   3.299   6.052  13.829 -0.1316 -0.4589  0.3773
 2845TIP3    H130026   3.347   6.126  13.792 -0.3161 -0.8810 -0.7215
 2845TIP3    H230027   3.208   6.069  13.807 -0.4115 -0.1080  1.7046
 2846TIP3   OH230028   3.804   3.291   5.190  0.5076 -0.1662 -0.1772
 2846TIP3    H130029   3.865   3.255   5.125 -0.4636  0.3355 -1.4035
 2846TIP3    H230030   3.853   3.362   5.232  0.9267 -0.0629 -0.8266
 2847TIP3   OH230031   3.774   6.357   5.744  0.0687 -0.4170 -0.5701
 2847TIP3    H130032   3.701   6.413   5.771 -0.5645 -1.3083 -0.3728
 2847TIP3    H230033   3.761   6.276   5.793  0.5113 -1.0313 -1.4430
 2848TIP3   OH230034   6.589   1.664   6.238  0.3596 -0.1271 -0.3634
 2848TIP3    H130035   6.531   1.625   6.303  0.3017 -0.0856 -0.3899
 2848TIP3    H230036   6.672   1.618   6.249 -0.0144 -0.9997 -1.0979
 2849TIP3   OH230037   3.014   0.079   6.162  0.0485 -0.0896  0.0694
 2849TIP3    H130038   2.952   0.017   6.199 -0.9586  0.8338 -0.0233
 2849TIP3    H230039   3.037   0.137   6.235  2.4448 -1.6273  0.6603
 2850TIP3   OH230040   1.929   4.783   4.007  0.3330  0.4070  0.1006
 2850TIP3    H130041   1.843   4.743   4.016 -0.1909  1.3968 -0.2488
 2850TIP3    H230042   1.991   4.710   4.010 -0.4600 -0.2471  1.1287
 2851TIP3   OH230043   2.550   1.067   3.496 -0.4641  0.0427  0.0132
 2851TIP3    H130044   2.476   1.028   3.544 -0.2028 -0.4389  0.0392
 2851TIP3    H230045   2.540   1.035   3.407 -1.1946  1.2905 -0.3779
 2852TIP3   OH230046   2.456   1.449  12.063  0.3773 -0.3365  0.1320
 2852TIP3    H130047   2.499   1.470  11.981  0.6394  2.7122  0.9355
 2852TIP3    H230048   2.374   1.405  12.037  0.9757 -0.4581 -1.6595
 2853TIP3   OH230049   5.482   2.676   3.019 -0.5270 -0.7351  0.1433
 2853TIP3    H130050   5.512   2.747   2.961  0.5882 -0.9566  0.4176
 2853TIP3    H230051   5.562   2.629   3.042 -0.8898 -0.4856  2.0891
 2854TIP3   OH230052   0.318   3.699   6.044 -0.5153  0.2304  0.1484
 2854TIP3    H130053   0.392   3.639   6.045 -0.6864  0.0250  0.6856
 2854TIP3    H230054   0.327   3.750   6.125 -0.9621  0.1911  0.2291
 2855TIP3   OH230055   4.674   4.748   4.726 -0.2533 -0.0020 -0.0905
 2855TIP3    H130056   4.617   4.733   4.801 -0.6454  1.7650  0.0218
 2855TIP3    H230057   4.624   4.806   4.669  0.8859  0.4825 -0.6398
 2856TIP3   OH230058   1.562   4.117  14.133 -0.1168  0.2605  0.0015
 2856TIP3    H130059   1.647   4.141  14.171 -0.4718 -0.5405  1.3738
 2856TIP3    H230060   1.564   4.022  14.128 -1.1000  0.2015  0.4987
 2857TIP3   OH230061   5.996   4.129   5.171  0.5028 -0.6737 -0.1950
 2857TIP3    H130062   5.919   4.160   5.219 -0.2705  0.4060 -2.0618
 2857TIP3    H230063   5.965   4.115   5.082  2.0966 -1.8695 -0.6115
 2858TIP3   OH230064   3.730   2.899   5.005 -0.1538  0.1982 -0.2682
 2858TIP3    H130065   3.794   2.968   4.989  0.1054  0.1996  0.6902
 2858TIP3    H230066   3.648   2.946   5.021  0.1118  0.3317  0.8119
 2859TIP3   OH230067   1.806   5.322  12.612 -0.5050  0.0582 -0.2984
 2859TIP3    H130068   1.714   5.348  12.623 -0.6404 -0.7244  0.5793
 2859TIP3    H230069   1.820   5.322  12.518 -1.1429  1.0755 -0.4068
 2860TIP3   OH230070   4.903   2.436  16.842 -0.4338 -0.0132  0.8137
 2860TIP3    H130071   4.841   2.506  16.820 -1.1665 -1.1630 -1.0238
 2860TIP3    H230072   4.855   2.355  16.824  1.0787 -0.9712  0.8980
 2861TIP3   OH230073   4.942   4.952  13.966  0.5718  0.3375 -0.2927
 2861TIP3    H130074   4.979   4.987  13.885  0.5184  1.8125  0.3045
 2861TIP3    H230075   4.993   4.872  13.982  1.4797  0.7399 -1.0655
 2862TIP3   OH230076   2.821   4.315  17.214  0.4172 -0.4062 -0.0427
 2862TIP3    H130077   2.917   4.315  17.205  0.4606 -1.2956  0.3053
 2862TIP3    H230078   2.806   4.303  17.308 -0.0357 -0.7831 -0.1593
 2863TIP3   OH230079   2.903   4.887  16.783  0.0417  0.2173 -0.5040
 2863TIP3    H130080   2.810   4.872  16.763  0.1122  0.5583 -1.1138
 2863TIP3    H230081   2.912   4.862  16.875 -0.2769 -1.4573 -0.8978
 2864TIP3   OH230082   6.653   3.370   1.924  0.4107  0.2396  0.2468
 2864TIP3    H130083   6.688   3.387   2.011 -0.9644 -3.8613  1.8591
 2864TIP3    H230084   6.561   3.394   1.930  0.5399  0.9787 -0.4944
 2865TIP3   OH230085   0.962   6.237  10.701  0.0604  0.3847 -0.3146
 2865TIP3    H130086   1.058   6.239  10.698  0.3078 -1.2546  2.6216
 2865TIP3    H230087   0.936   6.326  10.675  2.4003  1.0916 -0.4950
 2866TIP3   OH230088   3.876   3.458  15.010 -0.1799 -0.1617 -0.2149
 2866TIP3    H130089   3.795   3.415  15.037  0.2815 -0.3370  0.9590
 2866TIP3    H230090   3.863   3.550  15.030  0.3688 -0.3646  1.2456
 2867TIP3   OH230091   1.533   3.273  12.952  0.2894 -0.2434  0.1354
 2867TIP3    H130092   1.482   3.285  12.872  0.0601 -0.1780  0.2910
 2867TIP3    H230093   1.602   3.339  12.946 -1.3532  1.7046  1.3131
 2868TIP3   OH230094   1.018   2.336   2.711 -0.0742  0.4353 -0.1572
 2868TIP3    H130095   0.985   2.415   2.752 -0.0287  0.1943  0.3484
 2868TIP3    H230096   1.056   2.365   2.628 -1.3616  0.7551 -0.6656
 2869TIP3   OH230097   1.014   5.281  14.442  0.2869 -0.3033 -0.1864
 2869TIP3    H130098   1.069   5.205  14.424  1.2559  0.6428 -1.4198
 2869TIP3    H230099   1.026   5.298  14.535  1.1814 -0.8150 -0.2021
 2870TIP3   OH230100   6.232   0.533  10.802  0.5128  0.3567  0.3465
 2870TIP3    H130101   6.170   0.604  10.816  0.3309  0.5305 -1.1183
 2870TIP3    H230102   6.312   0.561  10.846 -0.0569  0.7001  1.1884
 2871TIP3   OH230103   3.929   4.288  13.133  0.4798 -0.2429 -0.1120
 2871TIP3    H130104   3.986   4.358  13.165  3.0816 -1.4347 -1.6948
 2871TIP3    H230105   3.875   4.330  13.066  1.8963  0.3678 -0.9363
 2872TIP3   OH230106   6.482   6.299   2.453 -0.1430 -0.1676  0.1902
 2872TIP3    H130107   6.503   6.301   2.359 -0.3891  1.4857  0.1336
 2872TIP3    H230108   6.392   6.333   2.458  0.1197  0.4425  1.0609
 2873TIP3   OH230109   0.404   3.382  11.260  0.2414 -0.6934  0.4919
 2873TIP3    H130110   0.378   3.316  11.196 -1.0362 -1.4157  1.6976
 2873TIP3    H230111   0.343   3.455  11.245  0.4446 -0.5447  0.3815
 2874TIP3   OH230112   4.164   1.220   5.791  0.3459 -0.0313 -0.3552
 2874TIP3    H130113   4.091   1.282   5.784  0.2878  0.0745  0.9222
 2874TIP3    H230114   4.181   1.215   5.885  2.5447  0.5876 -0.6691
 2875TIP3   OH230115   1.636   6.160   6.086 -0.2709  0.3463  0.3282
 2875TIP3    H130116   1.665   6.095   6.150  1.6565 -0.0812 -0.8754
 2875TIP3    H230117   1.661   6.123   6.002 -0.1756  2.1165 -0.4762
 2876TIP3   OH230118   0.095   0.627  16.248  0.1737  0.9402  0.0328
 2876TIP3    H130119   0.014   0.657  16.290 -0.2524 -1.0225  0.7310
 2876TIP3    H230120   0.162   0.637  16.316 -0.0273  0.0856  0.3690
 2877TIP3   OH230121   3.315   2.616  16.783 -0.6674  0.4712 -0.5353
 2877TIP3    H130122   3.285   2.705  16.800  1.9711  1.2132  0.7427
 2877TIP3    H230123   3.403   2.627  16.747 -1.2336 -1.5921 -2.9076
 2878TIP3   OH230124   2.818   1.340   4.117  0.2815 -0.1191  0.0529
 2878TIP3    H130125   2.894   1.393   4.142 -0.6660 -0.2659  3.9917
 2878TIP3    H230126   2.837   1.253   4.152 -0.5070 -0.9611 -1.5147
 2879TIP3   OH230127   3.030   1.442  12.109 -0.0894  0.1084 -0.0171
 2879TIP3    H130128   3.125   1.438  12.109 -0.0473 -2.1193 -2.4504
 2879TIP3    H230129   3.003   1.368  12.164 -0.3805 -0.0681 -0.3897
 2880TIP3   OH230130   2.007   5.461   3.849  0.5332  0.3769 -0.1022
 2880TIP3    H130131   1.958   5.537   3.884 -0.0189  1.0900 -2.2626
 2880TIP3    H230132   2.071   5.500   3.790  0.7698 -0.8106 -0.6387
 2881TIP3   OH230133   5.737   0.225  15.281  0.0713  0.3955  0.0334
 2881TIP3    H130134   5.656   0.202  15.325 -0.2169  0.0040 -0.6866
 2881TIP3    H230135   5.745   0.162  15.210  1.2298  0.1456  0.3556
 2882TIP3   OH230136   0.217   2.905  14.131  0.3240  0.3645 -0.0158
 2882TIP3    H130137   0.141   2.847  14.128  0.7581 -0.2774  0.9001
 2882TIP3    H230138   0.186   2.987  14.093 -0.7581  0.0387  0.1279
 2883TIP3   OH230139   6.157   4.871   3.961 -0.3843  0.0399  0.3850
 2883TIP3    H130140   6.125   4.889   3.872  1.8391 -1.6594 -0.8577
 2883TIP3    H230141   6.244   4.911   3.963  0.3505 -1.5249  1.1169
 2884TIP3   OH230142   3.647   5.208   5.406  0.3544  0.1103  0.7140
 2884TIP3    H130143   3.677   5.119   5.423 -0.8690 -0.1117  1.8494
 2884TIP3    H230144   3.726   5.256   5.380  1.2224 -1.0310  1.1881
 2885TIP3   OH230145   1.431   6.473  12.408  0.3222 -0.7386 -0.3501
 2885TIP3    H130146   1.462   6.398  12.457  0.8917 -0.7195 -0.6775
 2885TIP3    H230147   1.493   6.483  12.336  1.0442  0.8649  0.4465
 2886TIP3   OH230148   3.198   4.798   0.557 -0.2864 -0.5554  0.4067
 2886TIP3    H130149   3.113   4.822   0.595 -0.6798 -0.1977 -0.6634
 2886TIP3    H230150   3.233   4.880   0.523  1.3828 -0.3334  2.4923
 2887TIP3   OH230151   0.004   6.212  11.721  0.0703 -0.1305  0.3476
 2887TIP3    H130152   0.098   6.229  11.720  0.7388 -3.3115 -0.4238
 2887TIP3    H230153  -0.014   6.179  11.809 -0.3399  0.3625  0.4580
 2888TIP3   OH230154   2.881   0.307   1.070 -0.3971  0.4380 -0.0972
 2888TIP3    H130155   2.859   0.325   0.979 -2.0495  0.2471  0.2369
 2888TIP3    H230156   2.907   0.215   1.071  0.2625  0.6109 -0.4623
 2889TIP3   OH230157   2.482   6.363  16.737  0.0586 -0.1718 -0.5837
 2889TIP3    H130158   2.494   6.290  16.798  0.1414 -0.0859 -0.4973
 2889TIP3    H230159   2.556   6.421  16.754 -1.7463  1.6412  1.7742
 2890TIP3   OH230160   5.339   3.672   1.578  0.4449 -0.2025  0.0985
 2890TIP3    H130161   5.292   3.602   1.532 -0.8593 -1.0248  2.4699
 2890TIP3    H230162   5.348   3.640   1.668  1.0640  2.1010  0.9463
 2891TIP3   OH230163   5.916   4.997  14.532 -0.4820 -0.0909 -0.3327
 2891TIP3    H130164   5.932   5.088  14.556 -1.5742  0.2765 -0.9082
 2891TIP3    H230165   6.002   4.955  14.537  0.1154  1.0681 -0.4785
 2892TIP3   OH230166   1.534   6.709   5.007  0.9123  0.1302 -0.5774
 2892TIP3    H130167   1.474   6.687   5.079  1.3859 -0.0052 -0.2171
 2892TIP3    H230168   1.508   6.652   4.935 -1.0479  1.8104 -1.3082
 2893TIP3   OH230169   4.737   1.015  15.082  0.4332 -0.3323 -0.1776
 2893TIP3    H130170   4.810   1.003  15.021 -1.2806 -2.8711 -1.9446
 2893TIP3    H230171   4.682   0.937  15.070 -1.4199  0.3425  2.7314
 2894TIP3   OH230172   1.157   1.244  12.478 -0.2912 -0.1733 -0.3679
 2894TIP3    H130173   1.104   1.236  12.399 -0.6730 -0.1554 -0.1173
 2894TIP3    H230174   1.179   1.154  12.502 -1.3285 -0.2877  0.2658
 2895TIP3   OH230175   3.675   1.597  16.947 -0.1239 -0.3770 -0.5845
 2895TIP3    H130176   3.627   1.680  16.953  0.0070 -0.2425 -1.2863
 2895TIP3    H230177   3.729   1.594  17.026  0.8432  0.8316 -1.1595
 2896TIP3   OH230178   4.434   6.607   3.809 -0.1245  0.3745 -0.0269
 2896TIP3    H130179   4.354   6.625   3.859  0.9018  2.3352  1.0447
 2896TIP3    H230180   4.449   6.687   3.759 -0.8274 -1.3215 -3.2497
 2897TIP3   OH230181   2.121   2.265   0.206 -0.2280 -0.2527  0.2119
 2897TIP3    H130182   2.096   2.221   0.287  2.4392 -1.1993  0.6352
 2897TIP3    H230183   2.196   2.214   0.174  0.1165  1.3623 -1.7316
 2898TIP3   OH230184   1.993   2.530  13.541  0.4896  0.6298  0.3230
 2898TIP3    H130185   1.957   2.573  13.619 -1.0816  0.7031 -0.4067
 2898TIP3    H230186   2.076   2.493  13.571  0.4384  1.5626  1.7539
 2899TIP3   OH230187   2.873   6.149  11.608  0.1270  0.3561 -0.2779
 2899TIP3    H130188   2.810   6.129  11.538 -0.0272 -0.5007  0.0883
 2899TIP3    H230189   2.818   6.173  11.682  0.1546 -1.2907  0.3259
 2900TIP3   OH230190   5.888   0.931   6.524  0.8306 -0.2680 -0.0260
 2900TIP3    H130191   5.855   0.960   6.609  1.2353  3.0405 -0.8726
 2900TIP3    H230192   5.811   0.898   6.478  0.1405  0.3001  0.7005
 2901TIP3   OH230193   6.538   1.650   5.655  0.4831  0.7715  0.2951
 2901TIP3    H130194   6.570   1.736   5.682  3.2393 -0.0104 -0.1688
 2901TIP3    H230195   6.525   1.658   5.561 -0.3017  0.9743  0.4199
 2902TIP3   OH230196   1.956   2.151  12.647 -0.2459 -0.5575  0.4974
 2902TIP3    H130197   1.967   2.179  12.556 -0.1316  1.2064  1.0215
 2902TIP3    H230198   2.023   2.084  12.659  1.0267  0.5285 -0.1953
 2903TIP3   OH230199   5.958   4.472   1.925 -0.2834  0.2834 -0.3826
 2903TIP3    H130200   6.044   4.497   1.956 -0.2502  0.7218 -0.8230
 2903TIP3    H230201   5.975   4.409   1.855 -0.3708 -1.2054  0.8909
 2904TIP3   OH230202   6.301   6.198  12.670  0.6173 -0.6211  0.3715
 2904TIP3    H130203   6.280   6.125  12.613 -0.7870  0.4032 -0.4785
 2904TIP3    H230204   6.371   6.245  12.625  0.3452 -0.4956  0.0764
 2905TIP3   OH230205   3.269   5.293   3.018  0.7753  0.0236  0.2543
 2905TIP3    H130206   3.223   5.263   2.940  0.5201 -0.0666  0.4400
 2905TIP3    H230207   3.203   5.291   3.087  1.0318 -0.0044  0.4975
 2906TIP3   OH230208   5.476   6.256  13.254 -0.2883  0.3753  0.2996
 2906TIP3    H130209   5.402   6.283  13.200 -1.1177  1.1775  1.7735
 2906TIP3    H230210   5.479   6.161  13.244 -0.0916  0.5362 -1.5145
 2907TIP3   OH230211   1.233   6.026   1.085  0.1386 -0.1264  0.4844
 2907TIP3    H130212   1.139   6.024   1.101  0.0834 -0.1211  0.1499
 2907TIP3    H230213   1.252   6.119   1.071  0.0453 -0.2336 -0.3643
 2908TIP3   OH230214   0.607   1.747   0.817  0.1680 -0.6892 -0.4100
 2908TIP3    H130215   0.562   1.681   0.870  1.6807 -2.3032 -1.0385
 2908TIP3    H230216   0.685   1.770   0.869  1.2521 -1.7092 -1.5270
 2909TIP3   OH230217   0.751   0.032  10.840  0.0653  0.1411 -0.8143
 2909TIP3    H130218   0.765   0.126  10.826  0.7116  0.0661 -0.6696
 2909TIP3    H230219   0.776   0.017  10.931 -2.6093  0.3232  0.0432
 2910TIP3   OH230220   1.498   2.428   1.487 -0.0550  0.1077 -0.1018
 2910TIP3    H130221   1.440   2.394   1.556 -0.6013  0.3986 -0.4058
 2910TIP3    H230222   1.499   2.360   1.421 -0.9671  0.5562 -0.6069
 2911TIP3   OH230223   1.112   6.075   2.835 -0.6463  0.1956 -0.4072
 2911TIP3    H130224   1.065   6.095   2.755 -0.4527 -0.5879 -0.7198
 2911TIP3    H230225   1.203   6.064   2.807 -0.7182 -0.9679 -0.2312
 2912TIP3   OH230226   3.129   0.654  12.478 -0.8950  0.1798 -0.2608
 2912TIP3    H130227   3.113   0.561  12.459 -1.1537  0.0337  0.6112
 2912TIP3    H230228   3.113   0.698  12.395  1.4640 -0.7733 -1.3154
 2913TIP3   OH230229   2.100   0.807   2.874  0.0176  0.4781 -0.3007
 2913TIP3    H130230   2.182   0.848   2.900 -0.6403  2.8104 -1.5869
 2913TIP3    H230231   2.048   0.804   2.954  0.2441  1.8616 -0.0711
 2914TIP3   OH230232   5.750   1.491  12.653  0.4789 -0.6888  0.4063
 2914TIP3    H130233   5.811   1.513  12.723 -0.2105  1.3163  0.4330
 2914TIP3    H230234   5.805   1.476  12.576  1.0644  2.0833  0.1704
 2915TIP3   OH230235   6.674   5.455  11.745 -0.6282  0.8015 -0.3469
 2915TIP3    H130236   6.726   5.508  11.684  0.3027 -0.2490 -0.5163
 2915TIP3    H230237   6.584   5.469  11.719 -0.6209  3.8672  0.8963
 2916TIP3   OH230238   1.230   4.064  13.348  0.1485  0.3475 -0.4102
 2916TIP3    H130239   1.236   4.157  13.370 -2.3798  1.2482 -3.0307
 2916TIP3    H230240   1.212   4.021  13.432 -0.5921  2.4499  0.5663
 2917TIP3   OH230241   4.435   2.923  17.055 -0.0162  0.2463  0.5859
 2917TIP3    H130242   4.371   2.948  17.122 -1.4576 -3.1141  0.6949
 2917TIP3    H230243   4.515   2.902  17.105 -0.1609  0.5138  0.9298
 2918TIP3   OH230244   5.649   1.334  14.727 -0.1925  0.6840  0.3619
 2918TIP3    H130245   5.716   1.389  14.768  0.7172  0.5127 -0.8393
 2918TIP3    H230246   5.691   1.299  14.649 -0.6628 -1.8931  1.1629
 2919TIP3   OH230247   0.902   4.660   0.763  0.0695  0.0329  0.3624
 2919TIP3    H130248   0.806   4.657   0.758  0.0934 -0.0929  0.0019
 2919TIP3    H230249   0.924   4.752   0.749  0.1331 -0.2755 -1.8908
 2920TIP3   OH230250   2.992   0.784   5.496  0.4095  0.0137 -0.6436
 2920TIP3    H130251   2.974   0.702   5.543 -0.9553  0.7709  0.2192
 2920TIP3    H230252   2.982   0.761   5.404 -1.7444 -0.4574 -0.3584
 2921TIP3   OH230253   6.654   3.903   4.666  0.4922 -0.1388 -0.1859
 2921TIP3    H130254   6.673   3.862   4.581 -1.7028 -0.5878 -0.5163
 2921TIP3    H230255   6.733   3.953   4.686  2.2988 -2.4401 -1.0093
 2922TIP3   OH230256   1.394   1.405  12.029 -0.1309  0.1408 -0.2805
 2922TIP3    H130257   1.419   1.497  12.033  1.2711 -0.2486  1.5833
 2922TIP3    H230258   1.474   1.357  12.052 -0.7689 -1.5606 -1.3985
 2923TIP3   OH230259   1.196   6.749   2.880  0.3155  0.0272  0.1970
 2923TIP3    H130260   1.246   6.812   2.933  0.1566 -0.6350  1.1699
 2923TIP3    H230261   1.168   6.682   2.943 -0.6021 -0.3477 -0.5897
 2924TIP3   OH230262   1.783   5.070  14.797  0.3924 -0.4654 -0.1356
 2924TIP3    H130263   1.700   5.102  14.763  0.7673  0.3618 -0.2844
 2924TIP3    H230264   1.758   5.005  14.863 -0.3504 -1.3838 -1.2660
 2925TIP3   OH230265   6.735   4.565   0.823 -0.0131 -0.0189  0.1167
 2925TIP3    H130266   6.816   4.515   0.815 -0.3252 -0.5455  0.1110
 2925TIP3    H230267   6.666   4.501   0.802 -0.5897 -0.2232  2.2863
 2926TIP3   OH230268   3.547   1.386   6.731  0.0424  0.1736  0.2382
 2926TIP3    H130269   3.480   1.409   6.667 -0.4543 -0.4576  0.5160
 2926TIP3    H230270   3.609   1.459   6.729  0.9224 -0.5414 -2.1626
 2927TIP3   OH230271   1.795   2.458   3.221 -0.1700  0.0708 -0.6528
 2927TIP3    H130272   1.807   2.411   3.303 -0.9535  0.0803 -0.5216
 2927TIP3    H230273   1.731   2.406   3.172 -0.4568  0.5781 -0.8304
 2928TIP3   OH230274   3.202   4.590  16.283 -0.6712  0.0845 -0.0432
 2928TIP3    H130275   3.118   4.588  16.237 -0.1252  0.6528 -1.0952
 2928TIP3    H230276   3.188   4.537  16.361 -1.4116 -1.6265 -1.2680
 2929TIP3   OH230277   5.610   5.744   2.624  0.7758 -0.3597 -0.0781
 2929TIP3    H130278   5.537   5.781   2.673 -0.3062 -2.1426 -0.2695
 2929TIP3    H230279   5.686   5.795   2.652 -0.3752  0.9214  0.8264
 2930TIP3   OH230280   1.887   4.425   4.285  0.3983 -0.7177  1.1076
 2930TIP3    H130281   1.912   4.478   4.361 -0.4739 -0.1486  1.0211
 2930TIP3    H230282   1.819   4.366   4.318  0.6661 -1.0969  0.9794
 2931TIP3   OH230283   4.840   4.923  14.357  0.7870  0.1399  0.2333
 2931TIP3    H130284   4.794   4.909  14.440 -0.8925 -0.2510 -0.7105
 2931TIP3    H230285   4.897   4.997  14.373  0.6348 -0.0540  1.7922
 2932TIP3   OH230286   4.706   0.671   5.430 -0.1098 -0.2717 -0.3914
 2932TIP3    H130287   4.628   0.724   5.444 -0.4283 -1.0010  0.6754
 2932TIP3    H230288   4.695   0.635   5.341 -0.1640  0.9523 -0.8984
 2933TIP3   OH230289   1.205   0.351  11.106  0.5844  0.1614 -0.5280
 2933TIP3    H130290   1.174   0.391  11.025  1.5837 -0.4128 -1.2158
 2933TIP3    H230291   1.293   0.386  11.118  0.4804  0.1838  0.2884
 2934TIP3   OH230292   6.561   4.539  12.022 -0.0570  0.0178 -0.4991
 2934TIP3    H130293   6.519   4.455  12.040  1.9670 -0.7181  1.2172
 2934TIP3    H230294   6.534   4.595  12.095  0.9772 -0.1013 -0.0174
 2935TIP3   OH230295   2.012   6.541  11.219 -0.3265  0.0833  0.4861
 2935TIP3    H130296   2.046   6.517  11.305  1.4311  0.0050 -0.1805
 2935TIP3    H230297   2.045   6.473  11.160  0.1673  1.1824 -0.5568
 2936TIP3   OH230298   0.637   0.530   1.125 -0.1737 -0.4252 -0.5838
 2936TIP3    H130299   0.639   0.434   1.132 -1.9358 -0.4347  0.4557
 2936TIP3    H230300   0.667   0.548   1.036  0.5482 -1.9093 -0.6805
 2937TIP3   OH230301   0.123   5.059   2.095  0.1803 -0.3913  0.0879
 2937TIP3    H130302   0.113   5.063   2.190  0.8565  1.3056  0.1104
 2937TIP3    H230303   0.033   5.059   2.061 -0.1839 -3.4296  0.7180
 2938TIP3   OH230304   2.982   0.618  15.147 -0.0492  0.2914  0.2501
 2938TIP3    H130305   2.951   0.700  15.109 -1.0670  0.4159  1.2873
 2938TIP3    H230306   3.075   0.615  15.124 -0.5433  0.4860 -1.9298
 2939TIP3   OH230307   1.360   4.770  13.626  0.1543  0.1136  0.5706
 2939TIP3    H130308   1.433   4.804  13.574 -0.4228  0.5109  0.0024
 2939TIP3    H230309   1.397   4.697  13.676  0.9858  0.4504  0.4491
 2940TIP3   OH230310   4.023   4.481   0.997 -0.0268  0.5049  0.1185
 2940TIP3    H130311   4.015   4.553   0.934  2.7305 -0.8819 -2.0491
 2940TIP3    H230312   3.940   4.434   0.991 -0.8526  1.9527 -0.4184
 2941TIP3   OH230313   0.567   4.690  14.984 -0.2479 -0.2291 -0.5272
 2941TIP3    H130314   0.647   4.742  14.991 -1.1300  1.2305 -0.7888
 2941TIP3    H230315   0.570   4.652  14.896  1.3864 -2.4057  0.3575
 2942TIP3   OH230316   6.638   0.742   5.836  0.2514 -0.6216  0.1169
 2942TIP3    H130317   6.551   0.767   5.868  0.1748  0.0683 -0.5896
 2942TIP3    H230318   6.696   0.758   5.911 -0.2892 -1.5527  0.7502
 2943TIP3   OH230319   1.887   6.175  16.590  0.1046  0.0111  0.1695
 2943TIP3    H130320   1.887   6.217  16.676 -0.7124  3.5920 -1.3784
 2943TIP3    H230321   1.795   6.153  16.574  0.5817 -3.1404  1.1661
 2944TIP3   OH230322   2.931   4.908   2.066  0.2750  0.3532  0.4019
 2944TIP3    H130323   2.950   4.991   2.110  0.6262 -0.7163  2.4142
 2944TIP3    H230324   2.971   4.842   2.122 -1.8206 -1.3431  0.0415
 2945TIP3   OH230325   6.437   1.160  14.351 -0.6300  0.2911  0.2672
 2945TIP3    H130326   6.466   1.093  14.413 -0.2158  0.5455  0.3538
 2945TIP3    H230327   6.466   1.129  14.266 -0.5259  0.3150  0.2947
 2946TIP3   OH230328   5.583   5.680  14.532  0.7091  0.4521 -0.3262
 2946TIP3    H130329   5.584   5.765  14.577 -0.1098  0.3636 -0.1232
 2946TIP3    H230330   5.496   5.675  14.493  1.0297  0.0390 -0.9915
 2947TIP3   OH230331   4.451   6.465  13.261  0.5587  0.2805  0.6150
 2947TIP3    H130332   4.540   6.489  13.283  1.5401 -0.4316 -2.1715
 2947TIP3    H230333   4.438   6.498  13.172 -1.8916  0.1671  0.8621
 2948TIP3   OH230334   3.335   1.458   1.443 -0.2948  0.6972 -0.6814
 2948TIP3    H130335   3.427   1.453   1.417  0.4870  0.7984  1.8027
 2948TIP3    H230336   3.318   1.552   1.452  0.3097  0.6469  1.6852
 2949TIP3   OH230337   1.203   4.236   2.288  0.2467 -0.2685  0.5324
 2949TIP3    H130338   1.123   4.274   2.251  0.4554 -1.1249 -0.8809
 2949TIP3    H230339   1.174   4.196   2.370 -0.9306 -1.1505 -0.2778
 2950TIP3   OH230340   2.310   5.869  13.249 -0.0465 -0.5512  0.0041
 2950TIP3    H130341   2.288   5.956  13.284 -1.6651 -0.6997 -0.5415
 2950TIP3    H230342   2.306   5.811  13.325 -0.2930 -0.3474  0.1523
 2951TIP3   OH230343   5.343   2.596   6.033 -0.6048  0.1591  0.0479
 2951TIP3    H130344   5.363   2.652   6.107 -2.8755  0.9147  0.1618
 2951TIP3    H230345   5.385   2.639   5.958  0.3083  0.2816  0.6148
 2952TIP3   OH230346   6.612   5.256  14.883 -0.0553 -0.9749  0.0709
 2952TIP3    H130347   6.630   5.213  14.967  1.2900 -1.5459 -0.4811
 2952TIP3    H230348   6.544   5.320  14.904  0.2952 -1.0535  1.6102
 2953TIP3   OH230349   1.137   1.686  13.037  0.4404 -0.7360  0.2356
 2953TIP3    H130350   1.216   1.635  13.021  0.1915 -1.3917  1.0318
 2953TIP3    H230351   1.066   1.622  13.031  0.2428 -0.8933  2.9410
 2954TIP3   OH230352   1.481   2.679  10.840  0.3299 -0.7523  0.1004
 2954TIP3    H130353   1.387   2.666  10.849  0.5937 -1.4172  2.3970
 2954TIP3    H230354   1.512   2.600  10.794 -0.1471 -0.8298 -0.0897
 2955TIP3   OH230355   5.878   4.613   2.355  0.1731 -0.4849  0.1832
 2955TIP3    H130356   5.951   4.671   2.336  0.5158 -0.9667  0.0167
 2955TIP3    H230357   5.814   4.668   2.399  0.7217 -0.1080  0.5140
 2956TIP3   OH230358   5.860   4.094   4.936 -0.0464  0.1536  0.5798
 2956TIP3    H130359   5.839   4.008   4.973 -0.7647  0.9226  2.0805
 2956TIP3    H230360   5.826   4.091   4.847 -0.5031 -0.9526  0.7780
 2957TIP3   OH230361   0.535   4.251   5.974 -0.1764  0.0800 -0.3278
 2957TIP3    H130362   0.535   4.157   5.991  0.4079  0.4133  1.8457
 2957TIP3    H230363   0.491   4.260   5.889 -1.1194 -2.0603 -0.1440
 2958TIP3   OH230364   5.362   5.526   3.838 -0.2458  0.6879  0.2663
 2958TIP3    H130365   5.399   5.601   3.883 -0.4219 -0.5984  2.7266
 2958TIP3    H230366   5.421   5.454   3.859 -0.5231 -0.0679 -1.3565
 2959TIP3   OH230367   5.117   2.625  13.156 -0.2700 -0.0033  0.1110
 2959TIP3    H130368   5.200   2.583  13.177 -0.1265 -0.1870 -0.7914
 2959TIP3    H230369   5.063   2.555  13.119 -0.8240  0.1204  0.6587
 2960TIP3   OH230370   6.128   4.913  16.025 -0.5278 -0.1436  0.1523
 2960TIP3    H130371   6.035   4.933  16.019 -0.5301 -0.4984 -1.1571
 2960TIP3    H230372   6.172   4.996  16.007 -0.5686  0.0584  0.9151
 2961TIP3   OH230373   0.463   6.476   1.241 -0.4788  0.2665 -0.4781
 2961TIP3    H130374   0.469   6.571   1.249 -0.5762  0.3502 -1.2991
 2961TIP3    H230375   0.435   6.461   1.150 -0.9370 -0.5291 -0.2165
 2962TIP3   OH230376   5.228   0.739  13.728 -0.5578  0.1484 -0.0876
 2962TIP3    H130377   5.218   0.697  13.643 -0.9578 -0.5094  0.2779
 2962TIP3    H230378   5.222   0.833  13.710 -1.0834 -0.0051 -0.7215
 2963TIP3   OH230379   3.413   0.288   1.211 -0.4307 -0.1795  0.0132
 2963TIP3    H130380   3.321   0.293   1.185 -1.1143 -0.9822  2.0543
 2963TIP3    H230381   3.445   0.208   1.171 -0.4117  0.4108 -1.2032
 2964TIP3   OH230382   0.171   1.381  16.690 -0.8415  0.2547 -0.4557
 2964TIP3    H130383   0.152   1.453  16.629  0.1551  1.0244  0.1137
 2964TIP3    H230384   0.126   1.405  16.771 -0.8645  0.0199 -0.3997
 2965TIP3   OH230385   1.342   4.118  16.069 -0.3966  0.3294 -0.1134
 2965TIP3    H130386   1.266   4.100  16.013 -1.3987  0.1709  1.2639
 2965TIP3    H230387   1.390   4.186  16.022 -0.4551 -0.7445 -1.8375
 2966TIP3   OH230388   0.320   1.198   2.400  0.0384 -0.1904 -0.4212
 2966TIP3    H130389   0.365   1.114   2.397 -0.8383 -0.7971  1.5511
 2966TIP3    H230390   0.227   1.175   2.402 -0.1932  0.7251  1.4089
 2967TIP3   OH230391   6.528   4.926  13.281 -0.0714 -0.1726 -0.4777
 2967TIP3    H130392   6.496   4.870  13.210  0.2132 -1.2020  0.1946
 2967TIP3    H230393   6.569   5.000  13.236  0.4558 -1.0117 -1.3969
 2968TIP3   OH230394   1.936   5.708   2.894  0.5173  0.5571 -0.2580
 2968TIP3    H130395   2.020   5.752   2.908  1.0928 -0.5235 -0.2275
 2968TIP3    H230396   1.959   5.620   2.865 -0.6048  0.1423  0.0500
 2969TIP3   OH230397   5.360   3.030  14.698  0.7058  0.1004 -0.0479
 2969TIP3    H130398   5.366   2.934  14.695  0.2804 -0.0440  1.9449
 2969TIP3    H230399   5.451   3.059  14.702  0.8191 -0.3054  0.4498
 2970TIP3   OH230400   2.804   4.730  13.723  0.6064 -0.9884  0.2700
 2970TIP3    H130401   2.764   4.805  13.767  1.6749 -0.7025  0.7727
 2970TIP3    H230402   2.816   4.759  13.633 -0.2593 -1.0685  0.1123
 2971TIP3   OH230403   1.039   0.887  13.705 -0.2729 -0.3625 -0.4017
 2971TIP3    H130404   1.042   0.793  13.722 -2.4068 -0.2739  0.7999
 2971TIP3    H230405   1.042   0.928  13.792  0.2982  0.6901 -0.8912
 2972TIP3   OH230406   2.496   2.332  13.878  0.6858  0.0296 -0.4060
 2972TIP3    H130407   2.539   2.270  13.937 -0.4176  0.3659  0.8238
 2972TIP3    H230408   2.408   2.341  13.914  1.3303  3.7616  0.6463
 2973TIP3   OH230409   3.075   3.717   2.538  0.3864  0.1226  0.5710
 2973TIP3    H130410   3.087   3.630   2.578  0.0008  0.3642  1.2272
 2973TIP3    H230411   2.996   3.752   2.580  0.0472  0.4459 -0.3119
 2974TIP3   OH230412   1.793   0.017   2.953  0.3953 -0.3607 -0.0571
 2974TIP3    H130413   1.794  -0.042   2.877  1.3092 -0.2214 -0.1698
 2974TIP3    H230414   1.782  -0.041   3.028 -1.3928 -0.4242 -0.3373
 2975TIP3   OH230415   4.932   4.948   0.297 -0.7757 -0.0338  0.6051
 2975TIP3    H130416   4.892   4.892   0.363 -0.1728 -2.5067 -0.9820
 2975TIP3    H230417   4.867   5.015   0.280 -2.1923 -1.1075  1.5505
 2976TIP3   OH230418   4.946   6.293  15.125 -0.1623 -0.5105  0.3132
 2976TIP3    H130419   5.025   6.241  15.114  1.2190  1.6070 -0.2229
 2976TIP3    H230420   4.926   6.325  15.037  0.3801  1.7213  0.9603
 2977TIP3   OH230421   4.924   4.387   6.006  0.2166 -0.5330  0.1734
 2977TIP3    H130422   4.881   4.305   6.031 -1.2746  0.1635  0.0213
 2977TIP3    H230423   4.921   4.440   6.086  0.7404 -0.4551  0.1407
 2978TIP3   OH230424   3.103   2.932   6.059 -0.5229 -0.3588  0.0856
 2978TIP3    H130425   3.198   2.925   6.060 -0.3554  1.1096 -1.2629
 2978TIP3    H230426   3.072   2.841   6.053  0.6601 -1.0514  2.9551
 2979TIP3   OH230427   1.263   4.533   3.818 -0.0317  0.9593 -0.2556
 2979TIP3    H130428   1.191   4.589   3.847  0.7448  2.3764 -0.9628
 2979TIP3    H230429   1.254   4.528   3.723 -0.3565 -0.5352 -0.1668
 2980TIP3   OH230430   4.578   4.452   0.660 -0.2726 -0.6855  0.1527
 2980TIP3    H130431   4.664   4.433   0.696 -0.1554 -0.9468 -0.2628
 2980TIP3    H230432   4.544   4.367   0.633 -0.3177 -0.4812 -0.4436
 2981TIP3   OH230433   4.727   2.769   1.033  0.7916  0.2485 -0.2281
 2981TIP3    H130434   4.822   2.779   1.027  0.7518  1.1911  0.4846
 2981TIP3    H230435   4.695   2.857   1.054 -0.0825 -0.3809  1.2428
 2982TIP3   OH230436   6.686   0.303  16.467 -0.3624 -0.5883  0.0009
 2982TIP3    H130437   6.650   0.386  16.436 -0.0612 -1.0406 -1.6468
 2982TIP3    H230438   6.672   0.242  16.395 -0.2558 -1.8885  1.0448
 2983TIP3   OH230439   4.366   6.737  14.148 -0.1282 -0.5347  0.3240
 2983TIP3    H130440   4.413   6.811  14.186  0.0800  0.3245 -1.4761
 2983TIP3    H230441   4.433   6.669  14.137  0.2929 -0.0157 -0.4344
 2984TIP3   OH230442   0.812   6.550  12.004 -0.5499 -0.3940 -0.4220
 2984TIP3    H130443   0.734   6.508  12.041 -1.2627  0.6891 -0.6702
 2984TIP3    H230444   0.878   6.543  12.074 -0.7540 -1.5783 -0.3186
 2985TIP3   OH230445   0.257   3.485  15.089 -0.1101  1.0566  0.0774
 2985TIP3    H130446   0.346   3.453  15.101 -0.2104  0.9334  0.5062
 2985TIP3    H230447   0.251   3.562  15.146 -0.0565  1.4871 -0.4928
 2986TIP3   OH230448   4.210   1.568   3.991 -0.1349  0.3003 -0.0149
 2986TIP3    H130449   4.289   1.622   3.983  0.2093 -0.0825  0.6756
 2986TIP3    H230450   4.140   1.630   4.012  0.1496  0.5531  0.1989
 2987TIP3   OH230451   4.920   2.583  12.165  0.0027  0.4172 -0.1369
 2987TIP3    H130452   4.847   2.631  12.204 -0.7361  2.1366 -3.3369
 2987TIP3    H230453   4.890   2.562  12.076  2.6530 -0.6261 -0.8656
 2988TIP3   OH230454   0.438   4.719  11.306 -0.1395 -0.3170 -0.5165
 2988TIP3    H130455   0.381   4.689  11.235 -2.2848  0.3158  0.8309
 2988TIP3    H230456   0.407   4.671  11.383 -0.9094  2.1843  0.8553
 2989TIP3   OH230457   4.853   5.140   4.584  0.4275 -0.5107 -0.0329
 2989TIP3    H130458   4.833   5.101   4.499  0.3847 -1.5844  0.4483
 2989TIP3    H230459   4.935   5.187   4.570 -1.2821  2.2449 -1.5143
 2990TIP3   OH230460   6.357   4.487  17.178 -0.6433 -0.4054  0.0688
 2990TIP3    H130461   6.444   4.486  17.138 -0.5088 -0.1454  0.3596
 2990TIP3    H230462   6.308   4.552  17.127 -0.3297  0.2732  0.6298
 2991TIP3   OH230463   5.170   2.032   5.690  0.6389 -0.5923 -0.1186
 2991TIP3    H130464   5.140   2.122   5.704 -0.5869 -0.9691 -0.2118
 2991TIP3    H230465   5.106   1.994   5.630  0.6774 -1.7618  0.5444
 2992TIP3   OH230466   1.248   0.696  16.828  0.2484  0.0484 -0.0383
 2992TIP3    H130467   1.315   0.647  16.876  0.5218  1.3481  0.9722
 2992TIP3    H230468   1.214   0.758  16.893 -0.8657  0.4369 -0.9693
 2993TIP3   OH230469   3.474   5.486   3.022 -0.4928 -0.1539  0.3149
 2993TIP3    H130470   3.407   5.424   2.993 -0.9120  0.5601 -0.2761
 2993TIP3    H230471   3.530   5.434   3.080 -1.7717 -0.6728  1.1381
 2994TIP3   OH230472   6.101   6.547  15.884  0.0682  0.5387  0.4528
 2994TIP3    H130473   6.090   6.464  15.930  0.3427 -0.0840 -0.5815
 2994TIP3    H230474   6.025   6.552  15.826 -0.9252  1.8942  1.7834
 2995TIP3   OH230475   2.586   1.524  15.872 -0.2287  0.4391  0.1122
 2995TIP3    H130476   2.502   1.481  15.855  0.1117  0.1488 -0.9031
 2995TIP3    H230477   2.577   1.610  15.833 -0.0733  0.4302  0.0574
 2996TIP3   OH230478   4.820   0.387   5.193 -0.8453  0.3557  0.0872
 2996TIP3    H130479   4.894   0.446   5.204 -0.5790  0.0733 -0.1658
 2996TIP3    H230480   4.743   0.444   5.188 -0.6414  0.6496  0.3153
 2997TIP3   OH230481   5.227   6.743  15.511 -0.1119 -0.0483  0.6725
 2997TIP3    H130482   5.298   6.781  15.563 -0.6507  0.4799  1.0302
 2997TIP3    H230483   5.211   6.658  15.552  0.8329 -0.5261  0.1056
 2998TIP3   OH230484   1.363   1.263   5.788  0.5573  0.6458 -0.7425
 2998TIP3    H130485   1.311   1.299   5.716 -1.9020 -1.6041 -0.2649
 2998TIP3    H230486   1.344   1.320   5.863  1.1621  1.5454 -1.2568
 2999TIP3   OH230487   0.385   6.323  16.529 -1.1265 -0.1828  0.2285
 2999TIP3    H130488   0.319   6.321  16.459 -1.1142  1.6680  0.1137
 2999TIP3    H230489   0.432   6.405  16.514 -0.4346 -0.2764  1.7966
 3000TIP3   OH230490   4.454   0.671   5.776 -0.2764  0.1879  0.1115
 3000TIP3    H130491   4.500   0.712   5.703  0.5976 -0.0522  0.5082
 3000TIP3    H230492   4.455   0.737   5.845 -1.1118  0.4194 -0.0890
 3001TIP3   OH230493   5.170   4.339   2.491 -0.0607 -0.7439 -0.1842
 3001TIP3    H130494   5.177   4.319   2.584 -0.1954 -0.6969 -0.1644
 3001TIP3    H230495   5.135   4.428   2.488 -1.1166 -1.1559 -0.2927
 3002TIP3   OH230496   3.931   0.602  13.560  0.6375 -0.0178 -0.4391
 3002TIP3    H130497   4.000   0.574  13.500  1.2431  0.2811  0.0996
 3002TIP3    H230498   3.907   0.523  13.609  0.2525 -0.2262 -0.9558
 3003TIP3   OH230499   0.084   2.271   1.425 -0.0323 -0.2557  0.0432
 3003TIP3    H130500   0.080   2.341   1.490 -0.9126 -0.0770 -0.1802
 3003TIP3    H230501   0.090   2.190   1.477  1.9400 -0.0001  0.2895
 3004TIP3   OH230502   5.451   1.550   0.240 -0.5484 -0.5140  0.3802
 3004TIP3    H130503   5.497   1.634   0.246 -1.9313  0.2098  1.1268
 3004TIP3    H230504   5.496   1.503   0.169  0.1030  0.9321 -0.1912
 3005TIP3   OH230505   5.430   2.098   5.676 -0.2963 -0.1550 -0.2122
 3005TIP3    H130506   5.337   2.082   5.694 -0.2313 -2.2396 -1.4384
 3005TIP3    H230507   5.468   2.011   5.668  1.5075  0.6722 -1.0723
 3006TIP3   OH230508   0.419   5.808  17.050 -0.0140  0.3651 -0.0662
 3006TIP3    H130509   0.424   5.752  17.127 -0.1781 -1.9718 -1.6747
 3006TIP3    H230510   0.377   5.754  16.983 -0.1971  2.4300 -1.7148
 3007TIP3   OH230511   2.982   0.461  12.083 -0.1257  0.2198  0.3417
 3007TIP3    H130512   2.891   0.490  12.076  0.0047  0.7320  0.6170
 3007TIP3    H230513   3.024   0.493  12.003 -0.1298  0.2131  0.3373
 3008TIP3   OH230514   1.807   4.017  12.391 -0.1087 -0.6282  0.0819
 3008TIP3    H130515   1.816   3.925  12.414  1.0678 -0.6788 -0.5034
 3008TIP3    H230516   1.781   4.060  12.473 -1.9333 -1.6268  0.0888
 3009TIP3   OH230517   2.888   5.534   4.686 -0.9879  0.2866  0.4113
 3009TIP3    H130518   2.850   5.568   4.605 -0.6088  2.6443  1.1517
 3009TIP3    H230519   2.816   5.538   4.749 -0.8042  0.1802  0.6274
 3010TIP3   OH230520   1.695   5.781   5.424  0.3182  0.3660  0.2864
 3010TIP3    H130521   1.701   5.707   5.484 -1.7521 -1.3193 -1.4538
 3010TIP3    H230522   1.777   5.830   5.438  1.9874 -2.4518  1.1775
 3011TIP3   OH230523   2.220   5.697  11.093  0.2184  0.3587  0.9244
 3011TIP3    H130524   2.296   5.638  11.100 -0.5865 -0.9328 -0.6218
 3011TIP3    H230525   2.243   5.758  11.022 -0.3447 -0.3417  0.1163
 3012TIP3   OH230526   1.413   3.052  14.765  0.1402  0.1953  0.1168
 3012TIP3    H130527   1.461   2.975  14.734  0.5962 -0.3674  2.1162
 3012TIP3    H230528   1.325   3.021  14.782 -0.4505  0.7792 -1.6485
 3013TIP3   OH230529   2.223   0.655  12.618  0.0731  0.2835  0.1719
 3013TIP3    H130530   2.246   0.615  12.702 -0.1706 -2.9643 -1.1578
 3013TIP3    H230531   2.307   0.681  12.580  0.3606 -0.0614  0.5685
 3014TIP3   OH230532   5.489   3.574  13.714 -0.6156  0.0512 -0.3769
 3014TIP3    H130533   5.504   3.507  13.780  0.5279  0.4485 -0.2162
 3014TIP3    H230534   5.478   3.525  13.632 -2.0892 -0.4454  0.0864
 3015TIP3   OH230535   5.562   2.664  16.466  0.3944 -0.4111 -0.0923
 3015TIP3    H130536   5.589   2.635  16.554  2.2662  0.3209 -0.3616
 3015TIP3    H230537   5.528   2.585  16.424  1.4130 -1.2604  0.6050
 3016TIP3   OH230538   6.693   2.232  13.854  0.0235  0.6386 -0.5939
 3016TIP3    H130539   6.654   2.188  13.930  0.0241  0.9390 -0.4164
 3016TIP3    H230540   6.717   2.161  13.795  3.5358  0.0092  1.2671
 3017TIP3   OH230541   1.976   1.833   0.279  0.5123 -0.7761 -0.1225
 3017TIP3    H130542   2.061   1.876   0.289  0.6448 -1.3381  1.5338
 3017TIP3    H230543   1.997   1.747   0.242  0.6319 -0.7745 -0.0590
 3018TIP3   OH230544   2.055   4.953   2.365  0.0156 -0.1843  0.1356
 3018TIP3    H130545   2.131   4.984   2.414  0.2046  0.4788 -0.5666
 3018TIP3    H230546   2.091   4.921   2.282 -0.3576 -0.8323  0.2129
 3019TIP3   OH230547   5.346   0.564  16.794 -0.3673  0.0957 -0.1136
 3019TIP3    H130548   5.363   0.482  16.839 -0.3773  0.8393  1.3117
 3019TIP3    H230549   5.388   0.554  16.708  1.2683 -0.7013  0.7327
 3020TIP3   OH230550   6.171   2.564   5.869  0.1899  0.1999 -0.0919
 3020TIP3    H130551   6.159   2.470   5.876 -1.5674  0.5282  2.7804
 3020TIP3    H230552   6.135   2.587   5.783  0.0921 -1.6243 -0.5716
 3021TIP3   OH230553   1.419   5.779  11.489 -0.0603  0.4865  0.0067
 3021TIP3    H130554   1.443   5.751  11.401  0.9157  0.2225  0.3435
 3021TIP3    H230555   1.445   5.871  11.493 -0.7731  0.7078 -0.2064
 3022TIP3   OH230556   4.527   5.399   0.333  0.0225  0.5433  0.2491
 3022TIP3    H130557   4.462   5.439   0.276 -0.2441 -0.5696 -0.2639
 3022TIP3    H230558   4.505   5.430   0.421 -1.1316  0.2737  0.0633
 3023TIP3   OH230559   0.380   1.758  15.368 -0.4710 -0.3395 -0.0173
 3023TIP3    H130560   0.458   1.766  15.313 -1.0086 -0.0997 -0.7693
 3023TIP3    H230561   0.326   1.693  15.322 -1.3430  0.5551 -0.2894
 3024TIP3   OH230562   4.199   2.048   2.338  0.2916  0.5179  0.5610
 3024TIP3    H130563   4.203   2.133   2.294 -0.8735  1.2600  1.8237
 3024TIP3    H230564   4.157   1.990   2.275 -0.1458  1.2236  0.1889
 3025TIP3   OH230565   6.772   3.448  13.877 -0.1831  0.3556  0.4724
 3025TIP3    H130566   6.846   3.424  13.821 -0.0647  0.3566  0.6247
 3025TIP3    H230567   6.699   3.396  13.844 -0.6600  1.9006 -1.0305
 3026TIP3   OH230568   3.981   4.003   0.414 -0.3078 -0.3586  0.1704
 3026TIP3    H130569   4.009   4.091   0.386  0.0742 -0.2024  1.0207
 3026TIP3    H230570   3.963   3.957   0.332  1.0664 -0.0073 -0.3711
 3027TIP3   OH230571   5.008   5.307  11.330 -0.1770  0.1254 -0.7393
 3027TIP3    H130572   4.981   5.231  11.278 -0.1670 -0.8939  0.6924
 3027TIP3    H230573   4.975   5.289  11.418  0.8567  1.2249 -0.1011
 3028TIP3   OH230574   6.237   1.074  13.412  0.1087  0.1803  0.5106
 3028TIP3    H130575   6.216   1.159  13.373  0.7267  0.5605  0.9900
 3028TIP3    H230576   6.320   1.089  13.457 -0.6180 -0.2333  2.0253
 3029TIP3   OH230577   4.940   0.616  12.741 -0.4304 -0.2960  0.1277
 3029TIP3    H130578   4.852   0.629  12.705  0.2661  0.3880 -1.4314
 3029TIP3    H230579   4.994   0.597  12.664  0.4817 -2.5216  1.2400
 3030TIP3   OH230580   1.683   1.126  13.096 -0.0215 -0.0325  0.5984
 3030TIP3    H130581   1.670   1.059  13.029  0.6596 -0.9430  1.3464
 3030TIP3    H230582   1.699   1.076  13.176  2.3263  1.0064  0.8429
 3031TIP3   OH230583   3.271   1.669   1.643  0.4879  0.2810  0.2769
 3031TIP3    H130584   3.278   1.757   1.606 -2.4349  0.9507  1.0477
 3031TIP3    H230585   3.302   1.678   1.733 -2.3480  1.3218  1.2657
 3032TIP3   OH230586   0.797   6.778  14.203  0.5380 -0.0319  0.1077
 3032TIP3    H130587   0.810   6.814  14.116 -1.2291  1.5794  0.4487
 3032TIP3    H230588   0.868   6.816  14.256  1.4628 -0.8191 -0.5276
 3033TIP3   OH230589   5.072   6.768  12.696 -0.8628 -0.5559  0.1410
 3033TIP3    H130590   5.058   6.752  12.603  0.9431  0.4657 -0.3491
 3033TIP3    H230591   5.024   6.849  12.714 -1.2193 -0.7578  0.0985
 3034TIP3   OH230592   4.927   1.653   5.192 -0.0959  0.1042  0.0864
 3034TIP3    H130593   4.839   1.617   5.205 -0.2216  0.6325  0.7239
 3034TIP3    H230594   4.916   1.721   5.126  0.1246 -0.9244 -1.0442
 3035TIP3   OH230595   5.531   4.755  13.722 -0.1054 -0.4861  0.1828
 3035TIP3    H130596   5.457   4.758  13.661  0.4035  2.3787 -0.4709
 3035TIP3    H230597   5.605   4.725  13.669  0.5713  2.9588 -1.0995
 3036TIP3   OH230598   4.332   2.894   2.937  0.0860  0.4001 -0.2530
 3036TIP3    H130599   4.374   2.977   2.961  0.2780  0.3467 -0.4018
 3036TIP3    H230600   4.360   2.878   2.847  0.5796 -0.1515 -0.0127
 3037TIP3   OH230601   0.004   1.540  13.270 -0.4428 -0.5028 -0.2458
 3037TIP3    H130602   0.014   1.445  13.273  0.0914 -0.4477 -0.1106
 3037TIP3    H230603   0.007   1.568  13.361  0.4818 -0.2629 -0.3357
 3038TIP3   OH230604   3.411   2.212   1.039  0.2864  0.5649  0.3829
 3038TIP3    H130605   3.431   2.166   1.120  0.1598 -1.3179 -0.6016
 3038TIP3    H230606   3.387   2.143   0.977  0.9700  1.8722 -1.4405
 3039TIP3   OH230607   1.664   4.014   1.329  0.7843  0.1823 -0.1955
 3039TIP3    H130608   1.595   3.951   1.351 -0.5050  2.1589  1.9355
 3039TIP3    H230609   1.638   4.050   1.245 -0.4505  0.4150  0.2675
 3040TIP3   OH230610   5.907   2.177  13.455 -0.2201 -0.1715  0.4021
 3040TIP3    H130611   5.816   2.181  13.485 -0.3580  0.8895 -0.1156
 3040TIP3    H230612   5.958   2.204  13.531 -0.4382  0.5744  0.2921
 3041TIP3   OH230613   6.227   3.637  11.873  0.3085  0.5156 -0.2024
 3041TIP3    H130614   6.312   3.593  11.871  0.5752  0.9838  0.4255
 3041TIP3    H230615   6.186   3.614  11.790  0.8822 -0.0419 -0.3421
 3042TIP3   OH230616   0.986   6.310   2.434  0.2512 -0.2367 -0.2366
 3042TIP3    H130617   1.051   6.285   2.368 -1.2819 -2.6082 -0.9265
 3042TIP3    H230618   0.902   6.301   2.391 -0.7313 -0.2229  1.5664
 3043TIP3   OH230619   5.390   6.031  12.337 -0.5969  0.2727  0.1250
 3043TIP3    H130620   5.319   6.094  12.329 -0.5435  0.3918  0.5395
 3043TIP3    H230621   5.347   5.946  12.326 -0.8551  0.3304  0.6433
 3044TIP3   OH230622   1.417   1.908  13.039 -0.6661  0.2701 -0.1299
 3044TIP3    H130623   1.431   1.999  13.014 -0.2768 -0.0467 -1.0911
 3044TIP3    H230624   1.391   1.864  12.958  1.1709 -0.8891 -0.1530
 3045TIP3   OH230625   0.940   1.907   2.861 -0.2930 -0.0473 -0.5626
 3045TIP3    H130626   0.854   1.928   2.826 -0.6617  0.6044  0.6703
 3045TIP3    H230627   0.927   1.829   2.914 -0.0448 -0.1505 -0.6478
 3046TIP3   OH230628   1.111   6.545  17.082  0.1543 -0.1588  0.3448
 3046TIP3    H130629   1.086   6.637  17.072 -2.2220 -0.6868  0.6909
 3046TIP3    H230630   1.156   6.541  17.166 -0.6400  0.5388  0.8160
 3047TIP3   OH230631   6.164   2.445  15.924  0.3011  0.1894 -0.5503
 3047TIP3    H130632   6.180   2.539  15.919 -1.0096  0.4567 -0.1270
 3047TIP3    H230633   6.251   2.406  15.935  0.9097  1.3058 -1.2012
 3048TIP3   OH230634   5.546   1.313  13.847 -0.1479  0.4527 -0.6070
 3048TIP3    H130635   5.564   1.327  13.754  1.0114 -0.2086 -0.5002
 3048TIP3    H230636   5.606   1.373  13.892  0.6940 -0.5985 -0.2722
 3049TIP3   OH230637   4.882   5.587   4.127 -0.0566 -0.3879 -0.3603
 3049TIP3    H130638   4.933   5.657   4.169 -2.2151  1.8696 -1.2031
 3049TIP3    H230639   4.791   5.616   4.136 -1.1701 -3.6909  0.1478
 3050TIP3   OH230640   0.085   3.161  17.045  0.1468 -0.2112  0.0292
 3050TIP3    H130641   0.078   3.217  16.967 -0.3957  0.1309  0.3129
 3050TIP3    H230642   0.158   3.198  17.094  1.3994 -1.2729 -0.9714
 3051TIP3   OH230643   1.398   2.102   1.370  0.0357  0.1348 -0.1367
 3051TIP3    H130644   1.486   2.113   1.334  0.6232 -1.2923  0.7810
 3051TIP3    H230645   1.411   2.061   1.455 -1.4437  1.5186  0.8046
 3052TIP3   OH230646   3.137   2.386   2.467  0.3148 -0.0659  0.2952
 3052TIP3    H130647   3.137   2.305   2.415 -0.7340  0.5035 -0.6468
 3052TIP3    H230648   3.044   2.407   2.478  0.5699  0.8607  0.7622
 3053TIP3   OH230649   0.957   6.669   0.221 -0.2670 -0.1920 -0.0349
 3053TIP3    H130650   0.870   6.709   0.222  0.1510  0.9181 -1.9501
 3053TIP3    H230651   0.945   6.584   0.263 -2.1692  0.1483  0.1954
 3054TIP3   OH230652   0.091   3.177   2.856 -0.6488 -0.1138  0.0024
 3054TIP3    H130653   0.169   3.225   2.885 -0.5249 -1.8977  3.0134
 3054TIP3    H230654   0.114   3.145   2.769  1.2711  0.8820  0.0809
 3055TIP3   OH230655   0.736   2.420   5.764  0.1093 -0.6431 -0.5754
 3055TIP3    H130656   0.641   2.411   5.767  0.0825 -0.4118 -0.6577
 3055TIP3    H230657   0.757   2.472   5.842  0.2987 -1.7256  0.1093
 3056TIP3   OH230658   3.892   3.179   1.385  0.0248  0.3455  0.3489
 3056TIP3    H130659   3.971   3.131   1.363  0.7858  1.7367 -0.0451
 3056TIP3    H230660   3.821   3.118   1.366  0.9612 -0.7265  0.1698
 3057TIP3   OH230661   5.304   5.656  16.984  0.0139 -0.1169  0.0412
 3057TIP3    H130662   5.218   5.696  17.003  0.6698  1.2716  0.2249
 3057TIP3    H230663   5.345   5.717  16.922  1.0987 -0.4840  0.3802
 3058TIP3   OH230664   5.442   0.415  13.994 -0.0088 -0.0038  0.3773
 3058TIP3    H130665   5.413   0.378  14.078  0.2022  2.2565  1.5195
 3058TIP3    H230666   5.437   0.510  14.006  0.9451  0.4074 -1.8676
 3059TIP3   OH230667   6.662   6.788   1.960  0.5350  0.1368  0.5014
 3059TIP3    H130668   6.726   6.828   2.019 -0.1553 -0.7087  1.8874
 3059TIP3    H230669   6.707   6.711   1.925  0.5577 -0.0013  0.8311
 3060TIP3   OH230670   3.956   5.491   4.354 -0.4265  0.2534 -0.2405
 3060TIP3    H130671   3.922   5.408   4.318  0.1709 -1.0356  1.9742
 3060TIP3    H230672   3.884   5.524   4.407 -0.4817  0.9319 -0.7275
 3061TIP3   OH230673   5.504   4.359  11.197  0.1788 -0.5933  0.4120
 3061TIP3    H130674   5.425   4.353  11.251  0.3155  0.3547  0.7295
 3061TIP3    H230675   5.475   4.406  11.118  0.3831 -0.4325  0.4334
 3062TIP3   OH230676   2.147   4.576   4.117 -0.2829  0.2914  0.2578
 3062TIP3    H130677   2.100   4.494   4.104  0.6251 -0.1130 -0.5835
 3062TIP3    H230678   2.231   4.562   4.074  1.1888  0.4808  2.8801
 3063TIP3   OH230679   1.364   0.437  15.210  0.3039  0.2848 -0.1106
 3063TIP3    H130680   1.350   0.353  15.167  0.1686 -0.0297  0.5297
 3063TIP3    H230681   1.428   0.482  15.155 -0.0044 -0.0257 -0.7325
 3064TIP3   OH230682   3.580   2.767  15.326  0.1542 -0.2418  0.1554
 3064TIP3    H130683   3.661   2.755  15.375  1.7157  0.7271 -2.0261
 3064TIP3    H230684   3.583   2.701  15.256 -1.2640 -0.6057  0.3982
 3065TIP3   OH230685   0.101   3.883   3.656  0.5461  0.2166 -0.4251
 3065TIP3    H130686   0.028   3.831   3.622  0.0626  0.9119 -0.4656
 3065TIP3    H230687   0.066   3.925   3.735  1.6427 -1.3804  0.9959
 3066TIP3   OH230688   2.037   5.300  12.981  0.0186 -0.3130  0.0723
 3066TIP3    H130689   2.053   5.394  12.987 -3.0432  0.2880  0.1370
 3066TIP3    H230690   2.042   5.269  13.071  0.1064 -0.0515  0.1591
 3067TIP3   OH230691   3.519   2.900  10.469  0.6405 -0.3148 -0.3123
 3067TIP3    H130692   3.610   2.898  10.438  0.0642 -1.4485 -2.0959
 3067TIP3    H230693   3.483   2.980  10.432  0.1375 -1.3417 -2.1872
 3068TIP3   OH230694   4.622   6.109   0.585 -0.5821 -0.2813  0.1862
 3068TIP3    H130695   4.582   6.042   0.640  0.8716 -0.9299  0.5118
 3068TIP3    H230696   4.612   6.190   0.635  0.6650 -0.8453  1.4347
 3069TIP3   OH230697   1.706   2.600   3.998 -0.3343  0.0446  0.0099
 3069TIP3    H130698   1.702   2.690   3.966 -2.0752 -0.3761 -1.0788
 3069TIP3    H230699   1.768   2.556   3.940  0.2422  0.4404  0.3179
 3070TIP3   OH230700   3.717   3.773   2.670 -0.0245 -0.4613  0.0898
 3070TIP3    H130701   3.767   3.804   2.745 -0.9081 -0.7577  0.8274
 3070TIP3    H230702   3.694   3.852   2.621 -2.0254  0.1131  1.8009
 3071TIP3   OH230703   0.794   3.647   2.255  0.6304  0.6788 -0.0387
 3071TIP3    H130704   0.795   3.570   2.312 -1.6963  0.2884 -0.4168
 3071TIP3    H230705   0.724   3.702   2.291  0.1453  1.1335 -1.6077
 3072TIP3   OH230706   6.268   6.543   1.675  0.0702  0.9377 -0.2563
 3072TIP3    H130707   6.273   6.458   1.633 -1.4082 -0.0355  1.3881
 3072TIP3    H230708   6.193   6.586   1.633  1.0175  1.6020 -1.3172
 3073TIP3   OH230709   4.182   1.558  12.951 -0.2592 -1.1129  0.0320
 3073TIP3    H130710   4.121   1.592  12.885  0.7469  1.3641  0.2516
 3073TIP3    H230711   4.131   1.495  13.002 -1.9983 -0.6646 -1.0761
 3074TIP3   OH230712   5.854   5.685  17.074 -1.0388 -0.0937  0.1682
 3074TIP3    H130713   5.819   5.731  16.997 -0.6416 -0.0151  0.0322
 3074TIP3    H230714   5.781   5.684  17.136 -0.2868  3.2246  1.3187
 3075TIP3   OH230715   5.383   2.273  14.631 -0.4354 -0.3572 -0.0218
 3075TIP3    H130716   5.315   2.247  14.693 -0.4293 -2.7683 -0.8994
 3075TIP3    H230717   5.337   2.321  14.563 -0.8556  0.1040  0.5762
 3076TIP3   OH230718   0.794   5.926  15.802  0.0029  0.8365 -0.4055
 3076TIP3    H130719   0.811   5.984  15.876  0.1524  2.1238 -1.4215
 3076TIP3    H230720   0.877   5.921  15.754 -0.3931  0.9727 -1.1303
 3077TIP3   OH230721   2.853   6.270   0.401  0.4438  0.1813  0.0356
 3077TIP3    H130722   2.849   6.176   0.414  0.0164  0.3074  0.8887
 3077TIP3    H230723   2.851   6.307   0.490 -2.5573  1.0968 -0.2938
 3078TIP3   OH230724   6.286   3.731   6.035 -0.2415 -0.0493  0.3645
 3078TIP3    H130725   6.277   3.637   6.020 -2.3275  0.4618 -2.3912
 3078TIP3    H230726   6.207   3.755   6.083  0.8292  0.1812  2.0772
 3079TIP3   OH230727   0.241   5.555  14.704  0.2717 -0.1489  0.5306
 3079TIP3    H130728   0.285   5.566  14.620 -2.4308 -1.7360 -1.2734
 3079TIP3    H230729   0.236   5.460  14.716 -0.2571  0.0399  1.9924
 3080TIP3   OH230730   6.657   5.105  13.144 -0.3255 -0.2744 -0.2104
 3080TIP3    H130731   6.675   5.138  13.056  0.2882  0.5258  0.2029
 3080TIP3    H230732   6.736   5.055  13.167 -0.4943 -0.5015 -0.1154
 3081TIP3   OH230733   4.704   0.670   0.076 -0.2844  0.2260  0.4323
 3081TIP3    H130734   4.726   0.747   0.023  0.1814  0.3945  0.8622
 3081TIP3    H230735   4.676   0.604   0.013 -2.5863  1.3563  0.1586
 3082TIP3   OH230736   5.519   2.474   3.826  0.0909  0.0355 -0.3034
 3082TIP3    H130737   5.468   2.398   3.855 -1.2130  1.3042  0.8194
 3082TIP3    H230738   5.466   2.514   3.757 -0.1382  0.9767  0.4009
 3083TIP3   OH230739   6.716   3.759   3.442 -0.2213  0.1904 -0.0599
 3083TIP3    H130740   6.640   3.799   3.485 -1.1435 -0.6619 -0.8272
 3083TIP3    H230741   6.751   3.829   3.386 -1.2084  0.2468 -0.6391
 3084TIP3   OH230742   4.814   1.894  14.039  0.5204 -0.2108 -0.0823
 3084TIP3    H130743   4.841   1.804  14.021  1.1408 -0.3593  1.4003
 3084TIP3    H230744   4.742   1.886  14.101  0.6903  0.3088  0.1931
 3085TIP3   OH230745   3.223   4.380   4.908 -0.3303  0.3819 -0.0762
 3085TIP3    H130746   3.181   4.412   4.988  0.4132  0.4553  0.2921
 3085TIP3    H230747   3.261   4.458   4.869  1.6012 -0.0227  0.8899
 3086TIP3   OH230748   0.987   5.149  13.262 -0.6122  0.0811  0.1894
 3086TIP3    H130749   0.927   5.124  13.192 -1.6980  0.4264  0.9669
 3086TIP3    H230750   0.951   5.231  13.295  0.9675  0.9067 -0.0836
 3087TIP3   OH230751   3.824   2.931   2.170  0.1568  0.5893  0.1557
 3087TIP3    H130752   3.780   2.884   2.099  0.4743  1.3477 -0.5627
 3087TIP3    H230753   3.796   2.886   2.250  2.1572 -2.2058 -0.5926
 3088TIP3   OH230754   5.441   3.278  16.951  0.8493  0.2187 -0.2131
 3088TIP3    H130755   5.404   3.354  16.906  1.9811  0.4637 -0.7644
 3088TIP3    H230756   5.511   3.247  16.894  1.1619 -0.5498  0.5479
 3089TIP3   OH230757   5.908   5.589  11.713  0.9973 -0.2736  0.0669
 3089TIP3    H130758   5.953   5.669  11.685  1.5717 -0.4326  0.5121
 3089TIP3    H230759   5.815   5.611  11.707  1.1281  0.0926 -0.7880
 3090TIP3   OH230760   0.980   3.621  13.393  0.5666 -0.3641 -0.0427
 3090TIP3    H130761   1.027   3.682  13.449  0.1920 -0.2416  0.1476
 3090TIP3    H230762   1.041   3.550  13.376  1.3661  0.5482 -1.1038
 3091TIP3   OH230763   3.730   4.148  16.021 -0.0209  0.2225 -0.0383
 3091TIP3    H130764   3.739   4.168  16.114  0.3143  1.7316 -0.3702
 3091TIP3    H230765   3.752   4.230  15.976  0.8886 -0.7499 -1.4903
 3092TIP3   OH230766   0.468   3.382   5.742  0.5026  0.2155 -0.3918
 3092TIP3    H130767   0.529   3.330   5.793  2.3462  1.1141 -1.5811
 3092TIP3    H230768   0.508   3.387   5.655 -0.9392  1.3982 -1.0296
 3093TIP3   OH230769   2.010   3.536  16.258  0.9169 -0.0797 -0.2811
 3093TIP3    H130770   1.993   3.585  16.338  0.3530 -0.9861  0.1773
 3093TIP3    H230771   2.005   3.601  16.188  2.8341  1.0171  0.5012
 3094TIP3   OH230772   1.349   0.969  16.227  0.0696  0.3132  0.1507
 3094TIP3    H130773   1.322   1.011  16.309  0.0163 -0.1333  0.3669
 3094TIP3    H230774   1.418   1.025  16.193  0.4515  0.2243  0.7648
 3095TIP3   OH230775   4.471   4.410   6.523  0.3414  0.0444  0.3068
 3095TIP3    H130776   4.554   4.373   6.493 -0.7881 -2.2091 -0.2466
 3095TIP3    H230777   4.456   4.370   6.608 -0.0974  0.5662  0.4761
 3096TIP3   OH230778   6.284   2.677  15.546  0.7348 -0.5139  0.2567
 3096TIP3    H130779   6.307   2.649  15.457 -1.7695 -0.9667 -0.3368
 3096TIP3    H230780   6.199   2.637  15.562  0.0537  1.4391  1.9821
 3097TIP3   OH230781   1.750   2.854  15.669 -0.4070  0.5410  0.9518
 3097TIP3    H130782   1.727   2.945  15.652  1.9311  1.0267 -0.0862
 3097TIP3    H230783   1.835   2.843  15.626 -1.3012 -2.5650 -0.2642
 3098TIP3   OH230784   6.257   1.932   4.237 -0.8006  0.3417  0.1540
 3098TIP3    H130785   6.253   1.959   4.329  1.0279 -1.0812  0.7104
 3098TIP3    H230786   6.169   1.897   4.218 -1.3391  1.0748  1.1892
 3099TIP3   OH230787   1.178   0.500   0.646  0.2081 -0.1818 -1.3312
 3099TIP3    H130788   1.093   0.537   0.622 -0.3011 -0.1877  0.3219
 3099TIP3    H230789   1.168   0.477   0.739  1.8807 -0.5711 -1.2273
 3100TIP3   OH230790   5.432   3.333  11.228  0.0024 -0.3102  0.1618
 3100TIP3    H130791   5.381   3.306  11.152 -0.7416 -1.4972  1.0569
 3100TIP3    H230792   5.429   3.258  11.287  0.2858  0.7048  1.5152
 3101TIP3   OH230793   2.527   4.365   4.243  0.3442 -0.5388  0.3267
 3101TIP3    H130794   2.514   4.299   4.176  1.2108 -0.1205 -0.2696
 3101TIP3    H230795   2.479   4.332   4.319  1.5576 -2.3272  0.3684
 3102TIP3   OH230796   6.077   2.259  13.646 -0.3467 -0.1906 -0.7129
 3102TIP3    H130797   6.025   2.332  13.682 -0.4507 -0.6773  0.1495
 3102TIP3    H230798   6.137   2.235  13.717  1.1194  0.3944 -1.7131
 3103TIP3   OH230799   3.417   6.225   2.732 -0.1829  0.7795  0.6626
 3103TIP3    H130800   3.343   6.265   2.778  0.1882  1.2517  0.8640
 3103TIP3    H230801   3.396   6.132   2.728 -1.2742  1.0349 -0.1912
 3104TIP3   OH230802   6.294   5.721   5.766  0.1681 -0.6531  0.0719
 3104TIP3    H130803   6.336   5.669   5.697  1.0046 -0.1269  0.1684
 3104TIP3    H230804   6.201   5.705   5.755  0.1456  0.5825 -2.1473
 3105TIP3   OH230805   4.715   3.742  15.782 -0.6359  0.4781  0.2108
 3105TIP3    H130806   4.637   3.741  15.838  0.2076 -2.0734  1.5176
 3105TIP3    H230807   4.736   3.649  15.769  1.9198  1.0759 -0.4502
 3106TIP3   OH230808   3.599   4.053  12.579  0.5695 -0.5558  0.0450
 3106TIP3    H130809   3.648   4.126  12.618  1.0727 -0.3862 -0.8566
 3106TIP3    H230810   3.666   3.998  12.539  0.1659 -1.3730  0.4784
 3107TIP3   OH230811   5.453   4.864  15.106  0.0929  0.0135 -0.4733
 3107TIP3    H130812   5.357   4.861  15.116  0.1022  1.6979  0.4648
 3107TIP3    H230813   5.484   4.787  15.155 -0.7989 -1.2696 -1.8119
 3108TIP3   OH230814   6.013   6.742  12.449 -0.2709 -0.2604  0.3785
 3108TIP3    H130815   6.101   6.765  12.477 -0.2460  0.7725 -0.4546
 3108TIP3    H230816   6.021   6.654  12.413  0.7696  0.3875 -1.0930
 3109TIP3   OH230817   6.371   0.066   3.647 -0.6065 -0.2289  0.0581
 3109TIP3    H130818   6.455   0.112   3.647 -1.3762  1.2620  1.5506
 3109TIP3    H230819   6.395  -0.026   3.634  1.1786  0.2502 -0.3407
 3110TIP3   OH230820   3.773   5.112   1.125  0.4069  0.1106  0.4484
 3110TIP3    H130821   3.731   5.175   1.184 -0.1434  1.4051 -1.2388
 3110TIP3    H230822   3.777   5.031   1.175 -0.9399  0.8810  1.8937
 3111TIP3   OH230823   3.501   3.203  13.081  0.4407 -0.0629 -0.2580
 3111TIP3    H130824   3.495   3.132  13.018 -0.8950  1.7232 -2.2851
 3111TIP3    H230825   3.411   3.221  13.106  0.9495 -0.9618  2.5677
 3112TIP3   OH230826   4.202   1.788  10.626  0.3491  0.6769  0.0007
 3112TIP3    H130827   4.262   1.713  10.620 -0.6326 -0.2507  1.1726
 3112TIP3    H230828   4.123   1.759  10.580  0.5945  1.7055 -1.1112
 3113TIP3   OH230829   6.196   4.536  13.882  0.1292  0.5687  0.0365
 3113TIP3    H130830   6.172   4.463  13.825 -0.2537  1.0056 -0.3708
 3113TIP3    H230831   6.121   4.595  13.879  0.5735  1.1500  0.0776
 3114TIP3   OH230832   5.158   5.967   3.795  0.5458  0.5769  0.0371
 3114TIP3    H130833   5.130   5.917   3.718  3.7968  0.2841 -1.1421
 3114TIP3    H230834   5.195   5.901   3.854  0.5465  1.0945  0.6261
 3115TIP3   OH230835   3.569   5.896  11.946 -0.0295 -0.5769  0.4203
 3115TIP3    H130836   3.492   5.852  11.982  0.4101 -0.2078  1.8972
 3115TIP3    H230837   3.571   5.981  11.991  1.4934 -0.7721  0.7833
 3116TIP3   OH230838   1.430   3.867   1.764  0.6763 -0.1588  0.1422
 3116TIP3    H130839   1.351   3.863   1.709  0.6944  0.5261  0.0517
 3116TIP3    H230840   1.454   3.960   1.763  1.6736 -0.4148 -0.0936
 3117TIP3   OH230841   2.429   2.381   4.154  0.4783  1.1381  0.3807
 3117TIP3    H130842   2.397   2.466   4.184  0.3934  1.1359  0.2931
 3117TIP3    H230843   2.523   2.396   4.138  0.7487  0.8851  1.6204
 3118TIP3   OH230844   3.197   6.759   2.817 -0.0214 -0.4363  0.0908
 3118TIP3    H130845   3.152   6.677   2.841  1.3860 -1.4532 -0.6051
 3118TIP3    H230846   3.129   6.811   2.774 -0.5938 -1.8883 -0.8487
 3119TIP3   OH230847   1.234   6.656  12.330  0.6349  0.5520 -0.1123
 3119TIP3    H130848   1.308   6.601  12.355 -0.9214 -1.5557  0.1249
 3119TIP3    H230849   1.220   6.637  12.237 -0.4738 -0.2102  0.1862
 3120TIP3   OH230850   2.294   1.773   1.838  0.0288  0.0417  0.0370
 3120TIP3    H130851   2.300   1.779   1.933  0.7877 -1.9448  0.1454
 3120TIP3    H230852   2.221   1.712   1.823  0.7438 -0.6721 -0.6053
 3121TIP3   OH230853   1.131   0.626  15.835  0.2905 -0.5505  0.6756
 3121TIP3    H130854   1.211   0.586  15.869  0.6456  1.7985  2.8459
 3121TIP3    H230855   1.077   0.552  15.808  2.1047 -2.3303  1.6913
 3122TIP3   OH230856   3.306   6.308   5.517  0.1575  0.0741  0.1165
 3122TIP3    H130857   3.392   6.272   5.541  0.7079  0.0941 -1.6593
 3122TIP3    H230858   3.320   6.346   5.430 -1.5145  0.6477  0.0690
 3123TIP3   OH230859   1.351   1.544   5.170  0.2004 -0.4206 -0.4592
 3123TIP3    H130860   1.392   1.457   5.170  0.7027 -0.2408  1.5921
 3123TIP3    H230861   1.290   1.543   5.244  2.7206  1.9681  1.9339
 3124TIP3   OH230862   3.077   6.178   3.215 -0.0243 -0.3177  0.0054
 3124TIP3    H130863   3.076   6.273   3.220  1.3107 -0.1817 -1.3511
 3124TIP3    H230864   3.099   6.149   3.304  0.0290  0.6593  0.3178
 3125TIP3   OH230865   2.396   2.687   3.044 -0.3310 -0.0222  0.0226
 3125TIP3    H130866   2.436   2.718   2.963  1.7046 -0.9971  0.5797
 3125TIP3    H230867   2.453   2.616   3.073 -0.2380  1.1060  2.9414
 3126TIP3   OH230868   2.332   2.678   0.988  0.1871  0.1515 -0.1109
 3126TIP3    H130869   2.339   2.719   1.074 -1.2774 -0.0762  0.1291
 3126TIP3    H230870   2.307   2.588   1.005  1.5231 -0.3651 -0.7276
 3127TIP3   OH230871   6.118   2.164  14.510 -0.4266 -0.2020 -0.0770
 3127TIP3    H130872   6.055   2.096  14.489 -0.3728  0.0286 -1.0476
 3127TIP3    H230873   6.200   2.117  14.524  0.0745 -0.2643 -2.6407
 3128TIP3   OH230874   1.653   4.874   0.702  0.4806  1.0780  0.5851
 3128TIP3    H130875   1.687   4.898   0.616  1.3451 -0.8173  0.3453
 3128TIP3    H230876   1.717   4.911   0.763  1.1665  0.4013  0.2902
 3129TIP3   OH230877   0.250   2.182   4.173 -0.5653 -0.1094  0.7454
 3129TIP3    H130878   0.257   2.100   4.124  0.2605  0.3358  0.0988
 3129TIP3    H230879   0.295   2.247   4.119 -4.1774  1.6110 -0.5108
 3130TIP3   OH230880   0.870   6.705   4.605  0.5161 -0.1226 -0.3143
 3130TIP3    H130881   0.813   6.701   4.528  0.3599  0.1972 -0.2171
 3130TIP3    H230882   0.867   6.797   4.632  1.1565 -0.0807 -0.3681
 3131TIP3   OH230883   2.271   6.645   3.987  0.3017 -0.0110  0.1074
 3131TIP3    H130884   2.228   6.583   4.046  0.3745 -0.3776 -0.2231
 3131TIP3    H230885   2.207   6.716   3.976 -0.8291 -1.1928 -1.4730
 3132TIP3   OH230886   3.085   3.250   3.183 -0.0238  0.0746  0.5410
 3132TIP3    H130887   3.160   3.273   3.239  0.5121 -0.7562  0.1785
 3132TIP3    H230888   3.104   3.162   3.152 -0.5305  0.3450 -0.5932
 3133TIP3   OH230889   2.689   3.481  11.901  0.5696 -0.2163 -0.1269
 3133TIP3    H130890   2.678   3.573  11.878  0.0552 -0.9146 -3.1621
 3133TIP3    H230891   2.728   3.441  11.823 -0.3139 -2.7946  0.6257
 3134TIP3   OH230892   2.043   3.332   1.059 -0.2838 -0.2875  0.3260
 3134TIP3    H130893   2.053   3.425   1.037 -0.4944 -0.4211 -0.3731
 3134TIP3    H230894   2.129   3.294   1.041 -0.0258 -0.1223  1.1849
 3135TIP3   OH230895   3.566   6.363  15.877  0.0438 -0.0312 -0.1376
 3135TIP3    H130896   3.635   6.365  15.943  0.1131  0.4780 -0.2226
 3135TIP3    H230897   3.492   6.407  15.919 -0.6650 -1.6722  0.4202
 3136TIP3   OH230898   1.096   3.694  13.035 -0.1955  0.0256 -0.6551
 3136TIP3    H130899   1.077   3.768  12.978 -1.6272  0.8795  0.8153
 3136TIP3    H230900   1.010   3.670  13.071  0.6492 -0.3136  1.2588
 3137TIP3   OH230901   4.070   4.124   4.572 -0.0151 -0.2399  0.1006
 3137TIP3    H130902   4.148   4.119   4.517  0.5193  0.1832  0.7907
 3137TIP3    H230903   4.008   4.176   4.521  0.6487  0.5648  0.0802
 3138TIP3   OH230904   6.760   1.453  12.265 -0.6005  0.3136 -0.1784
 3138TIP3    H130905   6.749   1.384  12.331  0.5129  0.1221 -0.1594
 3138TIP3    H230906   6.759   1.535  12.315 -0.6188  0.2251 -0.0340
 3139TIP3   OH230907   3.257   5.057   4.667 -0.2950 -0.0301  0.4793
 3139TIP3    H130908   3.288   5.114   4.737  0.5991 -1.1470  1.0216
 3139TIP3    H230909   3.322   5.066   4.597 -0.1081 -0.4536  0.6004
 3140TIP3   OH230910   4.708   1.303  10.422 -0.5540  0.7266  0.1116
 3140TIP3    H130911   4.717   1.208  10.413  1.2253  0.8883 -0.0246
 3140TIP3    H230912   4.681   1.333  10.335 -2.8262  0.2171  0.5656
 3141TIP3   OH230913   5.293   4.394   3.767  0.2551 -0.3444  0.1079
 3141TIP3    H130914   5.301   4.370   3.675 -0.4262 -0.3379  0.0403
 3141TIP3    H230915   5.198   4.396   3.783  0.3707 -1.2237  1.0359
 3142TIP3   OH230916   3.500   4.439  16.069 -0.1344 -0.5304  0.0621
 3142TIP3    H130917   3.431   4.395  16.119 -0.3788 -0.8091 -0.5097
 3142TIP3    H230918   3.577   4.436  16.127 -0.7186  0.2139  0.9064
 3143TIP3   OH230919   1.563   4.427  11.137  0.3820  0.1938  0.4924
 3143TIP3    H130920   1.650   4.402  11.169  1.6776  1.0463 -2.0960
 3143TIP3    H230921   1.555   4.382  11.052 -1.3075  0.8908  0.2466
 3144TIP3   OH230922   5.654   3.862   2.068 -0.3930 -0.1116  0.5563
 3144TIP3    H130923   5.678   3.863   1.975 -0.3429 -0.8534  0.5535
 3144TIP3    H230924   5.704   3.934   2.106  0.0158 -0.1518  0.1051
 3145TIP3   OH230925   5.949   3.523  12.395 -0.0851 -0.2069  0.4285
 3145TIP3    H130926   5.878   3.544  12.457  0.1451 -1.9396  1.3314
 3145TIP3    H230927   6.016   3.589  12.412 -1.1707  1.0418  0.0390
 3146TIP3   OH230928   1.030   2.617   5.795 -0.0287  0.1956  0.6348
 3146TIP3    H130929   0.940   2.590   5.811 -0.4108  0.8704 -0.2396
 3146TIP3    H230930   1.023   2.709   5.767  0.8795  0.1257  0.1081
 3147TIP3   OH230931   3.790   4.601   0.269  0.0267 -0.4357  0.0455
 3147TIP3    H130932   3.830   4.633   0.350  0.6384 -2.0136  0.4047
 3147TIP3    H230933   3.861   4.558   0.222 -0.7303 -1.2267 -0.4170
 3148TIP3   OH230934   2.370   4.790   5.313  0.6769  0.4111 -0.1168
 3148TIP3    H130935   2.326   4.874   5.326  1.4775  0.6464  1.2736
 3148TIP3    H230936   2.302   4.725   5.329  0.0883  0.7767 -1.0544
 3149TIP3   OH230937   3.394   3.888   3.254 -0.2508 -0.2489  0.2002
 3149TIP3    H130938   3.342   3.954   3.208  0.0605 -1.0365 -1.3472
 3149TIP3    H230939   3.354   3.805   3.229  0.4572 -0.7479  0.6939
 3150TIP3   OH230940   0.570   5.150  10.470  0.3913 -0.3130 -0.3049
 3150TIP3    H130941   0.648   5.174  10.420  1.3137 -0.6457  0.9232
 3150TIP3    H230942   0.511   5.225  10.461  1.9452  1.1167  0.9085
 3151TIP3   OH230943   1.293   2.100  15.026 -0.0344  0.9384 -0.0142
 3151TIP3    H130944   1.290   2.154  14.947 -1.6588 -1.2772 -1.5744
 3151TIP3    H230945   1.383   2.069  15.031  0.1371  1.2768 -0.8554
 3152TIP3   OH230946   0.545   6.726   0.574 -0.1521  0.7640  0.3767
 3152TIP3    H130947   0.489   6.731   0.496 -1.0226  2.4929  1.0552
 3152TIP3    H230948   0.618   6.671   0.547 -0.7668  0.7603 -1.4581
 3153TIP3   OH230949   4.956   5.585   6.049  0.2017  0.7607 -0.0728
 3153TIP3    H130950   4.949   5.648   6.121 -0.9100  0.0423  0.4666
 3153TIP3    H230951   5.048   5.558   6.050  0.2639  0.9570  0.9087
 3154TIP3   OH230952   0.361   2.874  16.374 -0.4848 -0.4929  0.7547
 3154TIP3    H130953   0.355   2.963  16.410  0.7998  0.0301 -0.2277
 3154TIP3    H230954   0.301   2.875  16.299  0.7280  0.0951 -0.2449
 3155TIP3   OH230955   4.888   1.699  16.237 -0.6413  0.0738 -0.0163
 3155TIP3    H130956   4.836   1.735  16.310 -0.7939  1.0948 -0.6043
 3155TIP3    H230957   4.869   1.758  16.164  0.3258 -0.3279 -0.5995
 3156TIP3   OH230958   3.748   3.612   3.767  0.1062 -0.4345 -0.2640
 3156TIP3    H130959   3.836   3.637   3.792  0.4959 -2.0757  0.1065
 3156TIP3    H230960   3.711   3.691   3.726  1.4544  0.5019  0.2745
 3157TIP3   OH230961   3.820   5.918   6.382 -0.4876 -0.1816 -0.0953
 3157TIP3    H130962   3.819   5.832   6.423  0.1877 -0.0661  0.1732
 3157TIP3    H230963   3.846   5.978   6.452  0.8080 -0.0026 -0.7052
 3158TIP3   OH230964   6.215   2.158   1.020  0.2928 -0.0020 -0.4787
 3158TIP3    H130965   6.209   2.076   1.069 -0.1276  0.3953  0.1451
 3158TIP3    H230966   6.242   2.132   0.932 -1.0778 -0.9339 -0.6521
 3159TIP3   OH230967   4.616   3.249  14.102 -0.2761  0.2181 -0.1452
 3159TIP3    H130968   4.546   3.197  14.142  0.8030 -0.5676  0.7667
 3159TIP3    H230969   4.653   3.299  14.175 -1.2837  2.3397 -0.9899
 3160TIP3   OH230970   3.506   0.291  14.852  0.0700 -0.0624 -0.2697
 3160TIP3    H130971   3.589   0.339  14.854  1.8743 -2.9162  0.1261
 3160TIP3    H230972   3.516   0.223  14.919 -2.0832 -1.2662 -1.0598
 3161TIP3   OH230973   4.981   0.907   4.335  0.7747 -0.0243  0.5093
 3161TIP3    H130974   4.911   0.864   4.287 -0.9588  2.2586  0.8397
 3161TIP3    H230975   4.983   0.861   4.420  1.8940 -2.1513 -0.5848
 3162TIP3   OH230976   1.975   1.501   0.301  0.2052 -0.3797  0.0920
 3162TIP3    H130977   2.024   1.537   0.375 -1.6720  2.5134  0.0770
 3162TIP3    H230978   1.945   1.416   0.331  1.8762 -0.5183  1.5363
 3163TIP3   OH230979   0.033   6.167   5.025 -0.0606  0.0898 -0.2938
 3163TIP3    H130980   0.083   6.090   5.053 -0.4585 -1.2836 -2.9995
 3163TIP3    H230981  -0.037   6.175   5.089  0.9595 -0.7623  0.9763
 3164TIP3   OH230982   3.809   4.420   4.662  0.2345 -0.8589 -0.2109
 3164TIP3    H130983   3.835   4.378   4.580 -1.3127 -1.4753 -0.4276
 3164TIP3    H230984   3.768   4.503   4.634  1.6064 -0.0493  0.0971
 3165TIP3   OH230985   5.240   2.540  11.590 -0.1759 -0.3711  0.5912
 3165TIP3    H130986   5.182   2.530  11.665 -1.0327 -3.0561 -0.3308
 3165TIP3    H230987   5.187   2.518  11.514  0.3098  3.3820 -1.1115
 3166TIP3   OH230988   0.142   3.796   2.138 -0.2837  0.4189 -0.6917
 3166TIP3    H130989   0.203   3.866   2.112 -0.4336  0.3210 -1.3140
 3166TIP3    H230990   0.072   3.800   2.073 -0.2027 -0.4310 -0.8390
 3167TIP3   OH230991   3.915   0.342   3.609  0.1285  0.2698 -0.7681
 3167TIP3    H130992   3.822   0.331   3.589  0.3221  0.0529 -1.5867
 3167TIP3    H230993   3.959   0.276   3.555  0.6101 -1.1000  1.1863
 3168TIP3   OH230994   1.841   0.577  11.375  0.1597 -0.0864  0.2162
 3168TIP3    H130995   1.920   0.522  11.370  1.4554  1.5225  1.7347
 3168TIP3    H230996   1.776   0.521  11.416  0.6355 -1.2885 -0.5868
 3169TIP3   OH230997   5.413   1.161   3.290  0.0470 -0.1480  0.0933
 3169TIP3    H130998   5.477   1.216   3.245  1.0798  0.5470  2.2846
 3169TIP3    H230999   5.329   1.205   3.274  0.3600  0.0436 -1.1457
 3170TIP3   OH231000   4.202   0.463   5.912 -0.1411 -0.3179 -0.3943
 3170TIP3    H131001   4.132   0.503   5.861  0.4937  2.0501  0.4869
 3170TIP3    H231002   4.160   0.435   5.993 -0.3648 -0.4077 -0.5392
 3171TIP3   OH231003   3.127   1.537   0.691 -0.2925  0.3831  0.6773
 3171TIP3    H131004   3.084   1.587   0.621 -0.0992 -1.2522 -0.6739
 3171TIP3    H231005   3.067   1.466   0.711  0.8443 -0.7804  0.1583
 3172TIP3   OH231006   0.100   3.891   0.788 -0.2905 -0.3720 -0.0976
 3172TIP3    H131007   0.147   3.852   0.862  0.1531 -0.2693 -0.3236
 3172TIP3    H231008   0.044   3.820   0.756 -0.9090 -0.2457  0.6885
 3173TIP3   OH231009   4.309   5.764  13.777 -0.1596  0.3088  0.1774
 3173TIP3    H131010   4.336   5.852  13.750  1.5558 -0.4133 -0.5900
 3173TIP3    H231011   4.391   5.718  13.796 -0.8355 -1.8091 -1.6214
 3174TIP3   OH231012   2.007   4.571   5.035 -0.2387  0.0553 -0.3290
 3174TIP3    H131013   1.942   4.502   5.047  0.5897 -0.6053  0.5568
 3174TIP3    H231014   1.961   4.652   5.056 -0.9038 -0.3624 -0.1663
 3175TIP3   OH231015   1.194   5.552  16.537  0.2219  1.0001  0.3218
 3175TIP3    H131016   1.122   5.612  16.517 -0.1685  0.9055  1.3807
 3175TIP3    H231017   1.233   5.588  16.617  2.5885  2.1515 -1.2396
 3176TIP3   OH231018   1.309   5.682   0.538  0.2163  0.1639  0.2773
 3176TIP3    H131019   1.259   5.669   0.457  1.4114 -0.7402 -0.3442
 3176TIP3    H231020   1.299   5.775   0.557 -1.8704 -0.0185  0.3087
 3177TIP3   OH231021   2.143   3.088   5.479  0.1801  0.2384  0.5024
 3177TIP3    H131022   2.097   3.061   5.558  1.3851  1.1386  1.5557
 3177TIP3    H231023   2.091   3.160   5.444 -1.8747 -1.9168 -1.1319
 3178TIP3   OH231024   0.075   5.136   4.531  0.0669  0.2393  0.2386
 3178TIP3    H131025  -0.015   5.134   4.499 -0.5451  1.8484  1.7002
 3178TIP3    H231026   0.069   5.103   4.621  0.8388  0.8067  0.5053
 3179TIP3   OH231027   4.495   3.073  12.092 -0.4681  0.1928  0.2959
 3179TIP3    H131028   4.582   3.112  12.081 -0.1955  0.2781  2.3302
 3179TIP3    H231029   4.465   3.105  12.177 -1.0993 -2.3773  1.1421
 3180TIP3   OH231030   6.704   4.049   6.345  0.8411  0.4237 -0.2329
 3180TIP3    H131031   6.613   4.051   6.377  0.6849  0.7371 -0.6838
 3180TIP3    H231032   6.734   3.960   6.362  0.0576 -0.0330 -1.1537
 3181TIP3   OH231033   5.383   0.051  14.754 -0.8257 -0.5075  0.0201
 3181TIP3    H131034   5.306   0.018  14.706 -1.2298 -0.5083  0.6648
 3181TIP3    H231035   5.445  -0.022  14.752 -2.5557 -2.3252  3.4119
 3182TIP3   OH231036   6.708   1.617  14.468 -0.4565 -0.0646 -0.7859
 3182TIP3    H131037   6.621   1.657  14.471 -0.1713  0.6122  2.5492
 3182TIP3    H231038   6.695   1.534  14.422 -2.4956  0.7519 -1.7926
 3183TIP3   OH231039   0.988   0.748  14.462 -0.2278 -0.1322  0.3116
 3183TIP3    H131040   1.023   0.829  14.498 -0.8074 -0.7747  2.4430
 3183TIP3    H231041   0.894   0.760  14.460 -0.2798 -0.5442  0.1230
 3184TIP3   OH231042   5.811   1.950   5.557  0.4971  0.5542  0.8895
 3184TIP3    H131043   5.863   1.985   5.484  0.1440  2.1997  1.3837
 3184TIP3    H231044   5.829   1.856   5.556  0.6948  0.5761 -1.1463
 3185TIP3   OH231045   1.349   2.992  13.682  0.4837 -0.8380  0.0651
 3185TIP3    H131046   1.269   2.998  13.630  0.6923 -0.2428 -0.1932
 3185TIP3    H231047   1.400   3.069  13.656  1.6618 -1.8314 -0.6649
 3186TIP3   OH231048   0.004   6.578  16.044  1.1474 -0.0557 -0.2754
 3186TIP3    H131049  -0.053   6.641  16.000  0.4388 -0.0738  0.5772
 3186TIP3    H231050   0.053   6.631  16.108  0.1107 -0.4287  0.8664
 3187TIP3   OH231051   1.939   6.367   0.715  0.1160 -0.4160  0.6641
 3187TIP3    H131052   2.015   6.310   0.725  1.7362  1.2882 -1.0639
 3187TIP3    H231053   1.890   6.330   0.642 -0.4977 -1.2382  1.4678
 3188TIP3   OH231054   5.055   3.619  16.942  0.3493  0.2828  0.2320
 3188TIP3    H131055   4.964   3.618  16.973  0.6352 -1.0883  1.1572
 3188TIP3    H231056   5.053   3.670  16.861 -1.0296  1.2627  0.8474
 3189TIP3   OH231057   1.604   4.348  10.884  0.3486  0.3238  0.4772
 3189TIP3    H131058   1.681   4.402  10.866  0.8532  0.0867  1.7719
 3189TIP3    H231059   1.634   4.258  10.867 -0.1374  0.3570 -0.5676
 3190TIP3   OH231060   0.133   6.433   6.023  0.0726 -0.2287 -0.5834
 3190TIP3    H131061   0.092   6.418   6.108  0.5367  0.7062 -0.1824
 3190TIP3    H231062   0.163   6.346   5.995  1.1629 -0.3405  0.8627
 3191TIP3   OH231063   2.796   3.225   0.939 -0.0215  0.5754  0.4589
 3191TIP3    H131064   2.821   3.300   0.994  0.3324  0.1850  0.8357
 3191TIP3    H231065   2.872   3.210   0.883  0.6827 -0.6851  1.6841
 3192TIP3   OH231066   3.578   6.756  12.779 -0.2955 -0.3866  1.0698
 3192TIP3    H131067   3.587   6.666  12.748  0.7815 -1.1050  3.2356
 3192TIP3    H231068   3.513   6.750  12.850 -1.2091  0.8063  0.3663
 3193TIP3   OH231069   1.777   6.071  13.694 -0.8652 -0.3537 -0.1714
 3193TIP3    H131070   1.759   6.019  13.616 -0.2535  0.5842 -0.9652
 3193TIP3    H231071   1.765   6.162  13.666 -0.0488  0.0377  0.6597
 3194TIP3   OH231072   4.529   2.409   4.096  0.0975  1.0429 -0.0048
 3194TIP3    H131073   4.560   2.360   4.020 -1.8379 -0.5048  0.1286
 3194TIP3    H231074   4.570   2.364   4.171  0.3609  1.2773 -0.0040
 3195TIP3   OH231075   3.455   5.219   5.214  1.1445 -0.0006  0.0654
 3195TIP3    H131076   3.513   5.208   5.289 -0.7734  0.2077  1.6395
 3195TIP3    H231077   3.370   5.238   5.252  0.3119  1.1074 -2.2015
 3196TIP3   OH231078   4.863   1.506  10.906  0.2025  0.2208  1.0229
 3196TIP3    H131079   4.869   1.482  10.814 -0.8236  2.7919  0.2125
 3196TIP3    H231080   4.945   1.473  10.945  0.6252 -0.9414 -0.7547
 3197TIP3   OH231081   3.015   6.332   0.130  0.1973 -0.0818 -0.0834
 3197TIP3    H131082   2.974   6.307   0.212 -0.6946 -0.1504 -0.5328
 3197TIP3    H231083   2.990   6.424   0.117  1.2998  0.2870  0.2823
 3198TIP3   OH231084   6.270   0.363   5.056 -0.6987 -0.1913 -0.6029
 3198TIP3    H131085   6.315   0.292   5.011  0.1402 -0.3837  0.4897
 3198TIP3    H231086   6.267   0.434   4.992  0.1428 -0.5753 -1.0890
 3199TIP3   OH231087   4.759   3.301  11.808  0.0071 -0.0109  0.2803
 3199TIP3    H131088   4.783   3.383  11.767 -1.8619  0.4119 -0.0734
 3199TIP3    H231089   4.703   3.257  11.744  1.1501 -1.6883  0.3643
 3200TIP3   OH231090   0.198   2.284   3.284  0.2025  1.0685  0.7330
 3200TIP3    H131091   0.131   2.350   3.268 -1.7108 -0.8268  0.4785
 3200TIP3    H231092   0.259   2.294   3.210 -2.3484 -0.1262 -1.7237
 3201TIP3   OH231093   0.814   6.216  14.927 -0.0545  0.5760 -0.2352
 3201TIP3    H131094   0.793   6.244  14.838  0.3742  1.3955 -0.0893
 3201TIP3    H231095   0.895   6.263  14.949  1.8853 -2.2876 -0.6986
 3202TIP3   OH231096   5.085   1.604  11.999  0.6673 -0.2131  0.0586
 3202TIP3    H131097   5.080   1.668  11.928  2.4709 -0.8798 -0.7493
 3202TIP3    H231098   5.118   1.524  11.956  1.7313 -0.6587  1.6121
 3203TIP3   OH231099   6.045   1.613  12.328  0.1807 -0.2381  0.2497
 3203TIP3    H131100   6.001   1.606  12.243 -1.2404 -0.8469  1.0046
 3203TIP3    H231101   6.046   1.524  12.362  3.8866 -0.6704 -0.5790
 3204TIP3   OH231102   3.916   1.304  12.362  0.1613 -0.0547 -1.3112
 3204TIP3    H131103   3.921   1.292  12.267 -0.0759  1.2439 -1.5035
 3204TIP3    H231104   3.955   1.224  12.398  1.8487  0.1501 -2.5263
 3205TIP3   OH231105   3.794   5.883   3.492  0.1550 -0.4735 -0.3337
 3205TIP3    H131106   3.888   5.877   3.510  0.4103 -0.5156 -1.6128
 3205TIP3    H231107   3.782   5.838   3.409 -0.3355  2.9008 -2.2649
 3206TIP3   OH231108   3.305   0.865   0.301  0.2032  0.6515 -0.3498
 3206TIP3    H131109   3.389   0.909   0.291 -0.1706  1.0982 -1.8127
 3206TIP3    H231110   3.244   0.920   0.253 -0.4992 -0.8746 -1.2636
 3207TIP3   OH231111   3.082   2.119   6.129 -0.0608  0.1820 -0.0278
 3207TIP3    H131112   3.052   2.197   6.175  2.3847  1.2910 -0.1535
 3207TIP3    H231113   3.073   2.140   6.036  0.6525  0.3555 -0.0621
 3208TIP3   OH231114   6.116   1.557  16.546  0.6504  0.3553  0.5370
 3208TIP3    H131115   6.187   1.526  16.490  2.1346  2.1734  1.3125
 3208TIP3    H231116   6.140   1.527  16.633 -0.2855 -0.1971  0.6187
 3209TIP3   OH231117   6.566   6.427   1.726  0.2040 -0.2309 -0.2320
 3209TIP3    H131118   6.562   6.396   1.635  1.2660  0.3141 -0.4745
 3209TIP3    H231119   6.502   6.498   1.729  0.6901  0.2390 -0.7610
 3210TIP3   OH231120   0.630   5.359  15.516 -0.4914 -0.0443 -0.2455
 3210TIP3    H131121   0.713   5.329  15.553 -0.6037  1.5025  1.4559
 3210TIP3    H231122   0.611   5.298  15.445  1.6673 -0.9365 -0.1335
 3211TIP3   OH231123   6.329   3.608   1.914  0.6665  0.1343 -0.1457
 3211TIP3    H131124   6.267   3.536   1.907 -0.9338  1.3730  0.5423
 3211TIP3    H231125   6.324   3.653   1.830  3.1476 -1.5884 -1.3513
 3212TIP3   OH231126   0.283   1.642   2.232  0.1460 -1.2254  0.0225
 3212TIP3    H131127   0.217   1.712   2.240  0.2629 -0.8727 -1.7901
 3212TIP3    H231128   0.338   1.669   2.158  1.3392 -2.3363  0.4705
 3213TIP3   OH231129   3.781   6.452  16.386 -0.2800 -0.4597 -1.0748
 3213TIP3    H131130   3.833   6.376  16.359 -0.5304 -2.1198  2.4207
 3213TIP3    H231131   3.845   6.516  16.416 -0.1011 -1.1692  0.1371
 3214TIP3   OH231132   1.233   6.385   1.797  0.0648  0.1367  0.2224
 3214TIP3    H131133   1.223   6.334   1.877  3.6261 -1.8049 -0.3295
 3214TIP3    H231134   1.203   6.326   1.727  1.5476 -0.1725 -0.1921
 3215TIP3   OH231135   0.196   3.734   5.654 -0.1846  0.3090  0.2000
 3215TIP3    H131136   0.152   3.649   5.641  0.3406  0.0502  0.0916
 3215TIP3    H231137   0.159   3.790   5.586 -0.3827  0.1105  0.1400
 3216TIP3   OH231138   1.687   2.612  15.907  0.1987 -0.1084  0.2269
 3216TIP3    H131139   1.597   2.639  15.886 -0.0268  0.0083  1.2790
 3216TIP3    H231140   1.735   2.624  15.825 -0.8807 -0.8002 -0.5357
 3217TIP3   OH231141   4.094   5.100   4.204  0.1498  0.0127  0.0613
 3217TIP3    H131142   4.039   5.150   4.265 -0.1173 -0.6404  0.3677
 3217TIP3    H231143   4.037   5.082   4.129  0.0430 -0.3800  0.2342
 3218TIP3   OH231144   1.096   0.429   5.419 -0.1713  0.1903 -1.1254
 3218TIP3    H131145   1.152   0.357   5.390 -0.9164 -1.0796  0.4201
 3218TIP3    H231146   1.024   0.429   5.357 -0.4432 -0.8005 -0.8437
 3219TIP3   OH231147   3.298   0.495   1.732 -0.6176  0.0193  0.2486
 3219TIP3    H131148   3.352   0.490   1.653  0.8617 -0.5595  1.2521
 3219TIP3    H231149   3.339   0.562   1.786 -1.9832  0.8662  0.2960
 3220TIP3   OH231150   5.175   2.880  11.700  0.6996  0.3858  0.4787
 3220TIP3    H131151   5.184   2.892  11.794  0.0220 -3.5964  1.2283
 3220TIP3    H231152   5.081   2.863  11.687  0.2082  3.6001 -1.4778
 3221TIP3   OH231153   4.630   1.217  13.965  0.4480  0.2853 -0.2574
 3221TIP3    H131154   4.597   1.141  13.917 -0.1772  1.2291 -1.3754
 3221TIP3    H231155   4.602   1.203  14.055  1.2798 -1.3259 -0.2052
 3222TIP3   OH231156   1.012   4.427   2.213  0.1573 -0.4143 -0.2805
 3222TIP3    H131157   0.942   4.368   2.182 -0.8690  0.5191  0.1732
 3222TIP3    H231158   0.998   4.508   2.163  0.6385 -0.0719  0.1372
 3223TIP3   OH231159   0.124   2.357  12.955  0.3909  0.1611  0.6431
 3223TIP3    H131160   0.106   2.287  13.018 -1.6604 -0.5302 -0.6045
 3223TIP3    H231161   0.152   2.431  13.008 -1.4551 -0.3236  2.3983
 3224TIP3   OH231162   6.703   2.707  15.603 -0.0158  0.1838 -0.4383
 3224TIP3    H131163   6.755   2.635  15.639 -2.3582 -1.5806 -0.3431
 3224TIP3    H231164   6.667   2.751  15.680  1.0532  1.2331 -0.5108
 3225TIP3   OH231165   6.136   2.333   2.190 -0.2836 -0.4609  0.0850
 3225TIP3    H131166   6.185   2.286   2.257  0.6626 -0.6873 -0.7468
 3225TIP3    H231167   6.059   2.279   2.174 -0.8732 -0.0732  1.4410
 3226TIP3   OH231168   2.947   1.336   1.149 -0.3430 -0.3568 -0.4639
 3226TIP3    H131169   2.896   1.284   1.087 -0.5346 -1.8087  0.8222
 3226TIP3    H231170   3.019   1.278   1.175 -0.0142  0.3766  0.3176
 3227TIP3   OH231171   6.182   4.145   5.776 -0.4563 -0.0807 -0.5132
 3227TIP3    H131172   6.119   4.164   5.846 -1.5272  1.1164 -1.7605
 3227TIP3    H231173   6.161   4.207   5.707  1.5252 -0.2678 -1.3492
 3228TIP3   OH231174   2.143   1.542  11.318  1.1108 -0.1480 -0.1776
 3228TIP3    H131175   2.090   1.481  11.266  0.7838 -0.1797  0.1785
 3228TIP3    H231176   2.209   1.486  11.360  0.4674 -0.3597  0.5884
 3229TIP3   OH231177   0.867   6.661   4.254 -0.2493 -0.0274 -0.4686
 3229TIP3    H131178   0.835   6.667   4.344  1.1476  0.9779 -0.0140
 3229TIP3    H231179   0.799   6.704   4.202  0.3356  2.2016  0.4962
 3230TIP3   OH231180   6.522   0.478   4.342  0.5768 -0.0268  0.0304
 3230TIP3    H131181   6.602   0.465   4.291  1.5263 -0.1818  1.4986
 3230TIP3    H231182   6.551   0.525   4.420 -0.7766 -0.0839  0.5926
 3231TIP3   OH231183   2.333   3.389   1.449 -0.4296  0.5106  0.3666
 3231TIP3    H131184   2.237   3.391   1.445 -0.3866  1.6906 -1.8403
 3231TIP3    H231185   2.359   3.481   1.456  0.5558  0.1441  1.9541
 3232TIP3   OH231186   1.064   0.579  11.770 -0.7843  0.5247 -0.1009
 3232TIP3    H131187   0.990   0.638  11.780 -1.2340  0.0357 -0.4957
 3232TIP3    H231188   1.112   0.587  11.853 -2.0335 -0.1970  0.7265
 3233TIP3   OH231189   2.312   6.541  14.567  0.1017  0.3002  0.3987
 3233TIP3    H131190   2.372   6.614  14.558  0.4017 -0.1502 -1.8754
 3233TIP3    H231191   2.260   6.541  14.486  0.2778 -2.1021  0.1929
 3234TIP3   OH231192   6.610   4.152   2.486  0.5204  0.0686 -0.0974
 3234TIP3    H131193   6.704   4.168   2.490  0.7103 -0.6777 -1.1240
 3234TIP3    H231194   6.570   4.239   2.482  1.2796  0.3686 -1.6791
 3235TIP3   OH231195   4.483   0.617   3.354 -0.4640  0.4705  0.2129
 3235TIP3    H131196   4.515   0.582   3.271 -0.7531  0.6195  0.0371
 3235TIP3    H231197   4.437   0.698   3.331  0.4880  1.1503  0.6609
 3236TIP3   OH231198   6.325   5.876  15.499  0.0735 -0.2529  0.2944
 3236TIP3    H131199   6.368   5.888  15.414  1.4701 -0.5960  0.9200
 3236TIP3    H231200   6.373   5.934  15.558  0.3080 -1.3660  1.2301
 3237TIP3   OH231201   0.517   5.231  12.005  0.0426  0.1554  0.4358
 3237TIP3    H131202   0.519   5.278  12.088  0.7246 -1.8679  1.6488
 3237TIP3    H231203   0.567   5.285  11.944 -2.8375  3.1313  0.4140
 3238TIP3   OH231204   0.569   4.694  16.371  0.5518  0.4867  0.0506
 3238TIP3    H131205   0.580   4.768  16.312  1.0275  0.8168  0.5489
 3238TIP3    H231206   0.653   4.647  16.366  1.0122  1.1314  1.2937
 3239TIP3   OH231207   6.784   5.234  13.909 -0.0583  0.2449  0.4638
 3239TIP3    H131208   6.709   5.176  13.923 -0.0276  0.2140  0.4996
 3239TIP3    H231209   6.836   5.190  13.842 -0.9433  1.0941 -0.8136
 3240TIP3   OH231210   0.361   2.795  11.849  0.2539  0.5180  0.2040
 3240TIP3    H131211   0.338   2.830  11.936  3.0395 -0.9019  1.6447
 3240TIP3    H231212   0.298   2.725  11.835  0.7678 -0.3666  1.9444
 3241TIP3   OH231213   0.513   1.317  12.681  0.6611  0.4061 -0.2048
 3241TIP3    H131214   0.555   1.237  12.711  1.2852  0.9242  0.3210
 3241TIP3    H231215   0.503   1.371  12.759  2.3740  1.8041 -0.8800
 3242TIP3   OH231216   3.138   4.594  12.564  0.0090 -0.5582 -0.0973
 3242TIP3    H131217   3.178   4.512  12.533  0.9510 -0.4033  0.6478
 3242TIP3    H231218   3.047   4.587  12.538  0.3774 -1.2119 -1.3147
 3243TIP3   OH231219   5.310   3.858   2.281 -0.0821 -0.7865 -0.2138
 3243TIP3    H131220   5.355   3.812   2.352  0.4229 -1.6311 -1.0657
 3243TIP3    H231221   5.354   3.942   2.276  2.0388 -1.8960 -1.5834
 3244TIP3   OH231222   4.410   4.175   4.825 -0.9535  0.0751 -0.3408
 3244TIP3    H131223   4.372   4.182   4.912  0.1167  0.2742  0.1300
 3244TIP3    H231224   4.485   4.235   4.827  0.3145 -1.4242 -0.7177
 3245TIP3   OH231225   4.936   2.280  13.036  0.4873 -0.2675  0.0483
 3245TIP3    H131226   4.877   2.206  13.041  0.8784 -0.4873  1.7762
 3245TIP3    H231227   4.889   2.352  13.078 -0.3090  0.8156 -2.4977
 3246TIP3   OH231228   1.315   3.476  15.312  0.1593 -0.3830  0.2956
 3246TIP3    H131229   1.251   3.430  15.368 -2.6973  1.3282 -1.3205
 3246TIP3    H231230   1.273   3.560  15.292  2.9728  0.8350 -0.9397
 3247TIP3   OH231231   5.404   4.997   4.877 -0.1790 -0.0270 -0.5027
 3247TIP3    H131232   5.422   4.953   4.794 -2.4518 -1.1038 -0.4940
 3247TIP3    H231233   5.308   4.997   4.884 -0.1196  1.7164  1.2509
 3248TIP3   OH231234   6.776   2.064   5.025 -0.6000 -0.1697  0.0195
 3248TIP3    H131235   6.777   2.073   4.929 -0.6588  1.7882  0.1721
 3248TIP3    H231236   6.843   1.997   5.042 -0.7806 -0.7617 -1.3952
 3249TIP3   OH231237   0.001   4.439  13.279 -0.4362 -0.2441  0.4549
 3249TIP3    H131238  -0.079   4.422  13.229 -0.3663  1.3154 -0.2666
 3249TIP3    H231239  -0.001   4.375  13.350 -2.6252  0.1036  0.7950
 3250TIP3   OH231240   6.012   4.106  13.453  0.7863 -0.2316  0.0603
 3250TIP3    H131241   6.105   4.090  13.465  0.5640 -0.6806  1.4864
 3250TIP3    H231242   5.976   4.022  13.423  0.9063  0.0845 -0.9957
 3251TIP3   OH231243   6.109   4.527   2.743 -0.6742  1.0442  0.4133
 3251TIP3    H131244   6.047   4.462   2.707  0.5627  0.2704 -0.3842
 3251TIP3    H231245   6.075   4.545   2.830 -1.6004  0.0476  0.2930
 3252TIP3   OH231246   5.326   1.571  12.469  0.3641  0.4537 -0.0381
 3252TIP3    H131247   5.314   1.539  12.380 -1.4880 -0.5936  0.5412
 3252TIP3    H231248   5.333   1.666  12.460  2.0741  0.2599 -1.4311
 3253TIP3   OH231249   5.565   6.380   6.847  0.6414 -0.1760 -0.0519
 3253TIP3    H131250   5.480   6.375   6.892  1.4215 -0.9750  1.4187
 3253TIP3    H231251   5.548   6.435   6.771 -0.9506  0.5857  0.7895
 3254TIP3   OH231252   1.673   4.439  16.953 -0.3121 -0.1238 -0.3979
 3254TIP3    H131253   1.623   4.410  17.030 -0.5082  0.6451 -0.2273
 3254TIP3    H231254   1.607   4.462  16.888 -0.1447 -0.9728 -0.8908
 3255TIP3   OH231255   4.927   6.254   1.351  0.3076  0.3496  0.1313
 3255TIP3    H131256   4.875   6.330   1.326  0.0023  0.7083  1.7210
 3255TIP3    H231257   4.959   6.275   1.439  0.6566 -1.1455  0.3855
 3256TIP3   OH231258   0.469   6.158   5.024  0.2532 -0.4303 -0.0907
 3256TIP3    H131259   0.549   6.209   5.019  0.2955 -0.4396  0.4701
 3256TIP3    H231260   0.463   6.131   5.115 -0.0597 -0.9600 -0.2635
 3257TIP3   OH231261   2.267   0.353   5.127 -0.7236  0.4682 -0.4180
 3257TIP3    H131262   2.211   0.374   5.202 -0.5874  1.8299 -0.6687
 3257TIP3    H231263   2.232   0.271   5.092 -3.6372  2.0562 -1.5426
 3258TIP3   OH231264   4.830   0.118  11.519 -0.0893  0.5086  0.0230
 3258TIP3    H131265   4.784   0.129  11.436 -1.5500  0.7260  0.8179
 3258TIP3    H231266   4.859   0.206  11.543 -0.8254  0.6683  0.3610
 3259TIP3   OH231267   0.014   2.617  14.555  0.2941 -0.1917  0.0476
 3259TIP3    H131268  -0.076   2.648  14.568  0.7844  1.6066 -0.5666
 3259TIP3    H231269   0.034   2.638  14.464  0.9910 -1.5730 -0.1412
 3260TIP3   OH231270   3.504   2.742   3.543  0.0221  0.7559  0.1527
 3260TIP3    H131271   3.581   2.717   3.490 -0.4355  0.7585 -0.5244
 3260TIP3    H231272   3.541   2.769   3.627  0.7849  0.9406 -0.2294
 3261TIP3   OH231273   6.603   1.161  15.978  0.3522  0.3779 -0.0214
 3261TIP3    H131274   6.538   1.148  15.908  1.3431 -1.8735 -0.5964
 3261TIP3    H231275   6.672   1.212  15.936  1.4952 -1.9593 -1.1237
 3262TIP3   OH231276   5.266   4.907   1.682 -0.3060  0.2050  0.0537
 3262TIP3    H131277   5.250   5.001   1.671  1.4112  0.3862 -1.2537
 3262TIP3    H231278   5.263   4.872   1.592  0.5648 -0.7204  0.3720
 3263TIP3   OH231279   5.030   6.142   0.613 -0.5147 -0.4109  0.2227
 3263TIP3    H131280   5.061   6.053   0.632 -1.1044 -0.8008 -0.5442
 3263TIP3    H231281   4.985   6.170   0.693 -1.3678 -1.2869  0.0703
 3264TIP3   OH231282   0.527   2.560   1.201 -0.3123  0.0560 -0.1389
 3264TIP3    H131283   0.462   2.500   1.236  0.7066 -0.2120  1.4083
 3264TIP3    H231284   0.585   2.504   1.148 -0.3726 -0.0060 -0.1397
 3265TIP3   OH231285   2.809   5.123   3.451 -0.2738 -0.2319 -0.2629
 3265TIP3    H131286   2.766   5.085   3.374  0.9897 -1.2898 -0.4848
 3265TIP3    H231287   2.864   5.192   3.415 -1.5747  0.9815 -0.0014
 3266TIP3   OH231288   0.910   1.120  14.334  0.1293  0.0695 -0.2490
 3266TIP3    H131289   0.858   1.053  14.289 -0.5234 -1.2467  2.2337
 3266TIP3    H231290   0.853   1.197  14.338 -0.5781 -0.4491 -0.0088
 3267TIP3   OH231291   1.808   1.950   5.234 -0.1859 -0.1965  0.1448
 3267TIP3    H131292   1.851   1.927   5.151  0.2160 -0.6543  0.4742
 3267TIP3    H231293   1.823   2.044   5.243  0.7633 -0.3499  0.2575
 3268TIP3   OH231294   0.067   3.542   2.468  0.0111  0.3807  0.4574
 3268TIP3    H131295  -0.018   3.540   2.424  0.1231 -0.9934  0.2863
 3268TIP3    H231296   0.046   3.566   2.559 -0.5406  0.1368  0.3965
 3269TIP3   OH231297   3.417   3.080   2.240 -0.1229 -0.3163  0.1047
 3269TIP3    H131298   3.325   3.086   2.213 -0.6836 -0.9786  1.7372
 3269TIP3    H231299   3.461   3.039   2.165 -1.2336 -0.3879 -0.5396
 3270TIP3   OH231300   6.641   1.461   1.711 -0.1580 -0.2745 -0.0459
 3270TIP3    H131301   6.567   1.479   1.769  0.0514  2.6099 -0.5264
 3270TIP3    H231302   6.613   1.493   1.626  0.5368 -2.0232 -0.9855
 3271TIP3   OH231303   5.767   1.988   3.301 -0.3592  0.4999  0.6539
 3271TIP3    H131304   5.711   2.048   3.351  0.6996  3.0591 -1.0000
 3271TIP3    H231305   5.720   1.973   3.219  0.1854  0.5044  0.3382
 3272TIP3   OH231306   1.785   0.651   2.730  0.2920 -0.2568  0.8229
 3272TIP3    H131307   1.744   0.636   2.815 -3.5034 -1.0257 -0.9512
 3272TIP3    H231308   1.723   0.705   2.682  1.9555 -0.4275 -1.7450
 3273TIP3   OH231309   6.166   6.081   4.565 -0.1965 -0.0505  0.1725
 3273TIP3    H131310   6.177   5.995   4.525 -2.9580  0.4112 -1.8325
 3273TIP3    H231311   6.245   6.129   4.542 -0.2409 -0.8997 -1.9743
 3274TIP3   OH231312   5.191   3.905   4.479  0.3506  0.2638  0.0873
 3274TIP3    H131313   5.186   3.983   4.534 -1.3233 -0.4704  1.0754
 3274TIP3    H231314   5.139   3.926   4.402  1.1054  0.6220 -0.3288
 3275TIP3   OH231315   4.508   2.718   4.039 -0.4023 -0.1584 -0.2252
 3275TIP3    H131316   4.507   2.717   3.943  0.6445  0.3365 -0.2537
 3275TIP3    H231317   4.542   2.632   4.063 -0.6747 -0.2869 -0.2957
 3276TIP3   OH231318   4.596   3.254   4.725 -0.2898 -0.2627 -0.1032
 3276TIP3    H131319   4.670   3.295   4.680  0.6061  0.7401  2.1161
 3276TIP3    H231320   4.519   3.287   4.679  0.5704 -1.7059 -2.7779
 3277TIP3   OH231321   3.777   5.128   0.181 -0.3014 -0.1317  0.1507
 3277TIP3    H131322   3.741   5.128   0.093 -0.8006 -0.4555  0.3469
 3277TIP3    H231323   3.782   5.035   0.205 -3.3986 -0.0323  1.7165
 3278TIP3   OH231324   1.709   1.588   1.256  0.5040  0.7067 -0.1603
 3278TIP3    H131325   1.648   1.590   1.329 -0.5896  2.6808 -1.0506
 3278TIP3    H231326   1.789   1.627   1.290 -0.0643  1.7963 -0.0261
 3279TIP3   OH231327   1.453   3.597  12.654  0.6849 -0.2616 -0.3688
 3279TIP3    H131328   1.423   3.681  12.690  2.0910 -0.7064  2.1042
 3279TIP3    H231329   1.416   3.594  12.566 -2.8711  1.1046  0.8731
 3280TIP3   OH231330   0.791   0.248  16.670  0.6435  0.6892  0.2862
 3280TIP3    H131331   0.809   0.324  16.615  1.1347  0.2146 -0.2276
 3280TIP3    H231332   0.698   0.230  16.656  0.8646  0.3001 -0.7538
 3281TIP3   OH231333   1.504   3.317  10.894  0.5126  0.3393  0.0269
 3281TIP3    H131334   1.583   3.336  10.843  2.2022 -1.6068  1.7457
 3281TIP3    H231335   1.504   3.384  10.963 -0.2355  1.2715 -0.8472
 3282TIP3   OH231336   4.934   5.029  17.084 -0.3941 -0.0593  0.5213
 3282TIP3    H131337   4.981   5.017  17.166 -1.4311 -2.1685  0.8685
 3282TIP3    H231338   5.002   5.023  17.016  0.3728  1.0403  1.1566
 3283TIP3   OH231339   3.218   0.586  13.198 -0.1934  0.7419  0.0850
 3283TIP3    H131340   3.148   0.625  13.146 -2.3552 -2.8237 -0.0175
 3283TIP3    H231341   3.174   0.544  13.271  2.3139  1.4640  2.1753
 3284TIP3   OH231342   5.468   4.930   1.057 -0.3876  0.6685 -0.1944
 3284TIP3    H131343   5.516   4.996   1.007  1.4048 -0.5176 -0.1577
 3284TIP3    H231344   5.488   4.949   1.148  1.2101 -0.5994 -0.2231
 3285TIP3   OH231345   4.829   2.609  12.869  0.1552 -0.5622  0.0673
 3285TIP3    H131346   4.779   2.541  12.823  0.0719  0.8270 -2.0722
 3285TIP3    H231347   4.919   2.598  12.839 -0.0901  1.0661 -1.4610
 3286TIP3   OH231348   1.480   5.651  11.791 -0.0989 -0.3265  0.0197
 3286TIP3    H131349   1.414   5.654  11.722  0.1591 -1.5711 -0.3140
 3286TIP3    H231350   1.474   5.562  11.826 -0.6839  0.4596  2.0867
 3287TIP3   OH231351   2.371   4.222  14.447  0.1219 -0.2638  0.3359
 3287TIP3    H131352   2.310   4.258  14.382  0.8604  0.8078  0.2157
 3287TIP3    H231353   2.457   4.234  14.408  0.8232  2.5636  2.4186
 3288TIP3   OH231354   3.199   6.083   1.901  0.7356  0.1093 -0.0084
 3288TIP3    H131355   3.173   5.992   1.916  0.6501 -0.1401 -1.5332
 3288TIP3    H231356   3.142   6.134   1.958  0.5821 -0.7730  0.6464
 3289TIP3   OH231357   0.185   4.934  14.757  0.4742 -0.1680 -0.3912
 3289TIP3    H131358   0.253   4.878  14.719  1.1633  0.5863 -0.3091
 3289TIP3    H231359   0.226   4.971  14.835  0.1330  0.6763 -0.6062
 3290TIP3   OH231360   3.797   6.287   5.446  0.0712  0.0220 -0.1110
 3290TIP3    H131361   3.841   6.372   5.453 -1.4669  0.8930 -0.5637
 3290TIP3    H231362   3.739   6.283   5.522 -1.0079  0.0847 -0.9036
 3291TIP3   OH231363   6.264   0.187  17.132  0.1572 -0.3099 -0.2686
 3291TIP3    H131364   6.183   0.169  17.181  0.4082 -1.4445 -0.2487
 3291TIP3    H231365   6.327   0.212  17.199 -0.3562  1.3306 -0.3555
 3292TIP3   OH231366   6.271   2.545  15.257  0.1135  0.1316 -0.2687
 3292TIP3    H131367   6.261   2.452  15.239  0.5977  0.1547 -0.6574
 3292TIP3    H231368   6.363   2.564  15.241 -0.3707  1.0949 -2.2027
 3293TIP3   OH231369   0.428   5.942   1.673 -0.2706 -0.3758  0.8217
 3293TIP3    H131370   0.359   5.923   1.736  0.8568 -0.9135  1.9282
 3293TIP3    H231371   0.509   5.943   1.724  0.9327 -2.6428 -0.8331
 3294TIP3   OH231372   6.566   1.184   3.714 -0.0462 -0.1393 -0.3258
 3294TIP3    H131373   6.527   1.104   3.681  0.7768 -0.7783  0.2008
 3294TIP3    H231374   6.615   1.157   3.792 -0.6561  1.0622  0.5043
 3295TIP3   OH231375   1.486   3.280   0.110 -0.0768 -0.0013  0.6463
 3295TIP3    H131376   1.404   3.279   0.060 -0.4117  2.1146  1.0350
 3295TIP3    H231377   1.543   3.339   0.061  1.3745 -1.6553  0.2373
 3296TIP3   OH231378   3.856   3.704   0.659  1.0707  1.2097 -0.1193
 3296TIP3    H131379   3.945   3.740   0.655  1.3246  0.6755  0.4808
 3296TIP3    H231380   3.864   3.630   0.719  0.6378 -0.0290 -1.5291
 3297TIP3   OH231381   1.706   6.108   2.797 -0.0281  0.4921 -0.1383
 3297TIP3    H131382   1.711   6.025   2.750  0.6277  0.0645  0.6690
 3297TIP3    H231383   1.683   6.172   2.729 -0.1087 -0.2713 -0.8507
 3298TIP3   OH231384   3.326   0.156  11.183 -0.0607  0.5896 -0.6186
 3298TIP3    H131385   3.255   0.124  11.127  0.6387  0.8457 -1.6796
 3298TIP3    H231386   3.402   0.161  11.125  0.8681  0.2026  0.5255
 3299TIP3   OH231387   3.277   3.641   3.155 -0.0975  0.1572  0.4918
 3299TIP3    H131388   3.321   3.629   3.239 -1.7477  0.3993  1.4304
 3299TIP3    H231389   3.327   3.588   3.094  0.9702 -0.2503  1.6829
 3300TIP3   OH231390   4.608   4.226  13.944  0.2880  0.3157 -0.1814
 3300TIP3    H131391   4.645   4.144  13.911  0.2810  0.6209 -0.9801
 3300TIP3    H231392   4.527   4.201  13.987 -0.6619  0.0772 -2.0109
 3301TIP3   OH231393   5.733   4.712   0.492 -0.3994  0.0201  0.1856
 3301TIP3    H131394   5.701   4.802   0.496  0.1726  0.2120  0.4875
 3301TIP3    H231395   5.738   4.692   0.399  1.2869  0.9592  0.0449
 3302TIP3   OH231396   1.473   6.513   3.026  0.0802  0.4110  0.3374
 3302TIP3    H131397   1.383   6.544   3.036 -0.2375 -0.4448  0.2577
 3302TIP3    H231398   1.464   6.419   3.012  1.0561  0.0885  1.6994
 3303TIP3   OH231399   0.223   4.085  13.383 -0.1948 -0.2096 -0.8776
 3303TIP3    H131400   0.189   4.164  13.426 -0.0987 -0.4868 -0.2830
 3303TIP3    H231401   0.213   4.016  13.449  1.7087 -0.2718 -0.5797
 3304TIP3   OH231402   5.758   5.801   5.779 -0.5210  0.5922  0.4322
 3304TIP3    H131403   5.832   5.861   5.778  0.3092 -0.3836 -1.3259
 3304TIP3    H231404   5.771   5.747   5.857  1.3909 -0.4261 -0.5223
 3305TIP3   OH231405   1.811   4.395   0.936 -0.5061  0.2361  0.2588
 3305TIP3    H131406   1.876   4.340   0.891 -1.4425 -0.1695 -0.6335
 3305TIP3    H231407   1.851   4.482   0.939 -0.4356  0.2881 -1.4308
 3306TIP3   OH231408   3.865   2.884   3.117  0.3927 -0.6835 -0.2465
 3306TIP3    H131409   3.816   2.951   3.166  1.2945 -0.3126  0.1613
 3306TIP3    H231410   3.825   2.886   3.030 -0.9484 -1.0559  0.3288
 3307TIP3   OH231411   0.430   0.009  11.565  0.5891 -0.7642  0.5764
 3307TIP3    H131412   0.358  -0.010  11.505  0.2121 -1.2674  1.1643
 3307TIP3    H231413   0.426  -0.062  11.630  1.4939 -0.6865  0.7279
 3308TIP3   OH231414   3.945   2.159  12.577  0.1007  0.1431  0.3652
 3308TIP3    H131415   3.851   2.171  12.563  0.6936  2.1500 -3.2939
 3308TIP3    H231416   3.961   2.193  12.665 -2.6032 -0.7593  1.3100
 3309TIP3   OH231417   4.483   6.278  17.267  0.0035 -0.0677  0.0744
 3309TIP3    H131418   4.491   6.195  17.314 -3.4517 -0.9711 -0.6649
 3309TIP3    H231419   4.468   6.343  17.336 -1.8332 -0.8749  0.5200
 3310TIP3   OH231420   5.379   3.157  11.426  0.1625  0.1394  0.4686
 3310TIP3    H131421   5.326   3.196  11.496  0.5494 -0.0713  0.8871
 3310TIP3    H231422   5.425   3.084  11.468  1.0249  0.5095  0.2021
 3311TIP3   OH231423   3.318   4.021   1.436 -0.1824 -0.0806 -0.1358
 3311TIP3    H131424   3.350   4.034   1.526  2.4014  0.5708 -1.0535
 3311TIP3    H231425   3.299   4.110   1.405 -1.5194 -0.3415 -0.1253
 3312TIP3   OH231426   0.088   3.714  15.581 -0.1588  0.4662  0.2278
 3312TIP3    H131427   0.029   3.789  15.583 -0.6811  0.1279 -1.1977
 3312TIP3    H231428   0.097   3.693  15.488  0.4588 -0.8693  0.5623
 3313TIP3   OH231429   0.154   2.394  11.700  0.3273 -0.1432 -0.2318
 3313TIP3    H131430   0.141   2.483  11.733 -2.1901  0.2321 -1.9615
 3313TIP3    H231431   0.186   2.345  11.776  1.2338  2.0688  0.9215
 3314TIP3   OH231432   4.785   3.229   2.485 -0.2191 -0.0377  0.4588
 3314TIP3    H131433   4.770   3.207   2.577  0.1700 -1.6119  0.1811
 3314TIP3    H231434   4.719   3.179   2.437  0.2203 -0.0175 -0.1787
 3315TIP3   OH231435   6.727   4.217   4.292 -0.3645  0.1392  0.1085
 3315TIP3    H131436   6.649   4.215   4.237 -0.2165  2.5766 -0.3163
 3315TIP3    H231437   6.695   4.240   4.379 -0.6579 -4.1863  1.3358
 3316TIP3   OH231438   4.780   6.474   1.289  0.0703  0.0122  0.2759
 3316TIP3    H131439   4.809   6.560   1.318 -0.9419 -0.1382  1.8586
 3316TIP3    H231440   4.709   6.492   1.227  0.1705  0.3194  0.2505
 3317TIP3   OH231441   3.935   5.264  16.548 -0.9231 -0.6655 -0.1335
 3317TIP3    H131442   3.973   5.242  16.633  0.9694  1.4032 -0.3657
 3317TIP3    H231443   3.856   5.314  16.568 -0.4628 -0.1573  0.4341
 3318TIP3   OH231444   4.600   0.449   3.169  0.1097 -0.0398  0.2373
 3318TIP3    H131445   4.640   0.362   3.164  1.2051  0.4659 -0.1525
 3318TIP3    H231446   4.547   0.457   3.090  1.3229  0.2594 -0.5664
 3319TIP3   OH231447   1.415   6.545   0.321  0.0875  0.0667 -0.0950
 3319TIP3    H131448   1.398   6.536   0.227  0.3184  2.6776 -0.4689
 3319TIP3    H231449   1.454   6.462   0.347 -0.0616 -0.7435 -2.2900
 3320TIP3   OH231450   5.346   1.573  10.744  0.2619  0.7305 -0.0005
 3320TIP3    H131451   5.267   1.539  10.702 -0.1937  0.0061  1.3717
 3320TIP3    H231452   5.350   1.665  10.717 -0.9048  0.7067 -0.3255
 3321TIP3   OH231453   1.690   3.210   3.956 -0.6633  0.2987  0.1016
 3321TIP3    H131454   1.724   3.262   3.883  0.9800 -0.0105  0.6050
 3321TIP3    H231455   1.765   3.199   4.015 -0.9982 -2.3289  0.1759
 3322TIP3   OH231456   5.033   5.570  11.229 -0.6530  0.0518 -0.4518
 3322TIP3    H131457   5.020   5.491  11.281 -0.8392  1.7097  2.2458
 3322TIP3    H231458   5.128   5.577  11.218 -0.4275  0.7354  1.5790
 3323TIP3   OH231459   3.333   6.111  13.419 -0.4288 -0.2173 -0.8001
 3323TIP3    H131460   3.250   6.089  13.378 -0.4501  0.7100 -1.2630
 3323TIP3    H231461   3.310   6.165  13.494 -0.1855  1.7281 -2.0400
 3324TIP3   OH231462   6.434   3.090   2.634 -0.1149  0.8112 -0.0122
 3324TIP3    H131463   6.450   3.028   2.562  0.3946 -1.6397  2.0390
 3324TIP3    H231464   6.521   3.123   2.657 -0.2161  1.2231 -0.2214
 3325TIP3   OH231465   2.011   0.645   1.811  0.3808  0.4360 -0.5596
 3325TIP3    H131466   1.954   0.610   1.879  2.1114 -0.3908  0.5564
 3325TIP3    H231467   1.970   0.728   1.786 -0.4291  0.6914  1.3800
 3326TIP3   OH231468   5.071   1.166  14.469 -0.4438 -0.6165 -0.0168
 3326TIP3    H131469   5.051   1.209  14.552 -1.2595 -0.1920 -0.4256
 3326TIP3    H231470   5.167   1.157  14.469 -0.2893  0.8444  0.2473
 3327TIP3   OH231471   4.936   1.390   0.992 -0.2393  0.2981  0.1441
 3327TIP3    H131472   4.845   1.413   1.009 -0.2826  0.4111 -0.2412
 3327TIP3    H231473   4.932   1.327   0.920 -0.1762 -1.4609  1.6140
 3328TIP3   OH231474   0.070   6.039  13.126 -0.6162  0.0495 -0.2779
 3328TIP3    H131475   0.145   6.038  13.185 -0.5479 -0.2907 -0.3666
 3328TIP3    H231476   0.105   6.072  13.043 -0.4609 -0.5062 -0.4435
 3329TIP3   OH231477   0.795   2.336  14.336  0.1867 -0.1541  0.0740
 3329TIP3    H131478   0.743   2.345  14.256 -0.8603  0.0932  0.7677
 3329TIP3    H231479   0.838   2.251  14.326  0.4189  0.0659 -0.9422
 3330TIP3   OH231480   0.810   3.459  10.497  0.2288  0.2599 -0.4658
 3330TIP3    H131481   0.723   3.435  10.528 -0.1564  0.4754 -1.3338
 3330TIP3    H231482   0.815   3.422  10.409  1.2625 -0.2964 -0.1987
 3331TIP3   OH231483   4.419   1.760   0.280 -0.6064  0.3635  0.1656
 3331TIP3    H131484   4.338   1.790   0.240 -0.1546  0.2869 -0.8277
 3331TIP3    H231485   4.468   1.840   0.298 -0.0794  0.3377 -1.0372
 3332TIP3   OH231486   0.176   6.626  14.761 -0.1282  0.3297 -0.0609
 3332TIP3    H131487   0.269   6.613  14.780  0.6288  1.8948 -2.2637
 3332TIP3    H231488   0.143   6.538  14.739  1.0785 -0.1002 -0.2156
 3333TIP3   OH231489   2.079   0.938  13.600  0.3097 -0.0930 -0.2468
 3333TIP3    H131490   2.119   1.021  13.573  3.1534 -1.5782 -1.0541
 3333TIP3    H231491   2.031   0.907  13.524  0.4871  0.1087 -0.4396
 3334TIP3   OH231492   4.870   3.432  12.248  0.3659 -0.7938  0.3473
 3334TIP3    H131493   4.798   3.389  12.295 -0.2095 -0.5798 -0.3276
 3334TIP3    H231494   4.947   3.379  12.271 -0.2852 -2.0694 -0.2805
 3335TIP3   OH231495   3.276   3.487   0.754  0.4583  0.4926 -0.0467
 3335TIP3    H131496   3.341   3.530   0.698  2.1077 -0.0951  1.3442
 3335TIP3    H231497   3.197   3.485   0.700  1.8480  0.2841 -2.2299
 3336TIP3   OH231498   0.149   3.971   4.099 -0.0031 -0.1231  0.0513
 3336TIP3    H131499   0.101   3.908   4.152  0.5693 -0.7751 -0.1975
 3336TIP3    H231500   0.228   3.991   4.149 -0.7194  1.2845  0.6643
 3337TIP3   OH231501   3.391   4.769  16.197 -0.0865  0.7320 -0.3783
 3337TIP3    H131502   3.335   4.711  16.250  0.4635 -0.7587 -1.3610
 3337TIP3    H231503   3.475   4.767  16.242 -0.8019  3.2299  1.2804
 3338TIP3   OH231504   3.226   2.659  16.315  0.8850  0.0953  0.0688
 3338TIP3    H131505   3.231   2.744  16.357 -0.4180 -0.8425  2.2409
 3338TIP3    H231506   3.137   2.628  16.331  1.7891 -2.3695  0.8200
 3339TIP3   OH231507   0.338   3.450   0.818  0.2277  0.0443  0.2461
 3339TIP3    H131508   0.297   3.383   0.873 -0.1862 -0.1821 -0.3340
 3339TIP3    H231509   0.277   3.462   0.746  1.5819 -0.9104 -1.0998
 3340TIP3   OH231510   4.844   0.699   5.959  1.1234  0.0582 -0.0730
 3340TIP3    H131511   4.809   0.647   5.887  0.2230  0.9746 -0.3277
 3340TIP3    H231512   4.800   0.784   5.950 -1.8847 -0.8498  3.6614
 3341TIP3   OH231513   5.832   3.967  12.601  0.0089  0.2863 -0.3015
 3341TIP3    H131514   5.838   4.059  12.575  0.0481  0.3587 -0.0350
 3341TIP3    H231515   5.832   3.919  12.518  0.2436  0.5118 -0.4330
 3342TIP3   OH231516   0.159   5.874  12.695 -0.2123  0.2509  0.2859
 3342TIP3    H131517   0.151   5.781  12.718 -2.9060 -0.0457 -1.3984
 3342TIP3    H231518   0.246   5.899  12.727  1.0212 -3.0759 -0.0428
 3343TIP3   OH231519   1.714   3.430  15.840 -0.0307  0.1782  0.1752
 3343TIP3    H131520   1.687   3.445  15.750 -1.3656 -0.9110  0.3535
 3343TIP3    H231521   1.803   3.395  15.834 -0.2438 -0.2184 -0.7460
 3344TIP3   OH231522   0.284   2.194   0.881 -0.0385  0.1106 -1.5107
 3344TIP3    H131523   0.374   2.228   0.884 -0.7073  1.9385 -1.2143
 3344TIP3    H231524   0.277   2.154   0.795  1.8371 -2.4526 -0.6224
 3345TIP3   OH231525   1.406   1.309   0.615  0.0198 -0.1476  0.2492
 3345TIP3    H131526   1.393   1.382   0.554 -0.4298  0.1225  0.6661
 3345TIP3    H231527   1.382   1.231   0.563  2.1951 -0.2175 -0.7714
 3346TIP3   OH231528   6.765   1.799   1.564  0.0365  0.0408 -0.1062
 3346TIP3    H131529   6.700   1.782   1.496  0.0071 -0.8719  0.1360
 3346TIP3    H231530   6.712   1.817   1.642  0.0511 -1.1509  0.2001
 3347TIP3   OH231531   6.618   4.801  11.657  0.8306  0.0549  0.2801
 3347TIP3    H131532   6.532   4.761  11.670 -0.1321  1.4308 -1.4366
 3347TIP3    H231533   6.638   4.841  11.742  0.0603 -0.7771  0.8798
 3348TIP3   OH231534   0.540   3.931   3.071 -0.6938 -0.1895  0.4056
 3348TIP3    H131535   0.508   4.022   3.064  0.7107  0.4016  1.2558
 3348TIP3    H231536   0.584   3.915   2.987 -2.7355 -0.8729 -0.6148
 3349TIP3   OH231537   2.593   5.118  12.249  0.4569  0.1720 -0.2570
 3349TIP3    H131538   2.609   5.052  12.316  1.5121  0.9695  0.2984
 3349TIP3    H231539   2.538   5.183  12.292  0.6926  0.4179 -0.3263
 3350TIP3   OH231540   6.439   3.547   3.729 -0.4130  0.0741  0.1919
 3350TIP3    H131541   6.470   3.485   3.795  1.0233 -0.3106 -0.7993
 3350TIP3    H231542   6.429   3.495   3.650 -0.3960  0.8642 -0.3407
 3351TIP3   OH231543   1.448   6.469  13.562  0.1300  0.0581  0.6719
 3351TIP3    H131544   1.393   6.525  13.507 -0.0735 -2.3099 -1.7556
 3351TIP3    H231545   1.503   6.530  13.612  2.9438  2.6768 -4.7550
 3352TIP3   OH231546   1.445   3.351  10.425 -0.4976 -0.2141 -0.0479
 3352TIP3    H131547   1.486   3.269  10.452 -1.6552 -0.3724  1.4106
 3352TIP3    H231548   1.457   3.355  10.330  3.5125  0.1613  0.3069
 3353TIP3   OH231549   6.782   2.959   3.189 -0.0556  0.2389 -0.3871
 3353TIP3    H131550   6.725   2.883   3.177  1.4786 -0.8066 -1.3944
 3353TIP3    H231551   6.808   2.956   3.282 -0.6657  0.0401 -0.2205
 3354TIP3   OH231552   6.775   0.042   4.924  0.1350  0.0625  0.1213
 3354TIP3    H131553   6.761   0.062   5.017  1.8423 -0.8630  0.6115
 3354TIP3    H231554   6.837   0.109   4.895  0.3561 -0.2298 -0.0856
 3355TIP3   OH231555   6.439   4.200   1.854 -0.1820  0.4816 -0.3277
 3355TIP3    H131556   6.385   4.235   1.783 -0.7420 -2.5175 -1.5430
 3355TIP3    H231557   6.376   4.171   1.919  0.2579  1.4942  0.5766
 3356TIP3   OH231558   3.314   4.254   5.897 -0.3239  0.5200  0.6388
 3356TIP3    H131559   3.375   4.268   5.825 -0.4695  1.4900  0.6890
 3356TIP3    H231560   3.361   4.284   5.975  0.3004 -1.6800  1.1575
 3357TIP3   OH231561   0.439   4.645   0.557  0.2814  0.5262 -0.0560
 3357TIP3    H131562   0.409   4.560   0.525 -0.0593  0.1696  1.1511
 3357TIP3    H231563   0.385   4.663   0.633  2.0205  0.6310  1.2224
 3358TIP3   OH231564   3.974   1.757  15.435  0.2262 -0.4917 -0.0881
 3358TIP3    H131565   3.912   1.711  15.490  0.2541  0.4462  0.7731
 3358TIP3    H231566   4.004   1.692  15.371 -1.4522 -1.0057 -0.3790
 3359TIP3   OH231567   1.845   0.243  17.018 -0.4944 -0.1457  0.2780
 3359TIP3    H131568   1.926   0.202  17.049  0.2063 -1.3840 -2.8655
 3359TIP3    H231569   1.776   0.181  17.040 -0.1279 -0.6387  0.0513
 3360TIP3   OH231570   4.581   4.087  15.969 -0.3806 -0.2734 -0.3076
 3360TIP3    H131571   4.506   4.118  15.919 -0.5406  1.0973  0.7152
 3360TIP3    H231572   4.543   4.039  16.043 -0.1546 -2.0152 -1.2705
 3361TIP3   OH231573   2.398   1.840   1.078  0.1902  0.2601  0.2835
 3361TIP3    H131574   2.469   1.793   1.035  0.8857 -0.0688  1.7163
 3361TIP3    H231575   2.330   1.848   1.011  2.3455  2.4698 -1.8342
 3362TIP3   OH231576   2.333   1.850   4.356 -0.2129 -0.5061 -0.4913
 3362TIP3    H131577   2.351   1.845   4.450 -1.1557 -1.0935 -0.3307
 3362TIP3    H231578   2.238   1.862   4.351 -0.4704 -2.5864 -1.3995
 3363TIP3   OH231579   6.059   5.748  16.279 -0.1208  0.0435  0.1010
 3363TIP3    H131580   5.992   5.809  16.310 -0.0717  0.4647 -0.5975
 3363TIP3    H231581   6.122   5.804  16.233 -0.0103 -0.5163 -0.4384
 3364TIP3   OH231582   1.531   2.726  14.426 -0.3260 -0.0279 -0.6619
 3364TIP3    H131583   1.487   2.644  14.403 -1.2074  0.6683 -1.5527
 3364TIP3    H231584   1.460   2.789  14.437  0.2478  0.3448  1.3463
 3365TIP3   OH231585   0.052   1.938   0.444 -0.0682 -0.4843  0.4746
 3365TIP3    H131586   0.013   2.025   0.448  1.0886  0.0771 -0.0217
 3365TIP3    H231587   0.097   1.928   0.528  1.3794  0.1877 -0.1923
 3366TIP3   OH231588   4.453   5.278  11.897  0.2690  0.2744  0.0176
 3366TIP3    H131589   4.434   5.321  11.980  0.9645 -1.5144  1.1538
 3366TIP3    H231590   4.427   5.187  11.910  0.1909 -0.0019 -1.8074
 3367TIP3   OH231591   0.069   2.686   4.020  0.5470  0.1522  0.8979
 3367TIP3    H131592   0.055   2.663   3.928  0.9034  0.4118  0.7789
 3367TIP3    H231593   0.133   2.622   4.051  1.4348  0.8836  0.6038
 3368TIP3   OH231594   0.431   4.215   4.865 -0.1010 -0.0661 -0.0628
 3368TIP3    H131595   0.499   4.243   4.927 -0.2866  1.2070 -0.4057
 3368TIP3    H231596   0.479   4.180   4.790  0.1308 -1.0512  0.5196
 3369TIP3   OH231597   3.141   5.488  14.113  0.4435  0.3497  0.5926
 3369TIP3    H131598   3.101   5.575  14.112 -0.5469 -0.0893 -0.0105
 3369TIP3    H231599   3.096   5.442  14.184  2.0206  0.7785  1.9108
 3370TIP3   OH231600   3.874   1.029   3.009  0.0271 -0.0338  0.3611
 3370TIP3    H131601   3.820   0.952   3.031  0.2903 -0.1953  0.4388
 3370TIP3    H231602   3.821   1.104   3.037 -0.1421 -0.1930  0.4739
 3371TIP3   OH231603   3.807   5.441   5.761  0.2882  0.9099 -0.9000
 3371TIP3    H131604   3.737   5.408   5.705  0.1557 -1.9213  0.7497
 3371TIP3    H231605   3.762   5.484   5.834  0.3450  0.8827 -0.8487
 3372TIP3   OH231606   1.752   2.554  16.868  0.6184 -0.5936 -0.0357
 3372TIP3    H131607   1.688   2.579  16.934 -0.0036  0.0112 -0.8489
 3372TIP3    H231608   1.727   2.466  16.842  0.4927 -0.5931  0.0819
 3373TIP3   OH231609   3.951   6.622  12.557  0.2194 -0.0930  0.1925
 3373TIP3    H131610   3.857   6.616  12.540 -0.0005  1.5012  0.7405
 3373TIP3    H231611   3.970   6.715  12.561  2.1007 -0.3267 -1.2467
 3374TIP3   OH231612   1.140   5.504   2.309  0.4885  0.2040  0.1619
 3374TIP3    H131613   1.195   5.489   2.386  0.0945  1.8901  0.8049
 3374TIP3    H231614   1.058   5.539   2.343 -1.2715 -2.6265 -0.7360
 3375TIP3   OH231615   1.831   2.581   5.626 -0.0332 -0.6342 -1.0450
 3375TIP3    H131616   1.755   2.553   5.676  1.2846 -1.2435  0.7460
 3375TIP3    H231617   1.884   2.630   5.688  2.4095 -2.7028 -1.3298
 3376TIP3   OH231618   5.286   1.931  14.006 -0.4347  0.4685 -0.0046
 3376TIP3    H131619   5.245   2.004  14.052 -1.6577 -1.0610  1.4616
 3376TIP3    H231620   5.213   1.877  13.976  0.4553 -0.4709 -0.5421
 3377TIP3   OH231621   3.923   6.114  16.021 -0.0190  0.4991 -0.0031
 3377TIP3    H131622   3.875   6.078  16.096  0.0440  2.7182  1.1852
 3377TIP3    H231623   4.015   6.092  16.039 -0.1535 -0.2923 -0.2393
 3378TIP3   OH231624   0.920   2.800  17.192  0.1474 -0.5615  0.6394
 3378TIP3    H131625   0.974   2.877  17.212  0.0717  0.0577 -1.2795
 3378TIP3    H231626   0.844   2.809  17.249  0.7828  0.0294  1.4246
 3379TIP3   OH231627   4.847   0.830   1.009  0.0432 -0.3771  0.1793
 3379TIP3    H131628   4.756   0.809   0.987 -0.2265 -0.0158  0.9066
 3379TIP3    H231629   4.855   0.805   1.101 -0.0164  1.7727  0.8138
 3380TIP3   OH231630   1.801   3.316  13.722 -0.3992 -0.6910 -0.0351
 3380TIP3    H131631   1.880   3.266  13.744 -1.0109 -2.1274 -0.9791
 3380TIP3    H231632   1.834   3.398  13.686  0.6327  0.1056  2.4607
 3381TIP3   OH231633   5.137   3.507   2.085  0.1336 -0.3048 -0.0100
 3381TIP3    H131634   5.156   3.423   2.128  0.9524 -0.0261  0.1989
 3381TIP3    H231635   5.118   3.483   1.994  3.6039 -0.5161 -0.8293
 3382TIP3   OH231636   6.569   2.532  11.842  0.0883 -0.2928  0.4757
 3382TIP3    H131637   6.520   2.463  11.886 -0.6313 -0.8173 -1.0880
 3382TIP3    H231638   6.573   2.603  11.906 -0.6568 -1.1250  1.4794
 3383TIP3   OH231639   6.225   1.486   0.746 -0.5532 -0.0916 -0.0546
 3383TIP3    H131640   6.207   1.442   0.664  0.2429 -0.5013 -0.0204
 3383TIP3    H231641   6.313   1.522   0.735  0.3139 -1.6715  1.2316
 3384TIP3   OH231642   1.907   6.568   1.739  0.3971  0.1500 -0.4628
 3384TIP3    H131643   1.975   6.634   1.731 -0.1830  1.2217  2.3469
 3384TIP3    H231644   1.955   6.485   1.738  1.4254  0.7215 -1.2099
 3385TIP3   OH231645   6.736   4.812  15.493 -0.1527 -0.4251  0.2226
 3385TIP3    H131646   6.646   4.813  15.462  0.1707  0.8819 -0.7614
 3385TIP3    H231647   6.729   4.794  15.587 -1.5315  0.7974  0.3935
 3386TIP3   OH231648   4.123   4.970  13.732  0.3968  0.3562 -0.1071
 3386TIP3    H131649   4.091   4.881  13.748  2.3259 -0.6052 -1.2493
 3386TIP3    H231650   4.163   4.997  13.815 -0.0505  0.1213  0.1918
 3387TIP3   OH231651   4.721   1.713   3.439 -0.0441  0.4021  0.5228
 3387TIP3    H131652   4.669   1.697   3.517 -0.3266 -1.0088  0.0684
 3387TIP3    H231653   4.673   1.780   3.391 -0.4295  0.4917  1.0314
 3388TIP3   OH231654   1.614   0.369   3.903  0.5161 -0.4656 -0.0187
 3388TIP3    H131655   1.523   0.367   3.873  0.5399 -2.6924 -0.1148
 3388TIP3    H231656   1.640   0.277   3.907  3.0595  0.1319 -0.8589
 3389TIP3   OH231657   4.260   4.875   4.176 -0.7931  0.2430  0.0064
 3389TIP3    H131658   4.202   4.807   4.140 -1.4042  0.4238  0.6329
 3389TIP3    H231659   4.200   4.938   4.215 -0.1577  0.2941  0.9203
 3390TIP3   OH231660   3.706   6.077  15.785 -0.3527 -0.4770 -0.0975
 3390TIP3    H131661   3.748   6.088  15.870 -0.1364 -1.7900 -0.0119
 3390TIP3    H231662   3.766   6.119  15.723 -0.4426  0.3586  0.3685
 3391TIP3   OH231663   5.336   1.345   3.796  0.1326 -0.2762 -0.3361
 3391TIP3    H131664   5.393   1.292   3.740  0.4089  0.2122 -0.5251
 3391TIP3    H231665   5.389   1.362   3.874  0.2575  0.1797 -0.5131
 3392TIP3   OH231666   6.494   2.520   1.529  0.1355 -0.4901  0.4577
 3392TIP3    H131667   6.503   2.427   1.508  0.8761 -0.0767 -1.2206
 3392TIP3    H231668   6.404   2.541   1.507  0.2714 -0.5760 -0.1929
 3393TIP3   OH231669   3.266   5.993   5.849 -0.1697  0.4086  0.7564
 3393TIP3    H131670   3.288   5.979   5.757 -1.3547 -1.5531  0.7207
 3393TIP3    H231671   3.313   6.073   5.873  0.8031  0.5188 -1.3165
 3394TIP3   OH231672   2.522   4.874   2.686  0.2463  0.1557 -0.3107
 3394TIP3    H131673   2.580   4.946   2.709  1.0359 -0.2561 -0.9845
 3394TIP3    H231674   2.448   4.882   2.747  1.0230  0.6623  0.5830
 3395TIP3   OH231675   2.424   5.351   5.599  0.8437  0.1120 -0.1186
 3395TIP3    H131676   2.442   5.321   5.689  1.0517 -1.6824 -0.7125
 3395TIP3    H231677   2.401   5.271   5.552  0.5926  1.0522 -1.6402
 3396TIP3   OH231678   1.239   2.937   2.084 -0.2073  0.3271 -0.3216
 3396TIP3    H131679   1.174   2.958   2.151 -0.6551  2.1827 -1.2830
 3396TIP3    H231680   1.321   2.928   2.133 -1.0568 -1.6501  0.8511
 3397TIP3   OH231681   5.453   4.615  16.108  0.0032 -0.2530 -0.2722
 3397TIP3    H131682   5.465   4.650  16.196  0.0228 -2.3111  0.6176
 3397TIP3    H231683   5.377   4.661  16.074 -0.9334 -0.4668  1.4279
 3398TIP3   OH231684   0.934   4.429  15.633 -0.3790 -0.2575  0.1513
 3398TIP3    H131685   1.009   4.487  15.619 -0.7545  0.5127  1.1745
 3398TIP3    H231686   0.871   4.454  15.564 -0.2104 -0.0167  0.0827
 3399TIP3   OH231687   4.744   1.050   0.342 -0.1682 -0.0498 -0.0157
 3399TIP3    H131688   4.668   1.096   0.377  0.2029 -0.7841  1.8836
 3399TIP3    H231689   4.711   1.003   0.266 -1.8388 -0.9268  1.1826
 3400TIP3   OH231690   6.633   2.604  13.460  0.4027  0.8209 -0.2058
 3400TIP3    H131691   6.543   2.627  13.484  0.2661  0.3068 -0.2116
 3400TIP3    H231692   6.653   2.528  13.515  0.9515  1.1304  0.0341
 3401TIP3   OH231693   2.700   0.185   3.460  0.1397 -0.2974 -0.3039
 3401TIP3    H131694   2.633   0.143   3.513 -1.6555  1.9090 -0.6416
 3401TIP3    H231695   2.683   0.279   3.470  2.1833  0.3050 -1.7250
 3402TIP3   OH231696   2.882   0.730   4.330 -0.0192  0.6784  0.3799
 3402TIP3    H131697   2.841   0.791   4.269 -0.3146  0.7271  0.6238
 3402TIP3    H231698   2.854   0.759   4.417 -0.1978  0.1770  0.4974
 3403TIP3   OH231699   1.038   4.493   6.106 -0.5449  0.3247 -0.0941
 3403TIP3    H131700   1.058   4.400   6.116  0.3475  0.4841 -0.3174
 3403TIP3    H231701   1.114   4.529   6.060 -2.0616  0.6212 -2.5916
 3404TIP3   OH231702   1.801   0.023  16.776  0.2151  0.0091 -0.3394
 3404TIP3    H131703   1.779   0.116  16.769  2.1083  0.4242 -1.6968
 3404TIP3    H231704   1.757  -0.006  16.856 -2.2755  1.4899 -1.0396
 3405TIP3   OH231705   5.390   6.790   3.993  0.3036  0.5628 -0.6635
 3405TIP3    H131706   5.395   6.751   3.906  0.8876 -1.0435  0.0451
 3405TIP3    H231707   5.471   6.763   4.036  0.0319  1.3361  0.3712
 3406TIP3   OH231708   4.930   5.761   4.893 -0.1638 -0.0472  0.3835
 3406TIP3    H131709   4.997   5.781   4.828 -1.3868  1.4208 -0.5139
 3406TIP3    H231710   4.949   5.819   4.967 -0.5630  0.5470  0.0279
 3407TIP3   OH231711   2.080   3.073  16.983  0.1254 -0.0718 -0.0367
 3407TIP3    H131712   2.145   3.079  17.053  0.0417 -1.0461  0.1317
 3407TIP3    H231713   2.011   3.017  17.018  0.0368 -0.4929 -0.8594
 3408TIP3   OH231714   5.216   5.143  15.101 -0.0081 -0.9145  0.2521
 3408TIP3    H131715   5.146   5.176  15.045  0.3916  0.2688  0.4326
 3408TIP3    H231716   5.220   5.049  15.081 -1.1297 -0.8615 -0.3064
 3409TIP3   OH231717   5.628   5.836   5.014  0.4138  0.1858  0.6856
 3409TIP3    H131718   5.713   5.870   4.987  0.7949 -2.1253 -1.2577
 3409TIP3    H231719   5.617   5.755   4.965 -2.5997  0.0175  1.4431
 3410TIP3   OH231720   3.859   6.608  12.202 -0.1019 -0.8974 -0.4443
 3410TIP3    H131721   3.874   6.617  12.296 -1.1649  1.7571 -0.4352
 3410TIP3    H231722   3.944   6.627  12.162  0.1075 -0.9696 -0.0408
 3411TIP3   OH231723   6.612   2.261  11.414 -0.3024 -0.2661 -0.3529
 3411TIP3    H131724   6.674   2.249  11.487 -1.9005  1.8367  1.4944
 3411TIP3    H231725   6.604   2.174  11.376 -0.6666 -1.9624  3.1375
 3412TIP3   OH231726   6.392   4.643   4.519 -0.1027 -0.1683 -0.0737
 3412TIP3    H131727   6.313   4.589   4.513  0.1891 -0.7153  0.8071
 3412TIP3    H231728   6.460   4.582   4.549  0.5465  0.3954 -0.3782
 3413TIP3   OH231729   1.288   1.186  12.205 -0.0190 -0.2475  0.5263
 3413TIP3    H131730   1.337   1.147  12.133 -0.3765 -0.1181  0.2097
 3413TIP3    H231731   1.290   1.280  12.187 -2.7066 -0.3654 -1.0491
 3414TIP3   OH231732   0.568   2.371  14.522  0.3138  0.2201  0.5138
 3414TIP3    H131733   0.639   2.367  14.457 -1.0423  0.9610 -1.1082
 3414TIP3    H231734   0.561   2.282  14.556 -0.0218 -0.6570 -1.6446
 3415TIP3   OH231735   2.115   2.172   1.969  0.1344  0.3006  0.2116
 3415TIP3    H131736   2.034   2.127   1.944  0.0447  0.4096  0.3085
 3415TIP3    H231737   2.108   2.185   2.063  0.1860  0.4673  0.1926
 3416TIP3   OH231738   6.662   0.814   2.121 -0.3512  0.3569 -0.0606
 3416TIP3    H131739   6.675   0.724   2.093 -0.4041  0.6112 -0.9140
 3416TIP3    H231740   6.640   0.862   2.041 -1.5734  0.8872  0.5660
 3417TIP3   OH231741   3.432   4.192  16.506  0.9905  0.4225 -0.3409
 3417TIP3    H131742   3.440   4.220  16.597  3.1034 -0.0872 -0.3148
 3417TIP3    H231743   3.438   4.273  16.455  1.1942  0.5769 -0.0727
 3418TIP3   OH231744   2.626   6.180  13.171  0.7986 -0.0129 -0.3711
 3418TIP3    H131745   2.587   6.195  13.257  0.9387  0.6212 -0.4150
 3418TIP3    H231746   2.661   6.091  13.176 -0.0507 -0.3359 -0.1041
 3419TIP3   OH231747   2.023   2.307  11.678 -0.1047  0.2221 -0.3616
 3419TIP3    H131748   2.111   2.307  11.641  1.2101  0.7989  2.4856
 3419TIP3    H231749   1.987   2.393  11.654  0.4164  0.2923 -0.9025
 3420TIP3   OH231750   1.123   3.423   2.743  0.5582 -0.1756  0.1821
 3420TIP3    H131751   1.166   3.501   2.777  0.0714 -0.1203  0.6842
 3420TIP3    H231752   1.192   3.378   2.693  0.0018  2.3959 -3.3175
 3421TIP3   OH231753   3.822   4.363  14.527  0.3457  0.3021 -0.1313
 3421TIP3    H131754   3.811   4.325  14.440  2.8896  0.4856 -0.5892
 3421TIP3    H231755   3.773   4.304  14.585 -1.7957  0.4470 -1.6812
 3422TIP3   OH231756   3.733   3.968   3.203 -0.5345  0.1318  0.8744
 3422TIP3    H131757   3.704   4.030   3.137  0.2723  1.5092  1.7697
 3422TIP3    H231758   3.653   3.927   3.234 -0.9873  0.0031 -0.4160
 3423TIP3   OH231759   1.588   1.368   3.934 -0.0321  0.0657  0.4801
 3423TIP3    H131760   1.630   1.448   3.967  0.9913 -0.9254  1.7145
 3423TIP3    H231761   1.514   1.354   3.993 -2.3251  1.8643 -1.7540
 3424TIP3   OH231762   6.767   6.010  15.643 -0.1964  0.3502  0.3264
 3424TIP3    H131763   6.830   5.968  15.701  0.6584  1.8797  0.5594
 3424TIP3    H231764   6.790   5.979  15.556 -1.2352 -1.6499  0.6950
 3425TIP3   OH231765   0.778   0.598   4.997 -0.2599 -0.6161  0.0064
 3425TIP3    H131766   0.713   0.654   4.954  0.0940 -0.5481 -0.4450
 3425TIP3    H231767   0.732   0.563   5.073 -0.6504 -0.1207  0.0080
 3426TIP3   OH231768   1.900   0.983  12.967 -0.7187 -0.0262  0.0899
 3426TIP3    H131769   1.890   1.062  13.021  0.0955  0.9451 -1.1378
 3426TIP3    H231770   1.890   1.014  12.877  3.5330 -0.4943 -0.7635
 3427TIP3   OH231771   1.782   2.434  11.571  0.2405 -0.2470  0.0073
 3427TIP3    H131772   1.747   2.354  11.611  0.6345 -0.1817  0.4864
 3427TIP3    H231773   1.767   2.421  11.477 -1.1134 -0.1972  0.1868
 3428TIP3   OH231774   6.296   3.535  12.819 -0.2763 -0.1910  0.2979
 3428TIP3    H131775   6.389   3.531  12.842  0.1820 -1.4232 -1.6004
 3428TIP3    H231776   6.282   3.627  12.794  0.4453 -0.0192  0.4972
 3429TIP3   OH231777   0.403   4.446  15.918  0.3309  0.3377  0.2894
 3429TIP3    H131778   0.414   4.539  15.939 -1.0238  0.9747 -1.5587
 3429TIP3    H231779   0.441   4.437  15.831 -0.5980 -0.5778 -0.0357
 3430TIP3   OH231780   3.676   4.693  15.913  0.2872  0.3744 -0.0539
 3430TIP3    H131781   3.659   4.767  15.855  0.1105  0.9726  0.7401
 3430TIP3    H231782   3.593   4.646  15.917  0.3282  0.2716 -0.3555
 3431TIP3   OH231783   0.908   4.929   5.013 -0.5522 -0.2673 -0.2248
 3431TIP3    H131784   0.886   4.944   5.105 -2.0699 -0.9199 -0.4552
 3431TIP3    H231785   0.992   4.884   5.016 -0.2416  0.3326  0.8010
 3432TIP3   OH231786   3.810   4.635  16.515  0.1097 -0.1724 -0.6244
 3432TIP3    H131787   3.887   4.582  16.536 -0.1181 -1.4975 -2.8447
 3432TIP3    H231788   3.736   4.583  16.544 -0.0504  0.6394  0.5359
 3433TIP3   OH231789   3.536   4.597  11.633 -0.5300  0.2320 -0.2690
 3433TIP3    H131790   3.529   4.684  11.673 -1.7554 -0.4049  0.9796
 3433TIP3    H231791   3.467   4.595  11.567 -1.6581 -0.3525  0.8795
 3434TIP3   OH231792   5.341   1.574  16.459  0.5617  0.3422 -0.2623
 3434TIP3    H131793   5.417   1.630  16.450  1.4237 -0.8826 -0.8899
 3434TIP3    H231794   5.274   1.615  16.405  0.9637  1.0892 -0.2016
 3435TIP3   OH231795   6.639   4.308   0.471  0.0984  0.2830 -0.1520
 3435TIP3    H131796   6.560   4.311   0.417 -0.6347 -3.0339  0.4823
 3435TIP3    H231797   6.607   4.316   0.561  0.4608 -0.7674  0.0914
 3436TIP3   OH231798   1.665   5.600  13.551  0.8145  0.7362 -0.7258
 3436TIP3    H131799   1.635   5.517  13.588  0.4992  0.6442 -1.1856
 3436TIP3    H231800   1.670   5.584  13.457 -3.2398  2.3923 -1.4234
 3437TIP3   OH231801   3.302   2.720   2.073 -0.3354 -0.0902  0.5495
 3437TIP3    H131802   3.263   2.741   1.988  0.9976 -0.1640 -0.1018
 3437TIP3    H231803   3.252   2.773   2.136 -1.8871 -0.6677 -0.1534
 3438TIP3   OH231804   0.330   1.812  17.172  0.0634 -0.0129 -0.1203
 3438TIP3    H131805   0.306   1.726  17.137 -1.0112  0.4493 -0.5411
 3438TIP3    H231806   0.257   1.869  17.149 -0.5527  0.4114  2.5447
 3439TIP3   OH231807   4.353   2.521  13.110  0.6268 -0.3528 -0.0572
 3439TIP3    H131808   4.298   2.496  13.036 -2.3834 -0.5060  2.0587
 3439TIP3    H231809   4.381   2.610  13.090 -0.7599 -0.1050 -1.0427
 3440TIP3   OH231810   4.843   6.390  14.876 -0.1195  0.2650  0.3155
 3440TIP3    H131811   4.796   6.452  14.932  2.3921  2.7983 -0.1238
 3440TIP3    H231812   4.829   6.422  14.787  0.7640 -0.1116  0.0264
 3441TIP3   OH231813   1.288   2.059  10.779  0.3149 -0.3673  0.1281
 3441TIP3    H131814   1.302   2.016  10.695 -0.2120 -1.1236  0.4171
 3441TIP3    H231815   1.221   2.125  10.762  1.0241  0.2595 -0.2860
 3442TIP3   OH231816   5.625   2.100   1.385  0.2737 -1.3129 -0.1842
 3442TIP3    H131817   5.620   2.147   1.468 -0.5041 -1.6939 -0.0051
 3442TIP3    H231818   5.694   2.145   1.336 -1.3034  0.8631 -0.5552
 3443TIP3   OH231819   1.265   3.034   5.122 -0.5552  0.3837  0.5575
 3443TIP3    H131820   1.331   3.098   5.147 -0.9858  0.3389  1.8649
 3443TIP3    H231821   1.315   2.957   5.095  0.1191  1.9955 -3.5965
 3444TIP3   OH231822   0.881   2.540  13.956 -0.0263  0.3446  0.7545
 3444TIP3    H131823   0.952   2.478  13.971  1.4047  2.0294  1.2818
 3444TIP3    H231824   0.870   2.586  14.040 -1.1614  0.7095  0.4332
 3445TIP3   OH231825   6.060   5.086  14.825  0.1446 -0.0369  0.3540
 3445TIP3    H131826   5.997   5.040  14.770  0.6657 -0.3704  0.0284
 3445TIP3    H231827   6.136   5.028  14.829 -0.9713 -1.5281  3.9581
 3446TIP3   OH231828   3.482   1.950  10.590  0.0614  1.1349  0.0501
 3446TIP3    H131829   3.513   2.020  10.533 -0.4197  2.0439  0.8848
 3446TIP3    H231830   3.550   1.941  10.657 -0.8676  2.3249  1.2005
 3447TIP3   OH231831   1.199   5.075  17.275 -0.2945  0.1383 -0.6693
 3447TIP3    H131832   1.281   5.026  17.266 -0.3485 -0.3960  1.2922
 3447TIP3    H231833   1.221   5.163  17.244  2.1449  1.0099  2.8539
 3448TIP3   OH231834   2.417   3.391   4.672 -0.4891 -0.1470 -0.1950
 3448TIP3    H131835   2.498   3.432   4.700 -0.8193  0.7703 -0.5369
 3448TIP3    H231836   2.349   3.453   4.698 -1.3080 -1.7802  1.9247
 3449TIP3   OH231837   1.297   5.628   4.649  0.7376  0.2919 -0.4308
 3449TIP3    H131838   1.264   5.718   4.650  0.2842  0.1820  1.8380
 3449TIP3    H231839   1.366   5.628   4.715  1.4059 -0.8149 -1.1064
 3450TIP3   OH231840   4.177   4.559  12.791  0.0687  0.6312  0.5254
 3450TIP3    H131841   4.172   4.526  12.701  0.5881  2.3825 -0.1880
 3450TIP3    H231842   4.251   4.511  12.829  1.7149  1.8956 -0.9272
 3451TIP3   OH231843   3.855   5.104  12.888 -0.5015 -0.4514 -0.1667
 3451TIP3    H131844   3.856   5.200  12.886  0.6088 -0.4553 -0.8819
 3451TIP3    H231845   3.946   5.080  12.901 -0.8811 -1.4195  0.8313
 3452TIP3   OH231846   5.685   4.152  15.542 -0.2823  0.3311 -0.1535
 3452TIP3    H131847   5.701   4.184  15.454  1.7854 -1.0619 -0.3745
 3452TIP3    H231848   5.620   4.211  15.579  0.5155  2.3427 -1.8079
 3453TIP3   OH231849   2.596   0.225   2.924  0.0186 -0.6436  0.4328
 3453TIP3    H131850   2.524   0.278   2.889 -0.2649 -0.7462  0.8598
 3453TIP3    H231851   2.593   0.144   2.873 -2.2765 -2.0620  2.6094
 3454TIP3   OH231852   1.366   2.231  13.086 -0.3653 -0.1553 -0.0817
 3454TIP3    H131853   1.422   2.277  13.149 -0.7088  2.5516 -1.5915
 3454TIP3    H231854   1.277   2.241  13.121 -0.3434 -0.5454  0.0854
 3455TIP3   OH231855   0.492   3.613   4.812 -0.0626  0.4265 -0.1144
 3455TIP3    H131856   0.417   3.577   4.766 -0.7036 -0.3797  1.4892
 3455TIP3    H231857   0.549   3.538   4.828  0.2395  0.7297  0.2508
 3456TIP3   OH231858   3.755   3.598  12.996  0.6899 -0.0497 -0.0167
 3456TIP3    H131859   3.745   3.619  13.089 -0.4944 -0.0930 -0.1211
 3456TIP3    H231860   3.727   3.506  12.989  0.2884  0.1015 -0.4864
 3457TIP3   OH231861   4.090   4.150  14.908  0.3144 -0.1364  0.1064
 3457TIP3    H131862   4.103   4.173  15.000 -0.8438  0.2397  0.1981
 3457TIP3    H231863   4.037   4.221  14.873 -1.1483 -1.3580 -0.2798
 3458TIP3   OH231864   2.332   4.178   0.508  0.3356  0.5812  0.0377
 3458TIP3    H131865   2.343   4.165   0.603 -0.7412 -0.9753 -0.0082
 3458TIP3    H231866   2.418   4.160   0.471  0.8698  1.6100  0.7481
 3459TIP3   OH231867   1.576   5.685   1.708 -0.1864 -0.3501  0.3109
 3459TIP3    H131868   1.646   5.622   1.726 -0.5022 -1.1896 -1.2619
 3459TIP3    H231869   1.617   5.771   1.723  0.8520 -0.8588  0.4881
 3460TIP3   OH231870   6.235   5.571   1.482 -0.4985  0.1202  0.2302
 3460TIP3    H131871   6.302   5.564   1.414 -0.6567  0.5460  0.0217
 3460TIP3    H231872   6.270   5.522   1.556  0.1003  0.4423  0.1642
 3461TIP3   OH231873   0.202   5.260   5.837 -0.0137 -0.1674  0.2669
 3461TIP3    H131874   0.213   5.197   5.766 -1.3885  1.1898 -1.2189
 3461TIP3    H231875   0.273   5.324   5.823  2.1059 -1.8408  2.4412
 3462TIP3   OH231876   1.653   4.297   4.366  0.2053 -0.2476  0.2619
 3462TIP3    H131877   1.599   4.318   4.290  0.4581  0.6803  0.3344
 3462TIP3    H231878   1.647   4.201   4.373  0.7739 -0.4319 -1.3656
 3463TIP3   OH231879   0.469   2.126   2.915  0.5081 -0.1443 -0.2037
 3463TIP3    H131880   0.534   2.138   2.846  0.1191  0.4610 -0.4769
 3463TIP3    H231881   0.470   2.032   2.933  0.0540 -0.4346 -1.5899
 3464TIP3   OH231882   0.516   3.108  16.206  0.6460  0.3671 -0.3705
 3464TIP3    H131883   0.459   3.184  16.218 -0.6831 -0.4383 -1.3102
 3464TIP3    H231884   0.534   3.076  16.294 -1.9051 -0.4482 -0.0705
 3465TIP3   OH231885   0.485   0.123  16.300 -0.4097 -0.2661 -0.0243
 3465TIP3    H131886   0.546   0.146  16.230 -0.7558 -0.4009 -0.3763
 3465TIP3    H231887   0.434   0.050  16.264  0.1244 -1.0441  0.7612
 3466TIP3   OH231888   1.651   5.432   4.193 -0.4781 -1.0279 -0.3374
 3466TIP3    H131889   1.613   5.357   4.148  0.1418 -3.6489  3.1002
 3466TIP3    H231890   1.583   5.459   4.255  0.1417 -0.1600 -0.0196
 3467TIP3   OH231891   2.833   2.246   0.956 -0.3204  0.2086 -0.2454
 3467TIP3    H131892   2.788   2.257   0.872 -0.5031 -0.6734 -0.2623
 3467TIP3    H231893   2.772   2.198   1.011  0.3837 -0.5506 -0.1004
 3468TIP3   OH231894   5.307   6.061  13.497 -0.0016 -0.1543 -0.0114
 3468TIP3    H131895   5.245   6.128  13.468  1.3666  1.2275  0.1281
 3468TIP3    H231896   5.351   6.032  13.417 -0.9440 -1.3029 -0.1418
 3469TIP3   OH231897   3.939   6.334   3.217 -0.4526 -0.1084  0.2456
 3469TIP3    H131898   3.858   6.312   3.172 -0.5978 -0.6858  0.7735
 3469TIP3    H231899   4.006   6.281   3.173 -0.5669 -0.5466  0.5921
 3470TIP3   OH231900   0.118   0.734   3.702  0.2519  0.0159 -0.0006
 3470TIP3    H131901   0.156   0.704   3.785  1.7010  0.6926 -0.3915
 3470TIP3    H231902   0.151   0.672   3.637 -0.9816 -0.5867 -0.0805
 3471TIP3   OH231903   6.672   2.745  13.148  0.3510 -0.1645  0.5125
 3471TIP3    H131904   6.643   2.740  13.239 -0.9663 -0.9370  0.0701
 3471TIP3    H231905   6.667   2.655  13.116  2.2901 -0.1673  0.0944
 3472TIP3   OH231906   4.281   3.108   3.118 -0.0608 -0.1837 -0.8815
 3472TIP3    H131907   4.233   3.044   3.171 -1.3316  1.0124 -0.5276
 3472TIP3    H231908   4.372   3.100   3.147 -0.3500 -1.1741 -0.1959
 3473TIP3   OH231909   3.247   3.116  13.715 -0.1387  0.5078  0.3837
 3473TIP3    H131910   3.195   3.049  13.760 -0.5569  0.5679 -0.0008
 3473TIP3    H231911   3.249   3.087  13.624  0.7229  0.3725  0.4384
 3474TIP3   OH231912   0.707   3.890   2.376 -0.0597 -0.0660 -0.2703
 3474TIP3    H131913   0.717   3.955   2.444 -1.0987 -0.4728  0.2857
 3474TIP3    H231914   0.624   3.848   2.394  0.9892 -2.1961 -0.0546
 3475TIP3   OH231915   1.941   0.178   1.860  0.1614 -0.4761 -0.3309
 3475TIP3    H131916   1.893   0.257   1.886  1.1734  0.3793 -0.9981
 3475TIP3    H231917   1.913   0.163   1.769  2.0619  0.7738 -1.1714
 3476TIP3   OH231918   6.190   0.688   4.557 -0.4589 -0.8051 -0.0575
 3476TIP3    H131919   6.242   0.722   4.630  2.2973 -0.1608 -2.1577
 3476TIP3    H231920   6.197   0.592   4.564 -0.1856 -0.7428  0.5017
 3477TIP3   OH231921   2.896   3.968  13.859 -0.0443  0.1208 -0.0566
 3477TIP3    H131922   2.942   4.052  13.866  1.8597 -0.9313  0.9430
 3477TIP3    H231923   2.934   3.926  13.782  0.5460 -0.6676  0.6450
 3478TIP3   OH231924   0.833   4.675   0.046  0.0934  0.1927 -0.6014
 3478TIP3    H131925   0.877   4.590   0.044 -1.2618 -0.5669  0.5826
 3478TIP3    H231926   0.903   4.739   0.030  1.4613 -1.0206  0.3858
 3479TIP3   OH231927   3.283   3.629  17.104  0.4951  0.0603 -0.0575
 3479TIP3    H131928   3.254   3.714  17.137  0.1220 -0.4048  0.8262
 3479TIP3    H231929   3.337   3.651  17.027 -0.7784  1.0086 -0.7120
 3480TIP3   OH231930   2.821   2.995  14.441 -0.1123 -0.1217  0.1298
 3480TIP3    H131931   2.744   2.986  14.498  0.4713  0.3998  1.0343
 3480TIP3    H231932   2.887   3.036  14.497  0.5233  0.3103 -0.9113
 3481TIP3   OH231933   1.236   0.847   4.070 -0.1012 -0.1203 -0.3348
 3481TIP3    H131934   1.157   0.886   4.032 -0.0229 -0.8901 -1.3340
 3481TIP3    H231935   1.284   0.813   3.995 -0.1693 -2.1139  0.4622
 3482TIP3   OH231936   2.634   2.393   4.709 -0.0522  0.1425 -0.6992
 3482TIP3    H131937   2.566   2.342   4.754 -0.4494 -0.2544 -1.7219
 3482TIP3    H231938   2.586   2.467   4.670  0.3972  0.8785  0.0994
 3483TIP3   OH231939   1.111   3.789  13.718  0.5974  0.3850 -0.4271
 3483TIP3    H131940   1.034   3.733  13.704 -3.2237  4.5640  1.3601
 3483TIP3    H231941   1.136   3.772  13.809  1.0085 -0.0720 -0.6207
 3484TIP3   OH231942   3.690   5.522   2.730  0.6920 -0.4476  0.4938
 3484TIP3    H131943   3.664   5.499   2.819 -1.1506  0.0840  0.1397
 3484TIP3    H231944   3.697   5.618   2.732 -1.7568 -0.1667 -0.4452
 3485TIP3   OH231945   5.328   5.008  15.942  0.5351  0.6447 -0.6765
 3485TIP3    H131946   5.416   5.025  15.976  1.1349 -1.7651 -0.8469
 3485TIP3    H231947   5.322   5.061  15.863  1.4132  1.6815 -0.0670
 3486TIP3   OH231948   6.038   5.410   0.626 -0.3774 -0.7140 -0.0693
 3486TIP3    H131949   6.036   5.318   0.654  0.0602 -0.1464  2.0548
 3486TIP3    H231950   6.051   5.459   0.707 -0.6854  1.2482 -1.1398
 3487TIP3   OH231951   5.543   2.706   0.347  0.1094  0.2635  1.1097
 3487TIP3    H131952   5.535   2.784   0.293  1.0348 -0.0987  0.4123
 3487TIP3    H231953   5.458   2.697   0.390  0.2596  2.0979  1.8434
 3488TIP3   OH231954   2.859   3.445  17.119 -0.3781 -0.1413  0.3793
 3488TIP3    H131955   2.837   3.364  17.165  0.3804 -0.3153  0.4500
 3488TIP3    H231956   2.916   3.417  17.047 -2.1077  0.0221 -1.1491
 3489TIP3   OH231957   5.239   0.851  16.692  0.0982  0.2450  0.0745
 3489TIP3    H131958   5.291   0.822  16.767  0.7624 -3.8228 -1.6894
 3489TIP3    H231959   5.149   0.853  16.724  0.5100 -0.1254  1.2935
 3490TIP3   OH231960   5.723   6.377  13.170 -0.0668  0.1351  0.1122
 3490TIP3    H131961   5.640   6.341  13.202  1.1827 -0.3125  3.2431
 3490TIP3    H231962   5.705   6.402  13.080 -3.4552 -0.3819  0.5013
 3491TIP3   OH231963   6.341   4.977   3.118  0.3903 -0.4561  0.7714
 3491TIP3    H131964   6.396   4.960   3.041  0.5153 -0.9809  0.9735
 3491TIP3    H231965   6.294   4.896   3.132  2.0443 -1.1905  2.6107
 3492TIP3   OH231966   6.768   2.125   0.700  0.2905 -0.5507  0.2249
 3492TIP3    H131967   6.860   2.118   0.676  0.2529 -3.1918  0.5837
 3492TIP3    H231968   6.731   2.187   0.637  2.0757 -0.2308 -0.5598
 3493TIP3   OH231969   1.003   2.988   1.072  0.1058  0.0447 -0.1145
 3493TIP3    H131970   0.968   2.947   1.151  3.4919 -0.5702  1.2492
 3493TIP3    H231971   1.003   3.082   1.091  1.1757 -0.1240  0.7976
 3494TIP3   OH231972   0.639   5.277  15.974 -0.0023  0.2618 -0.0689
 3494TIP3    H131973   0.584   5.264  15.896  0.7591  1.5709 -0.8768
 3494TIP3    H231974   0.711   5.215  15.963 -1.4405 -1.7433  1.1914
 3495TIP3   OH231975   0.232   0.443   1.317 -0.0825 -0.5233 -0.1373
 3495TIP3    H131976   0.138   0.445   1.335  0.1225  1.1147  0.9018
 3495TIP3    H231977   0.271   0.402   1.394  0.1888  0.2969  0.1714
 3496TIP3   OH231978   3.512   4.409  14.006 -0.1678 -0.1975 -0.9462
 3496TIP3    H131979   3.492   4.316  14.014 -1.2001  0.0092 -1.0149
 3496TIP3    H231980   3.439   4.445  13.955  0.5153  0.5444 -1.4259
 3497TIP3   OH231981   2.606   0.863  13.570 -0.1276  0.1866  0.6099
 3497TIP3    H131982   2.620   0.832  13.659  0.7630  1.9731  1.1439
 3497TIP3    H231983   2.681   0.921  13.552 -1.3914  1.5901 -0.4728
 3498TIP3   OH231984   3.889   6.751   3.460  0.5991 -0.2988  0.4042
 3498TIP3    H131985   3.942   6.729   3.537  1.1264  1.3996  0.5661
 3498TIP3    H231986   3.939   6.820   3.416  0.2028 -1.0836 -1.3611
 3499TIP3   OH231987   0.906   1.928  16.466 -0.7834 -1.0687  0.1514
 3499TIP3    H131988   0.863   1.849  16.501 -0.3367 -1.8983 -1.0909
 3499TIP3    H231989   0.999   1.911  16.477 -0.5966  1.3250  4.1635
 3500TIP3   OH231990   0.825   1.776   4.156 -0.2119 -0.3349 -0.4116
 3500TIP3    H131991   0.889   1.791   4.225 -0.5948 -1.6589  0.2600
 3500TIP3    H231992   0.809   1.862   4.119  2.4648 -0.0192 -1.0770
 3501TIP3   OH231993   4.822   6.111  16.679 -0.2419 -0.3978  0.2234
 3501TIP3    H131994   4.861   6.171  16.743  0.4763 -0.9096  0.2785
 3501TIP3    H231995   4.736   6.089  16.716 -0.3173  0.2170  0.4336
 3502TIP3   OH231996   4.967   3.174   5.137 -0.0320  0.0196  0.0247
 3502TIP3    H131997   4.890   3.119   5.127  1.5224 -2.1635 -0.5754
 3502TIP3    H231998   4.941   3.259   5.100 -1.6567 -1.1119 -1.5729
 3503TIP3   OH231999   0.171   0.453  11.117 -0.1519  0.2152  0.2757
 3503TIP3    H132000   0.201   0.544  11.124 -0.2907  0.2765  0.1130
 3503TIP3    H232001   0.089   0.460  11.067 -1.6542  0.3134  2.6031
 3504TIP3   OH232002   4.596   3.567  14.833 -0.2896 -0.0077  0.0104
 3504TIP3    H132003   4.554   3.622  14.900  1.0687  1.4848 -0.3030
 3504TIP3    H232004   4.592   3.619  14.753  0.8060 -0.4793 -0.3660
 3505TIP3   OH232005   2.879   6.186  16.726  0.2408 -0.1210  0.2895
 3505TIP3    H132006   2.818   6.161  16.795  0.4177 -2.1294 -0.2171
 3505TIP3    H232007   2.959   6.137  16.745  0.1125 -1.1469 -1.5867
 3506TIP3   OH232008   0.600   3.565   0.325 -0.2146 -0.2431  0.2524
 3506TIP3    H132009   0.594   3.470   0.334 -1.6463 -0.0941  1.1172
 3506TIP3    H232010   0.576   3.599   0.411 -2.3265  0.9569 -0.7266
 3507TIP3   OH232011   4.274   0.234   1.751  0.2593  0.2171  0.4828
 3507TIP3    H132012   4.342   0.253   1.686 -0.0594  0.1259  0.1131
 3507TIP3    H232013   4.313   0.170   1.809  1.8045  2.7862  2.4885
 3508TIP3   OH232014   5.337   5.055  13.945 -0.4401  0.0740 -0.3397
 3508TIP3    H132015   5.283   5.066  14.023 -0.0232 -0.4226  0.0177
 3508TIP3    H232016   5.314   5.130  13.889 -0.1764  0.8524  0.5798
 3509TIP3   OH232017   2.327   4.929  12.452 -0.4358  0.9750  0.2383
 3509TIP3    H132018   2.328   4.945  12.546  1.9328 -0.8153  0.5830
 3509TIP3    H232019   2.325   4.834  12.443 -0.9214  1.1134 -1.5564
 3510TIP3   OH232020   0.651   3.437  11.358  0.1083 -0.3347  0.2750
 3510TIP3    H132021   0.569   3.417  11.314 -0.7353  0.4678  1.4335
 3510TIP3    H232022   0.696   3.352  11.363  0.1463 -0.4887 -1.8695
 3511TIP3   OH232023   4.995   4.000   6.515 -0.7098 -0.6380 -0.1182
 3511TIP3    H132024   4.994   3.983   6.421  0.1477 -1.2237 -0.0332
 3511TIP3    H232025   5.041   3.925   6.553 -1.4849 -0.6588  0.8244
 3512TIP3   OH232026   6.219   3.342   0.743 -0.4790 -0.3597  0.1241
 3512TIP3    H132027   6.286   3.292   0.789 -0.3962 -1.1084 -0.7757
 3512TIP3    H232028   6.268   3.394   0.679 -0.8281 -3.3591 -2.8869
 3513TIP3   OH232029   6.146   4.930  16.451  0.0279 -0.1058  0.5696
 3513TIP3    H132030   6.087   4.882  16.393 -1.3134  1.7416  0.3140
 3513TIP3    H232031   6.182   4.999  16.397  0.4218  0.3455  1.3957
 3514TIP3   OH232032   5.529   2.697   2.389 -0.1973  0.2936  0.2984
 3514TIP3    H132033   5.535   2.666   2.480  2.0753 -1.0814 -0.2441
 3514TIP3    H232034   5.441   2.733   2.382 -0.8704 -0.6808  2.7065
 3515TIP3   OH232035   4.253   1.698  14.207  0.3688  0.1367  0.7868
 3515TIP3    H132036   4.165   1.724  14.180  0.7577  1.2355  0.5153
 3515TIP3    H232037   4.311   1.738  14.143  1.0773 -0.5274  0.9936
 3516TIP3   OH232038   2.414   5.464   2.527 -0.4841  0.0604  0.7129
 3516TIP3    H132039   2.329   5.457   2.484 -1.2963 -1.5908  2.4403
 3516TIP3    H232040   2.444   5.374   2.537  1.3532  0.5966  0.4065
 3517TIP3   OH232041   4.518   1.637  11.215  0.5515 -0.0248  0.7466
 3517TIP3    H132042   4.427   1.653  11.240  0.2037 -0.0474 -0.4491
 3517TIP3    H232043   4.568   1.705  11.260 -0.5156  2.4892 -1.6144
 3518TIP3   OH232044   0.862   5.917   5.332 -0.2759 -0.3027 -0.1021
 3518TIP3    H132045   0.888   5.921   5.240  0.8048 -0.6131  0.1793
 3518TIP3    H232046   0.910   5.988   5.373 -0.9091 -0.0379  0.2004
 3519TIP3   OH232047   3.772   1.187  16.728  0.2121 -0.3434 -0.6362
 3519TIP3    H132048   3.824   1.120  16.774  0.8061  0.7837  0.3722
 3519TIP3    H232049   3.695   1.200  16.784  1.0222  1.1567  0.1853
 3520TIP3   OH232050   5.977   6.622  15.406 -0.0651 -0.1456 -0.3414
 3520TIP3    H132051   5.944   6.712  15.397  1.4229  0.3309 -1.7116
 3520TIP3    H232052   5.952   6.580  15.324  2.0968  0.0854 -1.2102
 3521TIP3   OH232053   5.431   4.177  14.731  0.5969  0.2935 -0.3592
 3521TIP3    H132054   5.445   4.210  14.819 -4.3458 -1.8775  1.5584
 3521TIP3    H232055   5.409   4.255  14.679  0.1577  1.2262  1.1787
 3522TIP3   OH232056   6.276   5.747   6.257 -0.6984 -0.1790 -0.2552
 3522TIP3    H132057   6.234   5.686   6.318  0.0040 -1.7982 -1.3026
 3522TIP3    H232058   6.232   5.731   6.173  0.2528 -0.0651 -0.7923
 3523TIP3   OH232059   1.314   5.959   5.131  0.0479 -0.2324 -0.1676
 3523TIP3    H132060   1.257   6.000   5.196 -0.1154 -1.6860  0.6465
 3523TIP3    H232061   1.387   5.924   5.182  0.8940  0.2642 -1.0168
 3524TIP3   OH232062   3.211   6.472   2.548 -0.3074  0.0500  0.2686
 3524TIP3    H132063   3.253   6.503   2.629 -1.4409  2.7121 -0.0472
 3524TIP3    H232064   3.117   6.477   2.566 -0.5612 -0.8592 -0.7078
 3525TIP3   OH232065   6.438   2.076   1.548  0.1363 -0.3367 -0.2976
 3525TIP3    H132066   6.522   2.076   1.595  0.3031  1.7512 -0.4738
 3525TIP3    H232067   6.373   2.090   1.617  0.1325  0.0247 -0.3715
 3526TIP3   OH232068   0.671   3.572  11.893 -0.1029  0.6770 -0.2013
 3526TIP3    H132069   0.749   3.520  11.874 -0.0075  0.9285 -0.4995
 3526TIP3    H232070   0.696   3.662  11.873 -0.3795  0.7958 -0.0236
 3527TIP3   OH232071   4.366   0.301  12.136 -0.2562  0.5707  0.0704
 3527TIP3    H132072   4.455   0.322  12.166  0.1408  1.4771 -1.5923
 3527TIP3    H232073   4.379   0.249  12.057 -1.1663  1.6064 -0.7912
 3528TIP3   OH232074   6.816   4.341  15.008 -0.8508  0.0490  0.3656
 3528TIP3    H132075   6.874   4.325  14.933  0.9185 -0.5851  1.7991
 3528TIP3    H232076   6.833   4.433  15.031  0.5878 -0.4587  1.5209
 3529TIP3   OH232077   0.333   2.567   4.807 -0.0855 -0.1084 -0.1295
 3529TIP3    H132078   0.399   2.628   4.772 -2.0083  0.1855 -3.7578
 3529TIP3    H232079   0.306   2.606   4.890  1.5052  1.8800 -0.4681
 3530TIP3   OH232080   2.234   0.998  14.325 -0.1737 -0.1713  0.0373
 3530TIP3    H132081   2.275   1.084  14.331 -1.6114  0.4656  1.4678
 3530TIP3    H232082   2.302   0.937  14.355  0.5756  0.5531 -0.1465
 3531TIP3   OH232083   1.056   6.273  16.473 -0.6387  0.3270  0.4634
 3531TIP3    H132084   1.044   6.234  16.387 -0.7426 -1.0843  1.0950
 3531TIP3    H232085   1.059   6.367  16.457  0.5184  0.0395 -1.2233
 3532TIP3   OH232086   3.180   5.771  16.854 -0.1883 -0.3857 -0.4475
 3532TIP3    H132087   3.260   5.720  16.838  0.4992  0.2124  0.8730
 3532TIP3    H232088   3.126   5.715  16.910 -1.5027 -1.4880 -2.7092
 3533TIP3   OH232089   6.361   3.984   1.187 -0.0676  0.3427 -0.3915
 3533TIP3    H132090   6.274   4.014   1.161 -0.9559 -0.9160  0.9836
 3533TIP3    H232091   6.379   3.910   1.129  0.2084  0.7583 -0.8428
 3534TIP3   OH232092   2.290   1.112  15.567 -0.0915  0.0036  0.2627
 3534TIP3    H132093   2.201   1.110  15.603  0.8156 -0.3589  2.6722
 3534TIP3    H232094   2.310   1.020  15.549 -0.3115  0.1189 -0.5780
 3535TIP3   OH232095   0.916   4.149  17.077  0.3848  0.6297 -0.6025
 3535TIP3    H132096   0.839   4.118  17.030 -0.5451  0.6343  0.8522
 3535TIP3    H232097   0.991   4.116  17.027 -0.5345  1.1855 -2.4186
 3536TIP3   OH232098   5.093   5.297   0.445 -0.0993 -0.0831 -0.1548
 3536TIP3    H132099   5.003   5.269   0.461 -0.2679 -0.0008 -0.9012
 3536TIP3    H232100   5.102   5.292   0.350  0.7005 -0.1317 -0.0800
 3537TIP3   OH232101   2.820   1.194  14.138  0.3076 -0.4485 -0.3092
 3537TIP3    H132102   2.843   1.154  14.054  0.2652  1.9312 -1.5384
 3537TIP3    H232103   2.899   1.241  14.164 -0.2618  0.3372  0.0418
 3538TIP3   OH232104   4.690   6.324  15.943  0.3810  0.3058 -0.3099
 3538TIP3    H132105   4.720   6.346  16.031 -0.0804 -0.9088  0.1670
 3538TIP3    H232106   4.596   6.310  15.952  0.0475  1.6864 -1.3134
 3539TIP3   OH232107   6.055   6.567  14.706 -0.6231 -0.6711 -0.1704
 3539TIP3    H132108   6.091   6.610  14.784  0.2712  0.0287 -0.9526
 3539TIP3    H232109   6.047   6.638  14.642  0.4798 -1.5766 -1.3461
 3540TIP3   OH232110   3.710   3.039   4.266 -0.6180  0.2193 -0.0370
 3540TIP3    H132111   3.732   3.112   4.324 -0.4128  0.9457 -1.0098
 3540TIP3    H232112   3.791   2.989   4.257 -0.7896 -0.2234  0.7293
 3541TIP3   OH232113   4.944   0.782  14.143 -0.0440 -0.1681 -0.2632
 3541TIP3    H132114   5.000   0.766  14.067  0.7710  1.8818 -0.1544
 3541TIP3    H232115   4.870   0.831  14.109 -0.1806 -0.1077  0.1100
 3542TIP3   OH232116   5.892   4.336   2.314 -0.0546  0.9394  0.1690
 3542TIP3    H132117   5.965   4.328   2.251 -0.4066 -0.4566 -0.0973
 3542TIP3    H232118   5.883   4.430   2.328  1.5585  1.1647 -0.0812
 3543TIP3   OH232119   4.657   6.773  11.919 -0.6404 -0.3119 -0.4951
 3543TIP3    H132120   4.654   6.856  11.967 -0.2896 -0.2812 -0.5252
 3543TIP3    H232121   4.724   6.786  11.852 -1.0705 -0.3851 -0.9471
 3544TIP3   OH232122   4.041   6.753  17.012 -0.4566  1.0419  0.0941
 3544TIP3    H132123   4.039   6.672  17.062 -0.1068  0.2137 -1.1920
 3544TIP3    H232124   4.123   6.748  16.962 -0.3984  2.2120  0.0426
 3545TIP3   OH232125   6.152   4.509   5.770 -0.5065 -0.1026 -0.6390
 3545TIP3    H132126   6.066   4.501   5.811  0.7372  2.5290  2.9931
 3545TIP3    H232127   6.135   4.548   5.685 -3.0102 -2.3362 -1.3019
 3546TIP3   OH232128   5.360   6.737   1.551  0.2539  0.2581 -0.1570
 3546TIP3    H132129   5.448   6.702   1.537 -0.7817 -3.4213  1.3673
 3546TIP3    H232130   5.302   6.663   1.536 -2.6457  2.4856 -0.8782
 3547TIP3   OH232131   1.013   6.527  16.348  0.0825  0.4244  0.0184
 3547TIP3    H132132   0.954   6.569  16.284  0.6136 -2.7639 -2.8715
 3547TIP3    H232133   1.101   6.546  16.315  0.4237 -0.0607  0.6410
 3548TIP3   OH232134   6.496   0.293   4.648  0.7614 -0.0173 -0.0712
 3548TIP3    H132135   6.529   0.223   4.592  0.0199 -0.4586  0.0222
 3548TIP3    H232136   6.545   0.370   4.621 -0.4394  0.0782 -2.2262
 3549TIP3   OH232137   2.333   4.730  14.002 -0.0476  0.0591 -0.0624
 3549TIP3    H132138   2.281   4.653  14.023 -0.1021 -0.3234 -1.4907
 3549TIP3    H232139   2.303   4.756  13.915 -0.4452  2.0601  0.6133
 3550TIP3   OH232140   0.897   4.670   1.486  0.0142 -0.0801  0.3394
 3550TIP3    H132141   0.921   4.763   1.495 -0.5197 -0.0509  1.6218
 3550TIP3    H232142   0.836   4.669   1.412  0.3701  0.5238  0.0244
 3551TIP3   OH232143   0.081   2.611  17.135 -0.4128 -0.1054  0.2899
 3551TIP3    H132144   0.033   2.530  17.156  0.3311 -0.1202  2.0866
 3551TIP3    H232145   0.137   2.587  17.061 -0.9595 -0.9419  0.1345
 3552TIP3   OH232146   6.159   4.347  16.956 -0.0758  0.1103  0.3027
 3552TIP3    H132147   6.235   4.298  16.985 -0.0892  0.7186  1.4387
 3552TIP3    H232148   6.195   4.417  16.901 -0.1116 -1.5060 -1.9100
 3553TIP3   OH232149   3.987   5.248   5.007 -0.0591 -0.0105  0.5961
 3553TIP3    H132150   4.005   5.308   5.079  0.9680  0.4412 -0.0290
 3553TIP3    H232151   3.931   5.181   5.047 -1.3631  1.4086  1.2621
 3554TIP3   OH232152   3.545   5.832   5.958 -0.6100 -0.1692 -0.3426
 3554TIP3    H132153   3.597   5.792   6.027  0.6022  1.4761 -0.2239
 3554TIP3    H232154   3.457   5.797   5.969 -0.2158 -0.6615  1.4215
 3555TIP3   OH232155   1.593   5.236  14.641  0.4040 -0.1334  0.2700
 3555TIP3    H132156   1.519   5.278  14.686 -0.2982  0.0168 -0.9945
 3555TIP3    H232157   1.667   5.293  14.660  0.0302  0.1763  0.8563
 3556TIP3   OH232158   2.405   2.567   6.132  0.0669  0.3673  0.2419
 3556TIP3    H132159   2.330   2.599   6.181  0.2311  1.4186 -0.1696
 3556TIP3    H232160   2.476   2.563   6.196  0.5346  2.6405 -0.0369
 3557TIP3   OH232161   2.651   3.923   5.763  0.2647 -0.2340 -0.0356
 3557TIP3    H132162   2.743   3.945   5.778  0.2364  0.7329 -1.1051
 3557TIP3    H232163   2.610   4.006   5.740 -0.5919 -0.8689 -0.8927
 3558TIP3   OH232164   0.754   2.655   5.320  0.6305  0.5258  0.2267
 3558TIP3    H132165   0.798   2.736   5.346 -0.3879  1.5378 -1.1053
 3558TIP3    H232166   0.781   2.591   5.387  2.2509  1.6767  0.7405
 3559TIP3   OH232167   3.329   3.672  16.477 -0.2385  0.0296  0.3096
 3559TIP3    H132168   3.412   3.627  16.492  0.7412  1.4556 -0.5509
 3559TIP3    H232169   3.307   3.653  16.386 -1.8001 -1.7459  0.9991
 3560TIP3   OH232170   5.505   5.402  11.462 -0.6024 -0.2521  0.3267
 3560TIP3    H132171   5.537   5.380  11.374 -1.3244 -0.9332  0.2262
 3560TIP3    H232172   5.410   5.394  11.456 -0.6240 -1.0611  1.3620
 3561TIP3   OH232173   6.150   1.295  11.305 -0.0719 -1.1063  0.0977
 3561TIP3    H132174   6.153   1.368  11.243 -0.4187 -0.9657  0.2491
 3561TIP3    H232175   6.069   1.248  11.283  0.7089 -2.1155 -0.7668
 3562TIP3   OH232176   2.628   5.065  13.548  0.2147 -0.4798  0.2094
 3562TIP3    H132177   2.674   4.989  13.513 -0.1941 -0.7285  0.2039
 3562TIP3    H232178   2.662   5.139  13.499 -0.4914 -0.8416 -0.8639
 3563TIP3   OH232179   3.586   3.828   1.034  0.0323  0.7175  0.0820
 3563TIP3    H132180   3.625   3.783   1.110 -1.2735  0.3372  0.5470
 3563TIP3    H232181   3.503   3.862   1.066 -0.6599  0.3417 -1.2348
 3564TIP3   OH232182   1.077   0.622   2.696 -0.0585  0.3919 -0.4106
 3564TIP3    H132183   1.099   0.551   2.635 -1.8233 -1.2766  0.8059
 3564TIP3    H232184   1.162   0.652   2.728  0.7711 -0.7148 -1.4552
 3565TIP3   OH232185   4.619   0.434  12.204  0.7472  0.2833  0.0530
 3565TIP3    H132186   4.563   0.508  12.180  0.5659 -0.7140 -3.1777
 3565TIP3    H232187   4.658   0.458  12.287 -1.9496  2.4562  0.8212
 3566TIP3   OH232188   6.591   3.504   1.210 -0.0392  0.5332  0.3205
 3566TIP3    H132189   6.659   3.563   1.241  0.5295 -0.1945  0.4651
 3566TIP3    H232190   6.515   3.525   1.265  0.3474  0.6766  0.8053
 3567TIP3   OH232191   1.048   4.260   3.941  0.0157  0.0312  0.4456
 3567TIP3    H132192   1.014   4.344   3.911 -0.4821 -0.2225  0.2976
 3567TIP3    H232193   1.134   4.254   3.900 -1.4406 -1.2720 -2.7857
 3568TIP3   OH232194   2.430   1.043  16.747 -0.3894 -0.0176  0.1798
 3568TIP3    H132195   2.416   0.955  16.784  1.1439 -0.9236 -1.2387
 3568TIP3    H232196   2.344   1.085  16.752 -0.6391 -0.6879  3.0830
 3569TIP3   OH232197   1.783   0.240  11.987  0.1809 -0.3363 -0.0336
 3569TIP3    H132198   1.774   0.148  11.963  0.2637 -0.3181 -0.1345
 3569TIP3    H232199   1.714   0.284  11.938  0.1250 -0.3480  0.0339
 3570TIP3   OH232200   2.600   1.427  16.307  0.0133  0.6013 -0.1895
 3570TIP3    H132201   2.553   1.363  16.252  0.4591 -1.2493  1.4735
 3570TIP3    H232202   2.533   1.488  16.335 -1.2804 -1.3798  1.2720
 3571TIP3   OH232203   2.977   1.806   4.132  0.0780 -0.1392 -0.0865
 3571TIP3    H132204   2.942   1.755   4.205 -0.2871 -1.1388 -0.9493
 3571TIP3    H232205   3.022   1.742   4.078  0.7758  0.6793 -0.4939
 3572TIP3   OH232206   5.445   6.292  11.957  0.6626 -0.4776  0.1223
 3572TIP3    H132207   5.435   6.208  11.911 -1.1362  0.8356 -2.0489
 3572TIP3    H232208   5.533   6.321  11.934  0.8510 -1.1975 -0.1067
 3573TIP3   OH232209   2.978   1.733   1.636 -0.1620 -0.1653  0.0513
 3573TIP3    H132210   2.972   1.758   1.544 -2.2097 -0.8205 -0.0390
 3573TIP3    H232211   3.058   1.776   1.667  0.3102  0.4680 -1.8894
 3574TIP3   OH232212   3.897   1.074   6.472  0.1267 -0.1930 -0.1857
 3574TIP3    H132213   3.909   1.148   6.531  0.1957  0.7429 -1.3389
 3574TIP3    H232214   3.978   1.024   6.479 -0.8377 -1.5614  2.4232
 3575TIP3   OH232215   1.961   3.026   0.921 -0.0089 -0.2939 -0.7630
 3575TIP3    H132216   1.898   3.033   0.849  0.6951 -0.4819 -1.4201
 3575TIP3    H232217   1.910   3.040   1.000 -1.5241 -3.4851 -1.0069
 3576TIP3   OH232218   0.737   4.934  16.618  0.1374 -0.0269  0.2689
 3576TIP3    H132219   0.777   5.021  16.626 -1.5580  1.0060 -1.4597
 3576TIP3    H232220   0.752   4.910  16.527 -2.6137  0.1983 -0.3267
 3577TIP3   OH232221   1.528   2.769  13.436 -0.3465 -0.3591  0.1132
 3577TIP3    H132222   1.569   2.684  13.420 -0.6988 -0.5763  0.3582
 3577TIP3    H232223   1.596   2.821  13.478 -0.7195 -1.1580  1.7651
 3578TIP3   OH232224   0.716   1.147  13.083  0.0101  0.1900 -0.0654
 3578TIP3    H132225   0.754   1.103  13.007  2.7453  0.6091  0.9410
 3578TIP3    H232226   0.761   1.109  13.158 -1.2525  1.1199  1.2247
 3579TIP3   OH232227   4.003   1.096  11.317 -0.3428 -0.1668 -0.1399
 3579TIP3    H132228   3.960   1.112  11.233  0.6552 -0.5543 -0.7434
 3579TIP3    H232229   3.993   1.179  11.365 -1.7847 -0.2615 -0.2228
 3580TIP3   OH232230   4.421   0.915   5.963  0.1068  0.2249  0.0254
 3580TIP3    H132231   4.516   0.902   5.968  0.3557  1.5467 -0.9927
 3580TIP3    H232232   4.402   0.983   6.028  0.0088  0.7190 -0.5178
 3581TIP3   OH232233   0.354   2.146  11.869  0.3880  0.0554  0.0282
 3581TIP3    H132234   0.271   2.113  11.904  0.4958  0.2623  0.4883
 3581TIP3    H232235   0.388   2.203  11.938  1.7801 -1.4019  0.6326
 3582TIP3   OH232236   6.337   3.759  11.576 -0.2078 -0.0094 -0.1884
 3582TIP3    H132237   6.403   3.694  11.552  0.7921  1.2068 -0.8724
 3582TIP3    H232238   6.358   3.784  11.666 -0.2316 -0.2244 -0.1251
 3583TIP3   OH232239   6.017   6.458   0.486 -0.1013  0.1921 -0.3254
 3583TIP3    H132240   5.976   6.544   0.498  1.3159  0.6065  2.3301
 3583TIP3    H232241   5.947   6.403   0.451 -1.8665  1.7468  0.5798
 3584TIP3   OH232242   0.902   3.939  14.989 -0.0971 -0.1492  0.1686
 3584TIP3    H132243   0.947   4.021  15.013  2.6508 -1.0913 -1.3635
 3584TIP3    H232244   0.888   3.947  14.894 -0.6724 -1.0882  0.1695
 3585TIP3   OH232245   5.020   5.114   5.184  0.1542 -0.2315  0.3144
 3585TIP3    H132246   4.977   5.121   5.270 -1.0376 -0.0508 -0.2684
 3585TIP3    H232247   5.012   5.021   5.162 -1.4595  0.0644 -0.5128
 3586TIP3   OH232248   3.583   6.391   1.437  0.2381  0.3644 -0.1428
 3586TIP3    H132249   3.501   6.344   1.453  0.3044  0.3286  0.0923
 3586TIP3    H232250   3.559   6.461   1.377 -0.0341  0.5730  0.2086
 3587TIP3   OH232251   4.310   3.019  13.145  0.8771 -0.1666  0.4445
 3587TIP3    H132252   4.321   2.957  13.073  1.4554  1.8224 -1.2794
 3587TIP3    H232253   4.399   3.036  13.175  0.6283 -1.0765  1.7567
 3588TIP3   OH232254   5.333   0.978   3.523  0.4834  0.2381 -0.0871
 3588TIP3    H132255   5.247   0.985   3.564  0.5145  1.9255 -0.2300
 3588TIP3    H232256   5.339   1.056   3.468  1.8584 -0.1857 -0.5738
 3589TIP3   OH232257   2.915   3.887   3.116 -0.4037  0.2690  0.1432
 3589TIP3    H132258   2.824   3.880   3.145 -1.1492 -0.6186 -2.1820
 3589TIP3    H232259   2.926   3.980   3.094 -1.0099  0.2374 -0.3230
 3590TIP3   OH232260   2.560   0.712   1.084  0.7166 -0.2255  0.2944
 3590TIP3    H132261   2.554   0.616   1.090  2.1760 -0.2688  1.7715
 3590TIP3    H232262   2.610   0.737   1.162  1.9980  1.5746 -1.0410
 3591TIP3   OH232263   5.164   5.762  13.087 -0.6225  0.1960  0.3230
 3591TIP3    H132264   5.230   5.734  13.150 -0.9754 -2.2993 -0.2988
 3591TIP3    H232265   5.083   5.719  13.116 -1.2094  0.5128 -0.7758
 3592TIP3   OH232266   4.561   1.780   1.314 -0.2562  0.1973  0.3644
 3592TIP3    H132267   4.587   1.863   1.354  0.6093 -0.5508  1.3947
 3592TIP3    H232268   4.507   1.806   1.239 -1.3405  1.6676  1.5745
 3593TIP3   OH232269   6.457   1.808   4.589  0.0411  0.4964  0.3906
 3593TIP3    H132270   6.515   1.755   4.643  1.7578  2.0429  0.1917
 3593TIP3    H232271   6.380   1.754   4.575  2.1820 -2.5188 -0.9389
 3594TIP3   OH232272   2.865   3.682   1.911 -0.1890 -0.1496  0.1001
 3594TIP3    H132273   2.836   3.721   1.829 -0.2918 -0.0408  0.1866
 3594TIP3    H232274   2.838   3.745   1.978  1.1684  0.4591  0.1093
 3595TIP3   OH232275   4.238   2.671   0.029  0.2500 -0.3102 -0.1113
 3595TIP3    H132276   4.238   2.601   0.094  0.9703  0.3443  0.6382
 3595TIP3    H232277   4.186   2.638  -0.044 -0.4721 -1.1210  0.7514
 3596TIP3   OH232278   5.518   2.926  16.269  0.4931  0.3783  0.4473
 3596TIP3    H132279   5.486   2.914  16.359  1.5860 -0.1102  0.7907
 3596TIP3    H232280   5.525   2.837  16.235 -0.2399  0.5773 -0.2626
 3597TIP3   OH232281   2.883   1.854  12.512 -0.7017  0.6252 -0.0662
 3597TIP3    H132282   2.845   1.877  12.428 -0.9075  5.1958  1.0005
 3597TIP3    H232283   2.809   1.851  12.573 -0.2962 -0.0106  0.4146
 3598TIP3   OH232284   3.565   6.540  11.482 -0.5135 -0.0679 -0.2164
 3598TIP3    H132285   3.581   6.448  11.461 -1.5869  0.1373 -2.2626
 3598TIP3    H232286   3.496   6.537  11.549  0.8853 -0.7332  1.2647
 3599TIP3   OH232287   1.327   0.872   3.813 -0.2996 -0.0300  0.3562
 3599TIP3    H132288   1.328   0.955   3.861  0.4911 -0.3968  1.0242
 3599TIP3    H232289   1.285   0.892   3.730 -0.7529  0.8766  0.7844
 3600TIP3   OH232290   6.472   6.801   2.180 -0.2854  0.0211 -0.2642
 3600TIP3    H132291   6.494   6.713   2.210  1.1714  0.2219 -0.6488
 3600TIP3    H232292   6.514   6.808   2.094  0.9063  1.5852  0.3870
 3601TIP3   OH232293   1.856   1.093   1.536  0.8047 -0.2910 -0.1906
 3601TIP3    H132294   1.877   1.185   1.551 -0.2654  0.4499 -2.7517
 3601TIP3    H232295   1.928   1.061   1.481  0.4710 -0.6060 -0.4416
 3602TIP3   OH232296   3.891   0.152  12.722 -0.0821  0.3346  1.0620
 3602TIP3    H132297   3.829   0.171  12.651  0.6904  1.9845  0.8000
 3602TIP3    H232298   3.964   0.107  12.679 -0.5745 -0.6184  1.1921
 3603TIP3   OH232299   3.870   2.322  17.130 -0.2941  0.3991  0.0697
 3603TIP3    H132300   3.934   2.319  17.058 -0.0754  0.6681  0.2525
 3603TIP3    H232301   3.788   2.293  17.090  0.0963 -0.6746  0.0017
 3604TIP3   OH232302   1.639   3.629  13.807  0.0235  0.7342  1.1384
 3604TIP3    H132303   1.727   3.608  13.775 -0.0657  0.4658  1.0700
 3604TIP3    H232304   1.638   3.724  13.813  0.6866  0.6943  2.1645
 3605TIP3   OH232305   3.747   4.889  15.466  0.2724  0.2616  0.5218
 3605TIP3    H132306   3.677   4.844  15.420 -0.2740  1.0658  0.5534
 3605TIP3    H232307   3.827   4.852  15.429 -0.1029  1.7866 -2.0783
 3606TIP3   OH232308   3.538   0.231   1.831  0.2156  0.0556 -0.8433
 3606TIP3    H132309   3.607   0.168   1.850  0.7197  0.5945 -0.8560
 3606TIP3    H232310   3.512   0.265   1.916  0.4476  0.3454 -0.8831
 3607TIP3   OH232311   5.170   1.095   3.928  0.1655  0.5456 -0.2581
 3607TIP3    H132312   5.247   1.150   3.918 -0.3032  1.4195  0.7376
 3607TIP3    H232313   5.195   1.030   3.995  0.3481  0.2324 -0.6273
 3608TIP3   OH232314   4.054   2.972  13.258  0.3850 -0.1180 -0.0284
 3608TIP3    H132315   4.078   3.005  13.345  2.6448  0.3831 -0.7749
 3608TIP3    H232316   4.136   2.973  13.208 -0.1205 -3.5137 -1.2174
 3609TIP3   OH232317   6.201   2.980  11.753 -0.7227  0.2225  0.3617
 3609TIP3    H132318   6.283   2.971  11.705 -0.9262 -2.4936  0.3315
 3609TIP3    H232319   6.135   2.993  11.685 -0.8969 -2.7898 -0.2138
 3610TIP3   OH232320   4.334   1.525   1.240 -0.2338 -0.7309 -0.1583
 3610TIP3    H132321   4.238   1.527   1.238 -0.3090 -2.0267 -3.1215
 3610TIP3    H232322   4.361   1.611   1.207 -0.3517 -0.4937  0.3472
 3611TIP3   OH232323   2.779   2.073  15.770 -0.0211 -0.4804  0.3157
 3611TIP3    H132324   2.786   2.130  15.693 -1.5307 -1.0205 -0.2636
 3611TIP3    H232325   2.848   2.008  15.757 -2.0579 -2.3574 -2.2171
 3612TIP3   OH232326   0.968   0.199   2.852  0.8901  0.0546  0.0735
 3612TIP3    H132327   0.950   0.132   2.918  0.4849  0.2799  0.1952
 3612TIP3    H232328   1.015   0.153   2.783  0.8459 -0.2974  0.2772
 3613TIP3   OH232329   1.893   0.352  13.720  0.3755  0.4921  0.1208
 3613TIP3    H132330   1.863   0.261  13.724 -0.2644  0.6752 -0.2824
 3613TIP3    H232331   1.854   0.386  13.640  0.3673  1.2063  0.4230
 3614TIP3   OH232332   2.558   5.082  15.285  0.1755  0.1430 -0.1846
 3614TIP3    H132333   2.469   5.115  15.295  0.6168  1.4718 -0.5245
 3614TIP3    H232334   2.594   5.080  15.373  0.2188  0.8006 -0.1862
 3615TIP3   OH232335   6.613   3.921  11.584  0.6337  0.4683 -0.4259
 3615TIP3    H132336   6.688   3.975  11.608  1.4257 -1.5119  2.0111
 3615TIP3    H232337   6.564   3.910  11.666 -0.6185 -0.8068 -1.2847
 3616TIP3   OH232338   6.282   6.145   2.210 -0.2167 -0.3629 -0.7831
 3616TIP3    H132339   6.297   6.052   2.228  0.6913 -0.0529  0.1227
 3616TIP3    H232340   6.214   6.171   2.272  0.5401 -0.0870 -0.0663
 3617TIP3   OH232341   3.893   1.462  16.768 -0.0517 -0.8303 -0.0448
 3617TIP3    H132342   3.838   1.389  16.740  0.4991 -0.8272 -1.2084
 3617TIP3    H232343   3.832   1.531  16.791 -0.6372 -2.0253  2.2709
 3618TIP3   OH232344   4.288   4.758  15.108 -0.2709  0.4461 -0.4409
 3618TIP3    H132345   4.332   4.836  15.142  2.2200 -0.9820 -0.1196
 3618TIP3    H232346   4.230   4.791  15.040 -1.6766  2.8672  1.7659
 3619TIP3   OH232347   2.148   3.226   4.815  0.0863  0.0863 -0.1393
 3619TIP3    H132348   2.121   3.152   4.869  2.4458 -1.1468 -0.4875
 3619TIP3    H232349   2.233   3.252   4.852  1.4120 -0.3047 -2.7093
 3620TIP3   OH232350   4.438   6.562   1.733  0.4252  0.3288 -0.1254
 3620TIP3    H132351   4.483   6.644   1.715  0.4583  0.6183  1.2066
 3620TIP3    H232352   4.471   6.501   1.667  2.9590  0.4517  0.9459
 3621TIP3   OH232353   6.811   5.667  12.519 -0.2108 -0.1457 -0.5512
 3621TIP3    H132354   6.755   5.590  12.535 -0.7628  0.1274 -1.1064
 3621TIP3    H232355   6.749   5.736  12.495  0.3776  0.1539 -1.2112
 3622TIP3   OH232356   1.622   1.158   5.808  0.4711  0.2444  0.0154
 3622TIP3    H132357   1.668   1.236   5.777 -1.7348  1.9592  0.7345
 3622TIP3    H232358   1.548   1.193   5.858  1.1246 -2.3316  3.1234
 3623TIP3   OH232359   5.747   2.887  17.056  0.0883  0.1749  0.4469
 3623TIP3    H132360   5.731   2.807  17.107  1.1276  0.5886  1.4685
 3623TIP3    H232361   5.740   2.859  16.965 -2.5409 -0.4456  0.7449
 3624TIP3   OH232362   6.513   2.960   3.918  0.3067  0.2846 -0.8540
 3624TIP3    H132363   6.486   3.012   3.994  2.9030 -0.0398  0.4047
 3624TIP3    H232364   6.449   2.889   3.914 -1.1163  1.4747 -0.3333
 3625TIP3   OH232365   1.561   0.627   1.242 -0.0348  0.6938 -0.2344
 3625TIP3    H132366   1.589   0.718   1.249 -1.2815  1.0726  0.1247
 3625TIP3    H232367   1.547   0.599   1.333  2.4744 -0.6035 -0.1397
 3626TIP3   OH232368   5.943   2.639  16.115  0.1584 -0.1595  0.8943
 3626TIP3    H132369   5.921   2.625  16.023 -1.0339  0.6484  1.0300
 3626TIP3    H232370   6.033   2.672  16.114  0.0900  0.0262  0.0050
 3627TIP3   OH232371   3.724   1.531   2.464  0.3007  0.5116  0.0916
 3627TIP3    H132372   3.768   1.607   2.425 -1.5121  1.7202  0.2687
 3627TIP3    H232373   3.738   1.461   2.401  1.7384  1.0548 -0.2445
 3628TIP3   OH232374   4.207   4.257  11.146  0.0863  0.1648  0.2265
 3628TIP3    H132375   4.261   4.240  11.069 -1.4085  0.3306 -0.9276
 3628TIP3    H232376   4.119   4.232  11.118 -0.2399 -1.4864  2.4969
 3629TIP3   OH232377   0.723   4.001   2.118  0.0908  0.0200  0.6467
 3629TIP3    H132378   0.739   3.966   2.206 -0.5381 -0.4833  0.5686
 3629TIP3    H232379   0.631   4.026   2.119  0.2228  0.5374  0.3024
 3630TIP3   OH232380   1.156   1.585  14.342  0.3303  0.0460 -1.0787
 3630TIP3    H132381   1.078   1.546  14.382  0.4243  0.3442 -0.5957
 3630TIP3    H232382   1.210   1.511  14.316  1.3355 -0.1988  1.4273
 3631TIP3   OH232383   6.292   3.115   4.579  0.5820  0.1771  0.2188
 3631TIP3    H132384   6.324   3.186   4.522  1.7658  0.0941  0.7447
 3631TIP3    H232385   6.216   3.080   4.533  0.5663  1.1458 -0.5356
 3632TIP3   OH232386   5.333   1.787  11.559  0.0805 -0.3798 -0.2485
 3632TIP3    H132387   5.348   1.881  11.549 -1.1816 -0.2847 -1.6060
 3632TIP3    H232388   5.252   1.781  11.608  1.1636 -0.8212  1.5752
 3633TIP3   OH232389   1.737   2.091  15.528 -0.4941  0.4140 -0.5120
 3633TIP3    H132390   1.741   1.996  15.520 -1.9874  0.2598  0.2911
 3633TIP3    H232391   1.789   2.123  15.454  1.0366 -1.0067 -0.1279
 3634TIP3   OH232392   5.052   2.104   1.827  0.0075  0.6459  0.6823
 3634TIP3    H132393   5.051   2.040   1.898  1.1101  0.5725  0.6475
 3634TIP3    H232394   5.083   2.185   1.868  0.8975  0.5353  0.2357
 3635TIP3   OH232395   4.862   4.442   2.630 -0.1380  0.6590  0.1583
 3635TIP3    H132396   4.944   4.489   2.619 -0.6845  1.4342 -0.7985
 3635TIP3    H232397   4.794   4.505   2.604 -1.1234  0.3831  1.9208
 3636TIP3   OH232398   4.578   5.373  11.380 -0.1639 -0.7883  0.4856
 3636TIP3    H132399   4.529   5.374  11.297  0.0991 -0.1501  0.3346
 3636TIP3    H232400   4.572   5.282  11.410  1.2506 -1.4482 -1.1286
 3637TIP3   OH232401   2.478   0.117  15.735  0.2459 -0.4804  0.5425
 3637TIP3    H132402   2.427   0.098  15.814 -1.2573  1.5946  0.1534
 3637TIP3    H232403   2.497   0.211  15.741  0.5252 -0.3877 -1.3332
 3638TIP3   OH232404   4.991   0.637   5.250  0.4884  0.0273  0.0664
 3638TIP3    H132405   4.964   0.721   5.287  0.5183 -0.0665  0.3008
 3638TIP3    H232406   5.083   0.651   5.226  0.5803 -0.0321  0.3820
 3639TIP3   OH232407   6.609   2.183   5.207  0.1822 -0.2772  0.7772
 3639TIP3    H132408   6.655   2.144   5.133  1.8588  1.2338  0.9677
 3639TIP3    H232409   6.653   2.267   5.222 -1.8152  0.6676  1.8206
 3640TIP3   OH232410   6.761   1.911   1.105 -1.1298 -0.0480 -0.2755
 3640TIP3    H132411   6.792   1.995   1.071  0.7844 -0.3185  0.6389
 3640TIP3    H232412   6.797   1.846   1.045  3.5563 -0.6521  2.6326
 3641TIP3   OH232413   6.076   1.239  15.481  0.3963  0.0886 -0.1010
 3641TIP3    H132414   6.117   1.152  15.476 -0.6757 -0.4297 -0.2889
 3641TIP3    H232415   6.014   1.240  15.408 -3.5603 -1.1447  2.8338
 3642TIP3   OH232416   6.045   5.582  16.491  0.1357  0.4475  0.2479
 3642TIP3    H132417   6.055   5.649  16.424  1.4122  0.8221  0.7889
 3642TIP3    H232418   6.123   5.590  16.545  0.3972 -1.5898  0.2375
 3643TIP3   OH232419   6.077   0.441  13.223  0.2359  0.0979  0.0105
 3643TIP3    H132420   6.147   0.396  13.271  2.5605  2.2050 -1.1966
 3643TIP3    H232421   6.119   0.519  13.187 -2.1085  0.1132 -3.0225
 3644TIP3   OH232422   5.045   0.937  15.482 -0.0528  0.0699 -0.9010
 3644TIP3    H132423   5.063   0.925  15.389  0.1020  1.0496 -1.0158
 3644TIP3    H232424   5.004   1.024  15.486 -0.3753 -0.1160 -0.0962
 3645TIP3   OH232425   5.011   4.562  17.113 -0.0342  0.1774  0.4823
 3645TIP3    H132426   5.001   4.568  17.018  3.4083  0.1708  0.0159
 3645TIP3    H232427   4.926   4.530  17.143 -1.0480 -0.4289 -2.6229
 3646TIP3   OH232428   2.657   2.350  14.186  0.0321 -0.0737 -0.0615
 3646TIP3    H132429   2.741   2.340  14.141 -1.2225  1.8913 -3.2155
 3646TIP3    H232430   2.610   2.269  14.167  0.3377 -0.1875 -0.3438
 3647TIP3   OH232431   2.326   4.791   1.586  0.2452  0.1412  0.1000
 3647TIP3    H132432   2.326   4.711   1.534  0.2756  0.2033  0.0029
 3647TIP3    H232433   2.251   4.841   1.553  0.6147  0.4412 -0.2923
 3648TIP3   OH232434   1.542   4.325  12.895  0.1620 -0.1137 -0.1216
 3648TIP3    H132435   1.542   4.393  12.827  0.1809  0.0536  0.0443
 3648TIP3    H232436   1.458   4.282  12.885  0.2951 -0.2994 -0.4597
 3649TIP3   OH232437   5.546   1.053  17.047 -0.2746  0.3541 -0.2334
 3649TIP3    H132438   5.605   1.021  16.979  0.5782  1.6459 -0.1486
 3649TIP3    H232439   5.529   0.977  17.103  0.8735 -0.1804 -0.5885
 3650TIP3   OH232440   5.002   1.042  12.708 -0.0739 -0.5250 -0.0721
 3650TIP3    H132441   4.972   1.072  12.622  1.1496 -0.5017 -0.4987
 3650TIP3    H232442   5.012   0.948  12.699 -0.1961 -0.5598  0.1353
 3651TIP3   OH232443   2.613   6.580  16.255  0.1357 -0.6974 -0.4446
 3651TIP3    H132444   2.535   6.633  16.237  0.2343  0.1509  1.3979
 3651TIP3    H232445   2.580   6.505  16.304  0.3532 -0.7940 -0.4456
 3652TIP3   OH232446   3.660   2.355   5.843 -0.0208 -0.0503 -0.8075
 3652TIP3    H132447   3.718   2.421   5.881  0.7879  1.0233 -3.5803
 3652TIP3    H232448   3.706   2.272   5.857  0.1612  0.2716  0.6001
 3653TIP3   OH232449   4.719   4.809  16.312  0.1070 -0.4569 -0.1691
 3653TIP3    H132450   4.778   4.873  16.273 -0.7189 -0.1102 -0.8669
 3653TIP3    H232451   4.753   4.797  16.401  0.8125  0.2569 -0.3297
 3654TIP3   OH232452   5.351   1.313  13.479 -0.3387 -0.4808  0.3618
 3654TIP3    H132453   5.285   1.350  13.420 -1.3802  0.0247  1.8076
 3654TIP3    H232454   5.430   1.363  13.461 -0.3302 -1.0060 -1.3034
 3655TIP3   OH232455   0.058   2.804   5.215 -0.2116  0.1585 -0.3728
 3655TIP3    H132456  -0.020   2.789   5.268 -1.5112  1.4411 -1.8058
 3655TIP3    H232457   0.035   2.769   5.129  1.0366 -0.0074 -0.6491
 3656TIP3   OH232458   4.100   0.368   6.167  0.1711  0.8938 -0.2875
 3656TIP3    H132459   4.024   0.325   6.127  0.2004  0.0369  0.5203
 3656TIP3    H232460   4.098   0.338   6.258  0.0340  2.8738  0.4005
 3657TIP3   OH232461   5.593   3.377   4.725  0.0308 -0.3378  0.0326
 3657TIP3    H132462   5.624   3.321   4.796  1.7447  0.4573 -0.0509
 3657TIP3    H232463   5.625   3.334   4.645 -0.7074 -0.4967 -0.1840
 3658TIP3   OH232464   1.596   1.623   3.237 -0.2502 -0.2399  0.3921
 3658TIP3    H132465   1.678   1.612   3.285  0.4307  1.1853 -0.3921
 3658TIP3    H232466   1.603   1.709   3.196 -0.8411 -1.2978 -2.1357
 3659TIP3   OH232467   3.753   2.463  15.999  0.2230  0.0773 -0.0362
 3659TIP3    H132468   3.685   2.398  15.981 -0.0934  0.2010  0.6895
 3659TIP3    H232469   3.834   2.413  16.008  0.6596  0.0741 -2.8976
 3660TIP3   OH232470   4.081   5.817   4.462  0.3193 -0.3441  0.4452
 3660TIP3    H132471   3.989   5.790   4.455  0.5325 -1.1872  0.7366
 3660TIP3    H232472   4.124   5.772   4.389  1.0839 -2.6511  2.1964
 3661TIP3   OH232473   2.014   2.025   5.753 -0.1192  0.0509 -0.0305
 3661TIP3    H132474   1.975   2.113   5.755 -0.6009 -0.1560 -0.0384
 3661TIP3    H232475   2.069   2.021   5.831 -0.2343  0.3002  0.0652
 3662TIP3   OH232476   5.295   1.639   3.765 -0.0234 -0.4113  0.5104
 3662TIP3    H132477   5.217   1.676   3.724  0.1473  1.8575  2.0742
 3662TIP3    H232478   5.276   1.545   3.772 -2.2655 -0.0462  0.1390
 3663TIP3   OH232479   4.053   2.780  13.850 -0.0608 -0.0438 -0.4264
 3663TIP3    H132480   4.030   2.724  13.775 -0.6145  0.5590 -0.7078
 3663TIP3    H232481   4.147   2.764  13.863  0.5379  1.2980 -2.5029
 3664TIP3   OH232482   0.707   5.524   2.921 -0.6952 -0.2210 -0.1371
 3664TIP3    H132483   0.618   5.532   2.888 -0.8049  1.6465  0.5051
 3664TIP3    H232484   0.760   5.573   2.858 -0.1441 -1.1170 -0.3858
 3665TIP3   OH232485   4.578   2.073  14.095 -0.7564  0.3182  0.3159
 3665TIP3    H132486   4.557   2.077  14.189 -1.2441  0.4783  0.2006
 3665TIP3    H232487   4.654   2.131  14.086  0.1408 -0.7371  0.8345
 3666TIP3   OH232488   1.033   0.374  15.176 -0.5648 -0.0475  0.0614
 3666TIP3    H132489   1.069   0.288  15.199  1.7137  0.3624 -1.5570
 3666TIP3    H232490   0.991   0.359  15.091  0.0116  0.4741 -0.3163
 3667TIP3   OH232491   5.941   2.412  13.011 -0.0541 -0.8008  0.0365
 3667TIP3    H132492   5.956   2.369  13.095  3.3559  0.5548  0.2532
 3667TIP3    H232493   5.917   2.340  12.952  0.5952 -2.2469  1.4554
 3668TIP3   OH232494   6.531   4.454  15.244 -0.4313  0.5225 -0.0254
 3668TIP3    H132495   6.489   4.503  15.173  0.5270 -1.0176 -1.7304
 3668TIP3    H232496   6.604   4.409  15.202  0.1150 -0.5373  1.9475
 3669TIP3   OH232497   4.268   6.052   6.191 -0.2111  0.1477 -0.9301
 3669TIP3    H132498   4.188   6.072   6.239 -0.2465  0.1858 -1.0068
 3669TIP3    H232499   4.249   5.970   6.145 -0.1198  0.0201 -0.7436
 3670TIP3   OH232500   5.514   2.669   1.594  0.4767  0.5056  0.1485
 3670TIP3    H132501   5.495   2.575   1.592  0.8975  0.3408 -3.1052
 3670TIP3    H232502   5.582   2.678   1.660  1.1756 -1.7117 -0.1667
 3671TIP3   OH232503   4.570   4.276  12.702 -0.0287 -0.5589  0.0459
 3671TIP3    H132504   4.483   4.288  12.664 -0.4639 -0.9582  0.8880
 3671TIP3    H232505   4.621   4.233  12.633 -0.3539  0.1004 -0.6131
 3672TIP3   OH232506   4.571   2.143  15.941 -0.3156  0.1643 -0.1071
 3672TIP3    H132507   4.568   2.159  15.847 -1.1397 -0.8130 -0.2749
 3672TIP3    H232508   4.548   2.050  15.950 -0.5575  0.3202  1.0727
 3673TIP3   OH232509   1.421   2.131   4.677  0.3964 -0.8847  0.5507
 3673TIP3    H132510   1.343   2.142   4.732  0.4708  1.1889  0.3174
 3673TIP3    H232511   1.444   2.038   4.686 -0.6451 -1.0056  2.5877
 3674TIP3   OH232512   0.953   4.065   3.383  0.9934  0.2253 -0.7456
 3674TIP3    H132513   0.994   3.988   3.342  3.0493  0.2940  1.0472
 3674TIP3    H232514   0.859   4.045   3.381  1.4043 -2.0039 -1.0046
 3675TIP3   OH232515   2.197   2.604   1.523  0.0037 -0.0865  0.0556
 3675TIP3    H132516   2.271   2.557   1.562  0.2811  0.5128  0.2714
 3675TIP3    H232517   2.202   2.691   1.561  0.5278  0.6569 -1.6064
 3676TIP3   OH232518   3.988   2.136   5.364  0.5231  0.5362  0.1306
 3676TIP3    H132519   3.905   2.157   5.407  0.4530 -0.5016  0.5271
 3676TIP3    H232520   3.963   2.103   5.278  0.4646 -0.5502  0.5524
 3677TIP3   OH232521   3.086   2.983   5.592  0.3362 -0.2293 -0.3818
 3677TIP3    H132522   3.068   3.058   5.648  0.4563 -0.5120  0.0453
 3677TIP3    H232523   3.160   3.010   5.537  0.9659 -0.3371  0.3862
 3678TIP3   OH232524   1.393   0.413   4.205 -0.8121  0.2694 -0.1226
 3678TIP3    H132525   1.348   0.401   4.121  1.6436 -1.9137 -1.2587
 3678TIP3    H232526   1.363   0.340   4.259 -0.1833 -0.0407 -0.1810
 3679TIP3   OH232527   0.610   0.297  12.380 -0.0638  0.1581 -0.4029
 3679TIP3    H132528   0.557   0.221  12.403  0.8446 -0.3202  0.1678
 3679TIP3    H232529   0.678   0.261  12.323  0.6406  0.4562  0.2422
 3680TIP3   OH232530   5.654   6.725   5.274 -0.3752 -0.1735  0.5859
 3680TIP3    H132531   5.627   6.783   5.203  1.2388  0.2802  0.2836
 3680TIP3    H232532   5.591   6.653   5.273 -0.6818  0.0914 -0.9698
 3681TIP3   OH232533   6.058   5.310  16.418  0.0950  0.2542  0.2702
 3681TIP3    H132534   6.134   5.303  16.477  0.4878 -1.4023 -0.3938
 3681TIP3    H232535   6.016   5.392  16.444  1.3912  0.5701  1.5120
 3682TIP3   OH232536   0.396   6.735   0.817  0.2408  0.1889  0.2035
 3682TIP3    H132537   0.449   6.734   0.737 -1.7823  0.6626 -1.2391
 3682TIP3    H232538   0.335   6.662   0.806 -2.2122  2.1771 -0.3192
 3683TIP3   OH232539   4.786   5.709  12.259  0.4369 -0.1871 -0.3396
 3683TIP3    H132540   4.714   5.662  12.218  1.1031 -0.7843 -0.8474
 3683TIP3    H232541   4.772   5.696  12.353  0.5862 -1.3924 -0.4626
 3684TIP3   OH232542   4.793   0.285  13.914  0.3933  0.4596 -0.8334
 3684TIP3    H132543   4.862   0.257  13.974 -2.0039 -0.4446  1.7464
 3684TIP3    H232544   4.798   0.380  13.913 -0.3774  0.6467  2.1700
 3685TIP3   OH232545   3.759   3.654   4.590  0.0699 -0.9389 -0.0746
 3685TIP3    H132546   3.683   3.692   4.546  1.0903  0.5374 -0.6734
 3685TIP3    H232547   3.766   3.702   4.672 -1.1121 -2.8473  1.1939
 3686TIP3   OH232548   5.920   3.495   1.450  0.2906  0.1889  0.6028
 3686TIP3    H132549   5.838   3.544   1.452 -0.0700 -0.4076  0.7084
 3686TIP3    H232550   5.893   3.403   1.448  0.9482  0.0013 -0.6176
 3687TIP3   OH232551   1.638   1.347   4.256 -0.0978 -0.6229 -0.9203
 3687TIP3    H132552   1.563   1.288   4.261 -1.1159  0.6215 -1.0086
 3687TIP3    H232553   1.600   1.434   4.245  1.3608  0.0692 -0.7891
 3688TIP3   OH232554   2.953   6.666  16.954 -0.1809  0.6043 -0.2044
 3688TIP3    H132555   2.903   6.745  16.972 -0.8551  0.1324  0.0458
 3688TIP3    H232556   2.968   6.667  16.860 -0.3083  0.9568 -0.2201
 3689TIP3   OH232557   3.929   0.044  16.779 -0.4889 -0.0190 -0.1334
 3689TIP3    H132558   3.945   0.026  16.872  0.5858  2.4313  0.2155
 3689TIP3    H232559   3.852   0.102  16.779 -1.7359 -1.5802 -0.9715
 3690TIP3   OH232560   4.640   4.267  11.777 -0.5948 -0.2134 -0.4373
 3690TIP3    H132561   4.726   4.225  11.765 -0.3754  0.3749 -0.9939
 3690TIP3    H232562   4.601   4.221  11.851  0.4729 -0.0648  0.2420
 3691TIP3   OH232563   2.161   1.440   5.328 -0.4772  0.1437 -0.1358
 3691TIP3    H132564   2.166   1.535   5.339  0.0593  0.2730 -1.2894
 3691TIP3    H232565   2.088   1.427   5.268 -1.1279 -0.2551  0.7259
 3692TIP3   OH232566   5.019   1.015  13.473 -0.1481 -0.1674 -1.0884
 3692TIP3    H132567   4.941   0.983  13.519 -0.2428 -1.5691 -2.1656
 3692TIP3    H232568   4.991   1.098  13.433 -0.4702  0.3573  0.1580
 3693TIP3   OH232569   6.203   6.770   1.977 -0.2791 -0.1432 -0.5910
 3693TIP3    H132570   6.274   6.818   2.020  0.0885 -1.0339 -0.1861
 3693TIP3    H232571   6.150   6.838   1.935  0.4519  0.5798 -0.3591
 3694TIP3   OH232572   4.293   3.321   1.171  0.7907 -0.0026  0.0863
 3694TIP3    H132573   4.389   3.324   1.181  0.6820  0.3947  1.3004
 3694TIP3    H232574   4.262   3.292   1.257 -0.1733 -0.2733 -0.3490
 3695TIP3   OH232575   5.910   0.671   0.044 -0.3044  0.2405 -0.1752
 3695TIP3    H132576   5.830   0.670  -0.010 -0.7340 -0.9687  0.4595
 3695TIP3    H232577   5.960   0.595   0.014 -1.4260 -1.6396  2.3520
 3696TIP3   OH232578   2.189   3.240   2.675 -0.2897  0.0078 -0.1244
 3696TIP3    H132579   2.207   3.334   2.685  1.6489 -0.5118  2.1195
 3696TIP3    H232580   2.262   3.207   2.622 -0.5978 -0.3777 -0.3178
 3697TIP3   OH232581   2.820   0.532  14.894  0.0136 -0.1085 -0.3066
 3697TIP3    H132582   2.859   0.572  14.972  0.0082 -1.9328  0.6882
 3697TIP3    H232583   2.892   0.531  14.830  0.2780  0.5845 -0.0418
 3698TIP3   OH232584   1.722   4.603  13.828  0.3740  0.2130  0.0815
 3698TIP3    H132585   1.750   4.564  13.910 -0.1576  0.0320  0.1837
 3698TIP3    H232586   1.764   4.551  13.760 -0.8895 -1.0127  0.1946
 3699TIP3   OH232587   5.497   2.406  15.655  0.0688 -0.6113 -0.2622
 3699TIP3    H132588   5.548   2.417  15.736 -0.2225  0.5780 -0.2074
 3699TIP3    H232589   5.562   2.404  15.586  0.3589 -2.1903  0.0175
 3700TIP3   OH232590   3.729   0.864  11.200  0.0205 -0.3133  0.3359
 3700TIP3    H132591   3.670   0.853  11.126 -1.5720  0.3263  1.4674
 3700TIP3    H232592   3.699   0.944  11.243  1.9651  0.2580  0.7463
 3701TIP3   OH232593   1.452   1.009  15.368  0.4222  0.4569 -0.0812
 3701TIP3    H132594   1.376   0.990  15.423  0.1349 -2.0580 -1.2202
 3701TIP3    H232595   1.421   1.072  15.303 -0.3843  0.2890  0.1404
 3702TIP3   OH232596   2.884   6.644   3.969 -0.2859 -0.3319 -0.5787
 3702TIP3    H132597   2.865   6.627   4.061 -0.1536 -1.0021 -0.6746
 3702TIP3    H232598   2.973   6.681   3.969 -1.4588  2.7613 -0.1358
 3703TIP3   OH232599   4.189   0.889   2.647  0.4816  0.1908 -0.1711
 3703TIP3    H132600   4.137   0.867   2.724 -0.6458  0.7637 -0.7386
 3703TIP3    H232601   4.125   0.895   2.576  1.1753  1.8730 -0.7107
 3704TIP3   OH232602   0.395   5.947  13.637 -0.0612 -0.7472 -0.1365
 3704TIP3    H132603   0.410   5.853  13.649 -0.6381 -0.9113 -0.6464
 3704TIP3    H232604   0.347   5.974  13.715  3.3411 -0.0541  1.9079
 3705TIP3   OH232605   1.323   6.301  11.304  0.2448 -0.3434  0.3185
 3705TIP3    H132606   1.390   6.286  11.371 -0.2193 -1.9026  0.4903
 3705TIP3    H232607   1.350   6.246  11.231  0.9622  1.6527 -0.9692
 3706TIP3   OH232608   5.580   1.018  16.787  0.3640  0.5094 -0.1949
 3706TIP3    H132609   5.552   1.042  16.698 -0.2635  0.9588  0.1155
 3706TIP3    H232610   5.505   0.972  16.824  1.1026 -0.8665 -0.3407
 3707TIP3   OH232611   1.608   2.645  11.946  0.4630  0.1770  0.3117
 3707TIP3    H132612   1.640   2.724  11.989  1.6296 -1.1703  2.1098
 3707TIP3    H232613   1.543   2.609  12.006 -0.0550 -0.2281 -0.4726
 3708TIP3   OH232614   4.887   2.789  14.219  0.0899 -0.0056  0.9237
 3708TIP3    H132615   4.920   2.700  14.234  1.2227  0.6138  2.2890
 3708TIP3    H232616   4.796   2.776  14.192  1.0342 -1.7261 -1.8718
 3709TIP3   OH232617   4.222   5.854  16.649 -0.2422  0.5220 -0.4368
 3709TIP3    H132618   4.167   5.824  16.576 -0.4170 -0.6131  0.1433
 3709TIP3    H232619   4.305   5.807  16.636  0.2069  1.3534 -0.6560
 3710TIP3   OH232620   6.664   4.671   5.070  0.7568  0.1069 -0.2477
 3710TIP3    H132621   6.640   4.627   4.988 -1.9487  1.3200 -0.2001
 3710TIP3    H232622   6.706   4.603   5.122 -0.2473 -1.5120 -1.4559
 3711TIP3   OH232623   6.410   4.846   4.827 -0.2587  0.1376 -0.4730
 3711TIP3    H132624   6.440   4.918   4.772  0.2697  1.2244  1.1688
 3711TIP3    H232625   6.490   4.803   4.855 -0.4823  0.0286  0.0033
 3712TIP3   OH232626   5.517   2.779  12.380 -0.1329 -0.1412  0.7732
 3712TIP3    H132627   5.462   2.853  12.356  0.0223 -0.7604 -1.7177
 3712TIP3    H232628   5.469   2.702  12.348  1.1150 -0.8649  0.5930
 3713TIP3   OH232629   3.940   3.048   4.899  0.1255 -0.0568  0.4851
 3713TIP3    H132630   3.965   3.034   4.808  1.8010  1.3996  0.6581
 3713TIP3    H232631   4.012   3.100   4.936 -0.2361 -1.0559  2.7967
 3714TIP3   OH232632   1.631   6.436   0.123  0.1414 -0.5973 -0.2375
 3714TIP3    H132633   1.581   6.465   0.046 -1.0242 -0.0996  0.6760
 3714TIP3    H232634   1.674   6.515   0.155  0.2142 -0.6968 -0.0885
 3715TIP3   OH232635   2.793   3.753  12.047  0.0619  0.0877 -0.1981
 3715TIP3    H132636   2.735   3.761  11.971 -0.8905  1.3811  0.6143
 3715TIP3    H232637   2.879   3.781  12.015 -0.1875  0.0157 -0.9471
 3716TIP3   OH232638   1.681   4.755  17.136 -0.3027  0.7047 -0.0379
 3716TIP3    H132639   1.606   4.729  17.082  1.1812  0.1840 -1.9928
 3716TIP3    H232640   1.757   4.734  17.081  1.3149  0.4027  2.2035
 3717TIP3   OH232641   5.959   4.836   2.945  0.3801 -0.5602 -0.5938
 3717TIP3    H132642   6.009   4.879   3.015 -2.7641  2.9428 -0.1691
 3717TIP3    H232643   5.987   4.745   2.947  1.0443 -0.5239  4.7418
 3718TIP3   OH232644   4.764   4.712   1.487 -0.2133 -0.3124 -0.1343
 3718TIP3    H132645   4.713   4.755   1.419 -1.2111 -2.1931 -0.6191
 3718TIP3    H232646   4.826   4.780   1.517 -2.2325  1.6925 -0.2619
 3719TIP3   OH232647   5.897   2.709   6.326  0.1003  0.1213  0.0385
 3719TIP3    H132648   5.818   2.761   6.344 -1.2716 -1.6834 -0.4232
 3719TIP3    H232649   5.938   2.698   6.412 -0.5693  0.4880  0.4138
 3720TIP3   OH232650   0.394   0.219   2.840 -0.2053 -0.1258 -0.2172
 3720TIP3    H132651   0.428   0.245   2.754 -0.0678  0.4068 -0.0060
 3720TIP3    H232652   0.465   0.241   2.900 -1.7739  3.4328  0.6070
 3721TIP3   OH232653   4.781   3.810   1.148 -0.4851  0.1350 -0.3848
 3721TIP3    H132654   4.750   3.850   1.229 -2.3570  0.0533 -1.0007
 3721TIP3    H232655   4.788   3.882   1.086 -0.9596 -0.0626 -0.6746
 3722TIP3   OH232656   5.131   5.601   0.111 -0.0972  0.0860  0.3865
 3722TIP3    H132657   5.163   5.552   0.034 -1.0372 -1.1523  0.7478
 3722TIP3    H232658   5.076   5.670   0.075 -1.0275 -0.8644 -0.0471
 3723TIP3   OH232659   0.611   5.711   5.635 -0.0303 -0.4996  0.3513
 3723TIP3    H132660   0.683   5.768   5.663 -1.0079  1.1246 -0.2460
 3723TIP3    H232661   0.572   5.680   5.716  0.6527 -0.4942  0.6918
 3724TIP3   OH232662   2.414   1.604   1.421 -0.1830  0.8089 -0.6566
 3724TIP3    H132663   2.417   1.678   1.482  2.7454  0.9735 -0.8639
 3724TIP3    H232664   2.391   1.529   1.476 -0.6395  1.4420  0.0396
 3725TIP3   OH232665   2.286   2.429  15.797  0.3442 -0.0093  0.3245
 3725TIP3    H132666   2.333   2.400  15.875  3.1329 -1.6731 -1.7796
 3725TIP3    H232667   2.234   2.353  15.771  1.1693 -0.2811 -0.6047
 3726TIP3   OH232668   0.222   2.157  13.967  0.0179 -0.2052  0.5200
 3726TIP3    H132669   0.244   2.188  13.880 -0.9806  0.8687  0.6171
 3726TIP3    H232670   0.171   2.229  14.006  0.1657 -0.7891  1.8641
 3727TIP3   OH232671   5.617   1.264   5.370 -0.0964 -0.8123 -0.6784
 3727TIP3    H132672   5.566   1.281   5.291 -0.4873  2.2041  0.1073
 3727TIP3    H232673   5.708   1.273   5.342 -0.2585  1.5074 -0.6244
 3728TIP3   OH232674   5.410   5.664   5.407  0.3298  0.3266  0.1128
 3728TIP3    H132675   5.470   5.595   5.379  0.2958 -0.2526  1.3878
 3728TIP3    H232676   5.338   5.662   5.344 -0.5897 -2.0486  1.1477
 3729TIP3   OH232677   1.813   2.390   2.667 -0.2604 -0.2198 -0.0873
 3729TIP3    H132678   1.847   2.400   2.756 -0.1130 -1.2301 -0.0196
 3729TIP3    H232679   1.872   2.442   2.612 -1.1983  1.6413  0.5455
 3730TIP3   OH232680   5.114   0.860   1.452  0.0691 -0.2921 -0.2704
 3730TIP3    H132681   5.202   0.826   1.467  0.0842 -0.5694 -0.9374
 3730TIP3    H232682   5.069   0.849   1.535  0.3148 -1.2107 -0.2534
 3731TIP3   OH232683   1.129   5.709  15.416 -0.6546  0.2317  0.2447
 3731TIP3    H132684   1.078   5.779  15.376  0.8055  1.1256 -0.1681
 3731TIP3    H232685   1.066   5.641  15.437 -1.7760  0.5951 -1.7021
 3732TIP3   OH232686   4.233   4.758   2.673 -0.7049  0.1456 -0.5294
 3732TIP3    H132687   4.149   4.769   2.718 -0.7802 -0.4879 -0.5030
 3732TIP3    H232688   4.210   4.753   2.581 -0.3527  4.1222 -1.0407
 3733TIP3   OH232689   3.538   4.599   6.339  0.4490  0.1120 -0.1159
 3733TIP3    H132690   3.573   4.590   6.427 -0.0753 -1.4618 -0.0307
 3733TIP3    H232691   3.450   4.634   6.352  0.7111  0.7785 -0.0937
 3734TIP3   OH232692   1.293   4.008   0.338 -0.0312  0.3143  0.2161
 3734TIP3    H132693   1.320   3.916   0.329 -0.3894  0.2953 -0.8365
 3734TIP3    H232694   1.209   4.005   0.383 -0.0613  0.1163  0.1473
 3735TIP3   OH232695   1.097   3.325   6.228 -0.4949 -0.2013 -0.7021
 3735TIP3    H132696   1.106   3.318   6.323  0.6586 -0.0446 -0.7874
 3735TIP3    H232697   1.014   3.372   6.215  0.2482  1.4728  0.2773
 3736TIP3   OH232698   6.379   1.346  17.102 -0.2655  0.4104 -0.5404
 3736TIP3    H132699   6.371   1.405  17.028 -0.9794 -0.0909 -0.8785
 3736TIP3    H232700   6.451   1.287  17.079  0.8164  1.4786  0.0427
 3737TIP3   OH232701   4.688   6.361   1.906  0.1204  0.1220  0.0892
 3737TIP3    H132702   4.683   6.335   1.814 -0.8186 -0.9938  0.4352
 3737TIP3    H232703   4.661   6.284   1.955  2.4578  0.0594  1.4274
 3738TIP3   OH232704   5.332   2.772   2.101 -0.2306  0.2919  0.2275
 3738TIP3    H132705   5.263   2.708   2.085  0.2514 -0.0942 -0.3124
 3738TIP3    H232706   5.315   2.803   2.191 -1.3928  0.5673 -0.0682
 3739TIP3   OH232707   5.090   1.037  11.415  0.4587  0.6948 -0.3335
 3739TIP3    H132708   5.144   0.964  11.384  0.9204  1.3345 -1.0695
 3739TIP3    H232709   5.001   1.002  11.415  0.8235 -0.2617  0.5659
 3740TIP3   OH232710   0.743   5.959   3.691  0.3777 -0.1447 -0.2555
 3740TIP3    H132711   0.748   5.887   3.754 -1.2228  0.4526  0.6042
 3740TIP3    H232712   0.811   6.020   3.717  1.2146 -0.9518 -0.5027
 3741TIP3   OH232713   1.988   4.134   1.048 -0.1358 -0.0826 -0.0846
 3741TIP3    H132714   2.019   4.173   1.130 -3.4738 -0.8053  1.6502
 3741TIP3    H232715   1.899   4.105   1.066 -1.4737  0.6722 -4.2977
 3742TIP3   OH232716   3.938   1.042   3.830  0.0659  0.0540  0.0104
 3742TIP3    H132717   3.852   1.004   3.813  0.9487 -1.0784 -2.4381
 3742TIP3    H232718   3.973   0.991   3.904 -1.1770  0.2823  0.7810
 3743TIP3   OH232719   0.978   0.034   3.113 -0.1274 -0.3616 -0.3235
 3743TIP3    H132720   0.950  -0.048   3.072  1.1250 -0.8770 -0.1969
 3743TIP3    H232721   0.915   0.048   3.184 -1.5183 -0.1652 -1.5616
 3744TIP3   OH232722   4.028   2.314   1.226  0.4952 -0.1481 -0.1235
 3744TIP3    H132723   4.060   2.234   1.269  1.2069 -0.0072 -0.3722
 3744TIP3    H232724   4.055   2.385   1.284  0.9801  0.0019 -0.5233
 3745TIP3   OH232725   4.078   3.156  16.911  0.4372 -0.1939  0.6766
 3745TIP3    H132726   4.081   3.061  16.906  2.4759 -0.1146 -2.1313
 3745TIP3    H232727   4.085   3.186  16.820 -0.5076  2.6568  1.4222
 3746TIP3   OH232728   3.824   6.111   1.496  0.4134  0.4049  0.1941
 3746TIP3    H132729   3.777   6.130   1.578  1.1836 -1.1782  1.0451
 3746TIP3    H232730   3.763   6.056   1.446  0.2640  0.6953  0.0543
 3747TIP3   OH232731   6.469   0.141  12.125  0.2461 -0.5976 -0.0857
 3747TIP3    H132732   6.381   0.149  12.087 -1.1914  0.3128  3.1287
 3747TIP3    H232733   6.521   0.206  12.077 -2.0635  2.2248  0.9199
 3748TIP3   OH232734   3.455   5.204   1.483  0.1399 -0.1769  0.5913
 3748TIP3    H132735   3.375   5.247   1.451  1.5662  1.3820 -1.2121
 3748TIP3    H232736   3.466   5.237   1.572 -0.9883 -0.0764  0.7087
 3749TIP3   OH232737   5.218   5.132  14.535  0.5584  0.3080 -0.3387
 3749TIP3    H132738   5.176   5.063  14.588  1.6827  0.2212  0.4670
 3749TIP3    H232739   5.241   5.199  14.598  0.5251  0.9080 -0.9581
 3750TIP3   OH232740   0.566   1.874  13.768  0.7139  0.2023 -0.2891
 3750TIP3    H132741   0.601   1.812  13.704  1.3324 -0.3883  0.5913
 3750TIP3    H232742   0.640   1.895  13.825  0.2704  0.9944  0.0245
 3751TIP3   OH232743   6.655   2.515  12.498  0.0029  0.0642  0.1023
 3751TIP3    H132744   6.641   2.506  12.592 -1.1319  0.3139 -0.0279
 3751TIP3    H232745   6.660   2.425  12.465 -2.3389 -0.1136  0.0486
 3752TIP3   OH232746   1.987   0.439   2.987  0.4286 -0.2095 -0.2879
 3752TIP3    H132747   2.011   0.362   2.935  0.8938  0.1801 -0.6659
 3752TIP3    H232748   1.893   0.449   2.974  0.0362 -1.6571  1.0559
 3753TIP3   OH232749   6.630   4.629  16.506 -0.0425  0.2752 -0.2055
 3753TIP3    H132750   6.676   4.592  16.431 -0.7050  2.3296 -1.7352
 3753TIP3    H232751   6.600   4.553  16.556  3.8672 -1.1904  0.2812
 3754TIP3   OH232752   5.740   2.527   0.500 -0.0392  0.1985 -0.0624
 3754TIP3    H132753   5.702   2.609   0.468 -0.9300 -0.7344 -1.4754
 3754TIP3    H232754   5.835   2.542   0.495 -0.1617  1.6307  1.0740
 3755TIP3   OH232755   5.364   1.802  14.361 -0.3334 -0.1766 -0.5766
 3755TIP3    H132756   5.351   1.895  14.342  1.2893  0.1314 -0.3348
 3755TIP3    H232757   5.285   1.759  14.327 -1.6591  1.4025  0.3667
 3756TIP3   OH232758   3.853   5.752  13.696 -0.0847  0.7172  0.0321
 3756TIP3    H132759   3.919   5.719  13.757  0.8488  2.5636  0.0879
 3756TIP3    H232760   3.903   5.802  13.632 -1.2048  0.0647 -1.4005
 3757TIP3   OH232761   2.145   6.671  13.234 -0.0580 -0.1177  0.2002
 3757TIP3    H132762   2.054   6.643  13.218 -0.0637 -1.3680  1.9781
 3757TIP3    H232763   2.149   6.761  13.203 -2.0006  0.0475  0.3018
 3758TIP3   OH232764   4.184   4.586  14.901  0.2065 -0.0739  0.2040
 3758TIP3    H132765   4.150   4.672  14.880 -0.9020 -0.6413 -0.4213
 3758TIP3    H232766   4.218   4.594  14.990  1.8257  1.4678 -0.5056
 3759TIP3   OH232767   5.087   3.791  13.552  0.4956 -0.3566 -0.0605
 3759TIP3    H132768   5.115   3.722  13.612  1.3922  0.0111 -0.0377
 3759TIP3    H232769   5.010   3.755  13.508 -0.9718 -0.1575  2.1918
 3760TIP3   OH232770   3.616   1.755   3.750  0.1880  0.9525  0.0129
 3760TIP3    H132771   3.536   1.706   3.766 -0.0449  0.4501 -2.2865
 3760TIP3    H232772   3.676   1.727   3.819 -0.7709 -0.6656  0.2349
 3761TIP3   OH232773   4.699   2.723  11.489  0.1157  0.1053  0.1577
 3761TIP3    H132774   4.634   2.664  11.452 -0.3055 -0.6824  2.0927
 3761TIP3    H232775   4.672   2.736  11.579  1.0260  2.1196  0.1882
 3762TIP3   OH232776   4.276   3.695  15.699  0.0446 -0.0362  0.9313
 3762TIP3    H132777   4.221   3.641  15.756 -3.1373 -0.7302 -2.4340
 3762TIP3    H232778   4.322   3.631  15.644 -1.1058  0.5648 -0.7882
 3763TIP3   OH232779   2.700   5.722  16.678  0.2685  0.1639  0.2787
 3763TIP3    H132780   2.711   5.691  16.588 -0.2320  1.5630 -0.2879
 3763TIP3    H232781   2.688   5.642  16.730  3.5671 -0.9245 -0.3991
 3764TIP3   OH232782   0.842   3.491  16.194 -0.2341  0.0447  0.6504
 3764TIP3    H132783   0.850   3.586  16.184  2.0118  0.0896  2.3212
 3764TIP3    H232784   0.837   3.458  16.104  1.0221  1.6190 -0.0433
 3765TIP3   OH232785   0.964   4.352  16.787  0.0239 -0.0380  0.2339
 3765TIP3    H132786   1.029   4.345  16.856 -0.0462 -1.4994  0.1749
 3765TIP3    H232787   0.948   4.446  16.779  1.9366  0.3496  0.4093
 3766TIP3   OH232788   0.703   5.439  14.559  0.6869 -0.2474  0.1007
 3766TIP3    H132789   0.782   5.395  14.528  1.8313  0.5277  1.7676
 3766TIP3    H232790   0.716   5.531  14.536 -0.1482 -0.2465 -0.3982
 3767TIP3   OH232791   3.179   1.941   2.690 -0.1900 -0.5182 -0.2029
 3767TIP3    H132792   3.180   1.926   2.596 -1.3806  0.7632 -0.4713
 3767TIP3    H232793   3.224   2.025   2.701  1.9253 -1.6890  0.6607
 3768TIP3   OH232794   5.301   5.128  15.696  0.5079 -0.1178  0.0456
 3768TIP3    H132795   5.368   5.184  15.658  0.9205 -0.0014  0.9346
 3768TIP3    H232796   5.219   5.174  15.679  0.8651  0.9065  0.9977
 3769TIP3   OH232797   0.905   0.873  16.667  0.4723  0.5211 -0.0083
 3769TIP3    H132798   0.888   0.779  16.676  0.8810  0.2777 -1.5141
 3769TIP3    H232799   0.899   0.907  16.756  1.0657 -1.0575  0.6736
 3770TIP3   OH232800   3.107   2.954  11.321 -0.5304 -0.1200 -0.0683
 3770TIP3    H132801   3.123   2.861  11.338 -0.6538 -0.1401 -0.0611
 3770TIP3    H232802   3.192   2.988  11.296 -0.2990 -0.0429  0.8046
 3771TIP3   OH232803   4.108   0.178  16.488 -0.4027 -0.3477  0.0202
 3771TIP3    H132804   4.090   0.163  16.395  1.0955 -1.8705 -0.0670
 3771TIP3    H232805   4.050   0.118  16.534  0.1713 -0.9322 -0.0145
 3772TIP3   OH232806   1.490   6.601  17.046  0.2194  0.2062  0.3270
 3772TIP3    H132807   1.423   6.553  17.094  0.1734  0.2105  0.2691
 3772TIP3    H232808   1.480   6.571  16.955  0.4506  0.0313  0.3575
 3773TIP3   OH232809   2.348   0.479  14.000 -0.0398 -0.1589 -0.3955
 3773TIP3    H132810   2.373   0.414  14.065 -0.9282 -1.1316 -0.9930
 3773TIP3    H232811   2.300   0.429  13.933 -0.9437  1.1408 -0.7560
 3774TIP3   OH232812   2.590   3.056   3.547  0.4483 -0.3037 -0.6790
 3774TIP3    H132813   2.683   3.047   3.569 -0.0342 -1.3457  1.2241
 3774TIP3    H232814   2.556   2.966   3.550 -0.5696  0.0344 -1.6414
 3775TIP3   OH232815   3.191   2.204  12.310 -0.3327  0.6117 -0.3367
 3775TIP3    H132816   3.137   2.173  12.382  0.2916  0.7701  0.2084
 3775TIP3    H232817   3.253   2.264  12.351  0.7729 -0.1673 -0.8187
 3776TIP3   OH232818   3.434   0.550   2.391  0.6038 -0.0713  0.6024
 3776TIP3    H132819   3.385   0.499   2.327  1.3221  0.3229 -0.2983
 3776TIP3    H232820   3.371   0.614   2.425 -0.0767 -1.0071  1.1302
 3777TIP3   OH232821   3.314   1.006   4.851  0.0510 -0.2395 -0.0814
 3777TIP3    H132822   3.333   1.009   4.945  0.5746  1.0136 -0.2144
 3777TIP3    H232823   3.219   0.993   4.846  0.3082 -3.1496  0.5842
 3778TIP3   OH232824   1.331   0.153   4.332 -0.2648 -0.1238 -0.0612
 3778TIP3    H132825   1.410   0.159   4.278  0.3420  1.4765  0.9130
 3778TIP3    H232826   1.363   0.127   4.418 -0.8999 -0.2541  0.1398
 3779TIP3   OH232827   1.936   0.449  12.902  0.0678 -0.4699 -0.3871
 3779TIP3    H132828   1.999   0.519  12.921 -0.6288  0.4232 -1.2325
 3779TIP3    H232829   1.980   0.394  12.837 -0.3703  0.7621 -1.8019
 3780TIP3   OH232830   4.308   6.095  10.727 -0.0599  0.4244  0.3139
 3780TIP3    H132831   4.359   6.122  10.650  1.9251  1.5686  1.9504
 3780TIP3    H232832   4.309   5.999  10.724  1.1514  0.4360 -0.3753
 3781TIP3   OH232833   4.209   2.903   4.092 -0.1604  0.0200 -0.3447
 3781TIP3    H132834   4.255   2.905   4.176 -0.7022  0.5342 -0.0543
 3781TIP3    H232835   4.156   2.983   4.092 -1.1570 -0.6243 -0.6077
 3782TIP3   OH232836   5.290   0.785   4.381  0.6478  0.2634 -0.0123
 3782TIP3    H132837   5.371   0.736   4.393  0.3615 -0.2940 -0.2824
 3782TIP3    H232838   5.221   0.719   4.392  0.2758  0.4337 -1.2242
 3783TIP3   OH232839   4.509   1.715  13.806  0.1914  0.1626 -0.0370
 3783TIP3    H132840   4.551   1.700  13.721  1.9083 -1.2886  0.9904
 3783TIP3    H232841   4.546   1.647  13.863 -2.8153 -0.5504  1.2639
 3784TIP3   OH232842   4.783   5.822   1.742  0.0349 -0.5561  0.1786
 3784TIP3    H132843   4.753   5.837   1.832  2.1332  1.5921  0.6405
 3784TIP3    H232844   4.868   5.779   1.752 -0.1473 -1.1568 -0.8175
 3785TIP3   OH232845   2.247   1.338   6.512 -0.4730  0.2782 -0.0554
 3785TIP3    H132846   2.324   1.281   6.505  0.9307  2.2148 -1.0733
 3785TIP3    H232847   2.194   1.297   6.581  1.2221 -1.3762  0.3495
 3786TIP3   OH232848   3.094   6.052  12.054 -0.2147 -0.0268  0.0194
 3786TIP3    H132849   3.050   5.970  12.078  2.3082 -1.2421  0.8204
 3786TIP3    H232850   3.162   6.063  12.121  1.7080  0.8853 -1.9590
 3787TIP3   OH232851   0.443   5.467   5.275 -0.3948  0.1011  0.3489
 3787TIP3    H132852   0.433   5.505   5.362 -1.3103 -0.8017  0.6559
 3787TIP3    H232853   0.366   5.411   5.264 -0.6176  0.6553 -1.2854
 3788TIP3   OH232854   6.624   6.036   1.355 -0.1506  0.3284 -0.3069
 3788TIP3    H132855   6.647   6.058   1.264 -1.4060  0.8459 -0.5172
 3788TIP3    H232856   6.531   6.015   1.352 -0.5163  1.6127  1.0706
 3789TIP3   OH232857   1.885   1.799   3.359 -0.3138  0.6625  0.0042
 3789TIP3    H132858   1.852   1.775   3.445  1.6660  1.4460  1.0535
 3789TIP3    H232859   1.910   1.716   3.319  0.4974  0.4151  0.9759
 3790TIP3   OH232860   5.832   3.507  16.851 -0.1365  0.5860  0.0260
 3790TIP3    H132861   5.806   3.571  16.784 -1.2871 -0.3994 -0.5098
 3790TIP3    H232862   5.770   3.435  16.840  2.0442 -1.3142 -0.3676
 3791TIP3   OH232863   0.442   0.886  12.952  0.1327 -0.4365 -0.6212
 3791TIP3    H132864   0.349   0.870  12.938  0.1689 -0.5192 -0.7749
 3791TIP3    H232865   0.445   0.945  13.027 -0.1166  0.7114 -1.4872
 3792TIP3   OH232866   5.375   2.922  10.958  0.1474 -0.0579 -0.5523
 3792TIP3    H132867   5.451   2.877  10.921 -0.0045 -0.5741 -0.2464
 3792TIP3    H232868   5.412   2.983  11.022  0.2815 -0.6580 -0.0466
 3793TIP3   OH232869   4.809   4.349  11.408 -0.2351  0.1616  0.6515
 3793TIP3    H132870   4.727   4.309  11.380 -1.0353  0.7799  1.9995
 3793TIP3    H232871   4.877   4.298  11.365 -1.3056 -0.9204  0.1953
 3794TIP3   OH232872   2.373   5.004   4.029  0.3518 -0.3252 -0.1341
 3794TIP3    H132873   2.366   5.006   4.125  0.7812  1.1522 -0.1124
 3794TIP3    H232874   2.282   5.006   3.999  0.2266 -0.2465  0.2459
 3795TIP3   OH232875   6.319   4.864  14.439  0.0938  0.7402 -0.4384
 3795TIP3    H132876   6.280   4.790  14.392 -0.5436  0.5264  0.3898
 3795TIP3    H232877   6.293   4.940  14.388 -0.9512  0.5496 -0.2235
 3796TIP3   OH232878   5.001   4.898  12.161  0.4648  0.2989 -0.3791
 3796TIP3    H132879   5.094   4.922  12.156  0.4699  0.6121  0.9791
 3796TIP3    H232880   4.957   4.966  12.109  0.8243  1.2487  0.5258
 3797TIP3   OH232881   1.318   6.751  11.215 -0.1457  0.0113 -0.2488
 3797TIP3    H132882   1.275   6.803  11.147 -2.7615 -0.1964  1.1396
 3797TIP3    H232883   1.393   6.711  11.170  0.1963  2.5160 -2.1071
 3798TIP3   OH232884   0.755   3.044   5.588  1.1187 -0.0010 -0.3632
 3798TIP3    H132885   0.673   3.021   5.632  0.0726  2.9684 -0.5173
 3798TIP3    H232886   0.773   3.134   5.618  3.4857 -0.0014 -1.5763
 3799TIP3   OH232887   6.265   0.821   5.484 -0.0690  0.5535  0.6001
 3799TIP3    H132888   6.306   0.760   5.546  0.5964 -1.4328 -1.6339
 3799TIP3    H232889   6.188   0.855   5.531  1.4933  0.7507  3.1967
 3800TIP3   OH232890   2.313   5.334   5.190  0.4095 -0.5610 -0.2194
 3800TIP3    H132891   2.278   5.295   5.110 -0.2111 -2.7805  1.0578
 3800TIP3    H232892   2.236   5.353   5.243  0.7877  1.2623 -0.2492
 3801TIP3   OH232893   3.275   3.304   0.059 -0.3420 -0.1204 -0.0070
 3801TIP3    H132894   3.268   3.226   0.115  0.6344 -0.3272 -0.1578
 3801TIP3    H232895   3.361   3.296   0.017 -0.3307  0.9194 -0.2121
 3802TIP3   OH232896   3.923   1.242  15.684 -0.3953 -0.0487 -0.4319
 3802TIP3    H132897   3.942   1.265  15.593  1.9780 -0.2000 -0.0462
 3802TIP3    H232898   3.828   1.238  15.688 -0.6096  1.0350 -2.6336
 3803TIP3   OH232899   2.137   0.754  13.968  0.2989 -0.0872  0.2990
 3803TIP3    H132900   2.066   0.713  13.919  0.0052 -0.3745  0.9530
 3803TIP3    H232901   2.216   0.724  13.923  0.0727 -1.0796  0.5349
 3804TIP3   OH232902   2.711   4.110   3.878  0.1610 -0.2009 -0.2720
 3804TIP3    H132903   2.778   4.058   3.833 -0.7428 -0.7158 -1.0751
 3804TIP3    H232904   2.629   4.065   3.857 -0.4736  0.6471  0.3536
 3805TIP3   OH232905   6.263   0.015  12.526  0.0604  0.7181 -0.2340
 3805TIP3    H132906   6.237   0.035  12.616  1.4005  0.0869  0.3232
 3805TIP3    H232907   6.318   0.090  12.500  2.5876 -0.6567  0.7822
 3806TIP3   OH232908   0.906   0.998  12.928 -0.5941 -0.2569 -0.8425
 3806TIP3    H132909   0.951   0.988  12.845  0.7825 -0.6377 -0.0790
 3806TIP3    H232910   0.971   1.039  12.985 -1.8151  0.8493 -0.2062
 3807TIP3   OH232911   0.191   4.470  12.505  0.3536 -0.1144  0.1510
 3807TIP3    H132912   0.235   4.396  12.463  1.3652  1.0805 -0.9682
 3807TIP3    H232913   0.104   4.472  12.464  0.5700 -0.2593 -0.3198
 3808TIP3   OH232914   6.718   0.403   4.147  0.4063  0.2934  0.2841
 3808TIP3    H132915   6.793   0.402   4.207  0.8242 -1.4846 -0.2141
 3808TIP3    H232916   6.754   0.434   4.064  0.9283 -1.7148 -0.2945
 3809TIP3   OH232917   2.632   6.452   6.170  0.3064  0.3837  0.4333
 3809TIP3    H132918   2.550   6.495   6.146  0.1334  0.7914  1.6614
 3809TIP3    H232919   2.688   6.523   6.199  0.8606  0.0285  0.2427
 3810TIP3   OH232920   6.307   6.683  15.387 -0.1378 -0.4332 -0.2260
 3810TIP3    H132921   6.302   6.588  15.382 -0.1540 -0.4758  0.4972
 3810TIP3    H232922   6.315   6.702  15.481  1.0931  0.2118 -0.4286
 3811TIP3   OH232923   2.959   1.787  15.043 -0.1023 -0.3903 -0.0547
 3811TIP3    H132924   3.021   1.848  15.004  0.0605 -0.8765 -0.5734
 3811TIP3    H232925   3.013   1.714  15.073 -0.3261 -0.4128  0.3144
 3812TIP3   OH232926   6.156   5.940   5.519 -1.1039  0.3041  0.3919
 3812TIP3    H132927   6.116   5.968   5.601 -2.5098 -1.5690  0.4141
 3812TIP3    H232928   6.108   5.987   5.451 -0.0515  1.7255  0.5884
 3813TIP3   OH232929   3.854   2.988   3.943 -0.1446  0.2587 -0.2183
 3813TIP3    H132930   3.767   3.010   3.977  0.8455  5.3830 -0.1512
 3813TIP3    H232931   3.915   3.030   4.003  2.2376 -0.5254 -1.9382
 3814TIP3   OH232932   1.242   3.124   3.265 -0.5362  0.4418 -0.1756
 3814TIP3    H132933   1.300   3.104   3.191 -1.3382  1.0203 -0.9962
 3814TIP3    H232934   1.301   3.142   3.338  0.3744  1.8540 -1.2009
 3815TIP3   OH232935   0.834   4.510  12.761 -0.4298  0.2488 -0.4073
 3815TIP3    H132936   0.824   4.475  12.673 -0.2438  1.7360 -1.0621
 3815TIP3    H232937   0.810   4.603  12.752  1.0147  0.7721  0.7833
 3816TIP3   OH232938   5.698   0.395   5.559  0.1243  0.0609  0.3335
 3816TIP3    H132939   5.675   0.431   5.473 -1.2946 -0.2039  0.5712
 3816TIP3    H232940   5.767   0.452   5.591 -0.2505  0.9803 -0.4262
 3817TIP3   OH232941   0.171   2.451   6.152  0.2513  0.1947 -0.3080
 3817TIP3    H132942   0.114   2.528   6.147  0.9274  0.7315  0.0523
 3817TIP3    H232943   0.113   2.381   6.182 -0.5232  0.3921 -1.2672
 3818TIP3   OH232944   6.249   2.205  12.194 -0.7495 -0.3280  0.1225
 3818TIP3    H132945   6.226   2.270  12.128 -0.4061 -0.9019 -0.5764
 3818TIP3    H232946   6.290   2.256  12.264 -0.4102  0.2090 -0.4524
 3819TIP3   OH232947   4.424   4.354   4.221  0.2772  0.0152 -0.3751
 3819TIP3    H132948   4.471   4.438   4.214  1.1094 -0.4970 -1.2612
 3819TIP3    H232949   4.344   4.367   4.171  0.4386  0.2699 -0.5714
 3820TIP3   OH232950   6.131   5.343  13.480 -0.3861 -0.3327 -0.4188
 3820TIP3    H132951   6.150   5.433  13.452 -1.1760  0.2324  0.7550
 3820TIP3    H232952   6.120   5.350  13.575 -1.1691 -1.5448 -0.4058
 3821TIP3   OH232953   6.033   4.355  13.097 -0.2004 -0.7459 -0.3902
 3821TIP3    H132954   6.037   4.448  13.073 -0.4017 -0.6050  0.1183
 3821TIP3    H232955   6.108   4.316  13.051  0.2659 -0.2127 -0.0907
 3822TIP3   OH232956   6.692   4.077  12.480  0.0767 -0.4334 -0.3126
 3822TIP3    H132957   6.783   4.048  12.468  0.8751  0.3236  2.7236
 3822TIP3    H232958   6.647   4.001  12.517 -0.3326 -0.5814 -1.1107
 3823TIP3   OH232959   3.497   5.262   3.896 -0.2423  0.1290 -0.2681
 3823TIP3    H132960   3.428   5.252   3.962 -1.0810  0.0732 -1.1292
 3823TIP3    H232961   3.550   5.334   3.929 -1.9316  1.6039 -0.5801
 3824TIP3   OH232962   2.779   0.918   4.169 -0.1746  0.3137  0.5396
 3824TIP3    H132963   2.722   0.982   4.211 -1.2058 -0.7024  0.7519
 3824TIP3    H232964   2.824   0.968   4.101  0.0451  1.5408  1.5432
 3825TIP3   OH232965   6.617   1.162  17.049  0.2395 -0.1379 -0.1354
 3825TIP3    H132966   6.707   1.182  17.073  0.9363  0.3120 -2.7929
 3825TIP3    H232967   6.616   1.166  16.953 -3.0365  1.7674 -0.1837
 3826TIP3   OH232968   3.314   3.961   1.981  0.2096 -0.0189  0.1531
 3826TIP3    H132969   3.245   3.895   1.972 -0.0596  0.3225 -0.3438
 3826TIP3    H232970   3.387   3.927   1.929 -0.4555  0.7633 -1.3589
 3827TIP3   OH232971   4.199   0.368   2.957  0.2243 -0.1577  0.1461
 3827TIP3    H132972   4.250   0.444   2.933  2.2458 -1.5673 -0.2329
 3827TIP3    H232973   4.207   0.308   2.883 -0.9925 -0.9216  0.5886
 3828TIP3   OH232974   0.183   4.881  16.605 -0.2275 -0.1558  0.0690
 3828TIP3    H132975   0.249   4.853  16.669  0.9223  2.6585  0.2793
 3828TIP3    H232976   0.233   4.904  16.527 -1.1199  0.5758 -0.3104
 3829TIP3   OH232977   5.902   3.286  12.081 -0.5215  0.2130  0.1738
 3829TIP3    H132978   5.867   3.290  12.170  1.0874 -2.3871  1.0192
 3829TIP3    H232979   5.869   3.203  12.046  1.2128 -0.2183 -0.5410
 3830TIP3   OH232980   1.754   0.909   2.547 -0.0470  0.7626 -0.1886
 3830TIP3    H132981   1.804   0.952   2.477  0.7354  1.1373  0.5780
 3830TIP3    H232982   1.714   0.981   2.595  3.4621  1.0220  2.7813
 3831TIP3   OH232983   1.509   5.139  14.979 -0.4341  0.3474  0.0388
 3831TIP3    H132984   1.452   5.216  14.986 -0.9453  0.3428 -2.7685
 3831TIP3    H232985   1.597   5.173  14.997 -0.9129  1.0777  1.0849
 3832TIP3   OH232986   5.581   6.115   1.958  0.2609 -0.5717 -0.7038
 3832TIP3    H132987   5.609   6.043   1.901 -2.5159 -1.8448 -0.6128
 3832TIP3    H232988   5.517   6.075   2.017 -0.8618  1.8638 -0.1723
 3833TIP3   OH232989   5.600   6.391   4.187  0.0587  0.2492 -0.0058
 3833TIP3    H132990   5.668   6.393   4.254  0.4358 -2.1511 -0.2345
 3833TIP3    H232991   5.619   6.466   4.131  1.5470  0.5525  0.8690
 3834TIP3   OH232992   2.161   0.903   2.586 -0.1482 -0.1944  0.5231
 3834TIP3    H132993   2.236   0.900   2.645  2.3852 -0.2454 -2.3846
 3834TIP3    H232994   2.178   0.980   2.531 -0.0721 -2.2411 -2.6288
 3835TIP3   OH232995   4.865   2.591   3.574  0.5908  0.0839 -0.1636
 3835TIP3    H132996   4.847   2.561   3.485  0.5589 -0.4207  0.0097
 3835TIP3    H232997   4.860   2.686   3.569 -2.7217  0.0180 -0.0116
 3836TIP3   OH232998   4.234   0.438   1.431  0.0357 -0.0507  0.5675
 3836TIP3    H132999   4.254   0.390   1.351 -0.8034  1.5496 -0.6610
 3836TIP3    H233000   4.139   0.433   1.439 -0.2637  2.4418 -0.3771
 3837TIP3   OH233001   3.415   5.530  12.804  0.6788 -0.6539  0.6504
 3837TIP3    H133002   3.460   5.576  12.733  0.2724 -0.7697  0.3121
 3837TIP3    H233003   3.441   5.438  12.794  1.8266 -0.4561  1.5814
 3838TIP3   OH233004   5.968   6.447  14.263  0.1593  0.5887 -0.0944
 3838TIP3    H133005   5.924   6.471  14.345 -0.6222  2.0405 -0.8914
 3838TIP3    H233006   6.047   6.500  14.261 -0.7309  1.9826 -1.0729
 3839TIP3   OH233007   4.688   0.197  17.229 -0.0687 -0.1060 -0.2240
 3839TIP3    H133008   4.711   0.118  17.279  1.8395 -0.0140 -0.8653
 3839TIP3    H233009   4.669   0.263  17.295  1.9679 -0.1081  0.4315
 3840TIP3   OH233010   5.199   3.947   6.211  0.1888 -0.5137  0.6124
 3840TIP3    H133011   5.247   4.027   6.233  0.9191 -0.5107 -0.8531
 3840TIP3    H233012   5.110   3.976   6.194  1.0385  0.5960 -2.8550
 3841TIP3   OH233013   5.440   6.594  11.527  0.0204  0.0783 -0.7026
 3841TIP3    H133014   5.418   6.563  11.614  1.0514  0.3469 -0.3314
 3841TIP3    H233015   5.454   6.514  11.476 -0.1347 -0.0740 -0.5058
 3842TIP3   OH233016   6.060   2.721  12.378 -0.3200 -0.1217 -0.5845
 3842TIP3    H133017   6.112   2.801  12.387 -1.2994  0.6824 -1.8042
 3842TIP3    H233018   5.993   2.728  12.445 -0.3148  0.0091 -0.5928
 3843TIP3   OH233019   2.696   0.202   6.201  0.7374  0.6398 -0.0147
 3843TIP3    H133020   2.733   0.115   6.214 -0.6016  0.1363  0.6793
 3843TIP3    H233021   2.708   0.246   6.285 -0.2279  0.4487  0.2413
 3844TIP3   OH233022   2.943   3.151  11.408  0.2000  0.0073  0.3322
 3844TIP3    H133023   2.860   3.121  11.371  0.3103  0.1993 -0.0740
 3844TIP3    H233024   3.003   3.078  11.395  0.5672  0.5250 -0.9894
 3845TIP3   OH233025   6.107   3.154   0.440 -0.3282 -0.3191 -0.3165
 3845TIP3    H133026   6.055   3.117   0.511 -0.3397  1.7814  0.8586
 3845TIP3    H233027   6.160   3.223   0.481 -0.2796  0.9387 -2.2991
 3846TIP3   OH233028   2.661   4.806  16.695  0.5397  0.5109  0.1316
 3846TIP3    H133029   2.690   4.719  16.722  1.8304  0.5799 -0.9378
 3846TIP3    H233030   2.573   4.815  16.732  0.5842 -1.0481  0.6631
 3847TIP3   OH233031   0.483   3.667   5.501  0.1301 -0.1243 -0.0508
 3847TIP3    H133032   0.412   3.670   5.565 -0.5435 -0.7867 -0.7593
 3847TIP3    H233033   0.537   3.743   5.523 -0.4550  0.0412  0.8806
 3848TIP3   OH233034   5.078   1.879   6.136 -0.4387 -0.4718  0.1540
 3848TIP3    H133035   5.104   1.969   6.158 -0.5650 -0.7399  1.5047
 3848TIP3    H233036   5.157   1.827   6.148  0.1302 -0.3153 -2.4314
 3849TIP3   OH233037   2.767   0.291  11.772  0.3293  0.1456 -0.3090
 3849TIP3    H133038   2.831   0.357  11.747  0.6307  0.6338  1.6008
 3849TIP3    H233039   2.736   0.318  11.858 -0.3106 -1.6520  0.0843
 3850TIP3   OH233040   5.167   6.784  17.267  0.1442  0.0809  0.0467
 3850TIP3    H133041   5.143   6.705  17.219  2.1482 -2.2199  2.4853
 3850TIP3    H233042   5.133   6.769  17.356  3.9567 -0.0791  1.6586
 3851TIP3   OH233043   1.995   5.688  12.066  0.4702  0.1584 -0.2069
 3851TIP3    H133044   2.048   5.765  12.045 -0.5794  1.4684  1.6570
 3851TIP3    H233045   2.052   5.634  12.120  0.1122  1.3614  1.4389
 3852TIP3   OH233046   5.647   6.551  15.059  0.1914 -0.2244 -0.4505
 3852TIP3    H133047   5.640   6.479  14.996 -0.0298 -1.3920  0.8581
 3852TIP3    H233048   5.737   6.545  15.091  0.3091  0.3830 -0.6442
 3853TIP3   OH233049   0.653   4.124  11.767  0.0818  0.2593 -0.0778
 3853TIP3    H133050   0.585   4.189  11.752 -0.0092  0.0915 -0.3804
 3853TIP3    H233051   0.696   4.113  11.682 -1.1303 -1.4766 -0.5052
 3854TIP3   OH233052   2.081   0.382  17.093  0.0399 -0.0672 -0.0760
 3854TIP3    H133053   2.050   0.326  17.164  0.4735 -0.2870 -0.0610
 3854TIP3    H233054   2.175   0.366  17.088  0.1368  0.5204 -0.1959
 3855TIP3   OH233055   1.514   3.444  11.719 -0.0374 -0.4867 -0.2460
 3855TIP3    H133056   1.583   3.401  11.770  0.4863  0.4304 -0.1577
 3855TIP3    H233057   1.548   3.532  11.702 -1.3712  0.1277  0.1553
 3856TIP3   OH233058   5.901   5.953   3.972 -0.7296 -0.0615 -0.2391
 3856TIP3    H133059   5.834   5.993   3.917 -1.2583  0.7380  0.9572
 3856TIP3    H233060   5.924   6.020   4.036  2.3533  0.2685 -1.5228
 3857TIP3   OH233061   3.474   1.874   0.266  0.4724  0.0059  0.6435
 3857TIP3    H133062   3.379   1.882   0.263  0.6215  1.9318 -0.1469
 3857TIP3    H233063   3.507   1.958   0.235  2.4434 -1.0921 -0.4956
 3858TIP3   OH233064   1.903   1.943  13.876 -0.3058 -0.2350  0.5664
 3858TIP3    H133065   1.822   1.894  13.881 -0.4297 -0.0265  0.6207
 3858TIP3    H233066   1.946   1.928  13.960  0.6805 -1.9951 -0.1985
 3859TIP3   OH233067   3.360   1.428   1.974 -0.0247 -0.3364  0.3633
 3859TIP3    H133068   3.408   1.352   2.006 -0.7752 -1.3172 -0.7719
 3859TIP3    H233069   3.298   1.393   1.910  0.1345  1.3152 -0.7619
 3860TIP3   OH233070   2.332   0.417  15.683  0.2854 -0.3175  0.9409
 3860TIP3    H133071   2.295   0.349  15.628  0.9046 -1.4657  1.8994
 3860TIP3    H233072   2.285   0.408  15.767  1.4705 -0.6361  1.5892
 3861TIP3   OH233073   6.329   1.533  13.395  0.6151 -0.6648  0.5385
 3861TIP3    H133074   6.378   1.495  13.468 -0.1309  0.4011  1.6256
 3861TIP3    H233075   6.394   1.586  13.348  0.6064  0.4863  1.7841
 3862TIP3   OH233076   6.623   3.637   2.965  0.2555 -0.2770  0.3264
 3862TIP3    H133077   6.691   3.683   3.014  1.4364 -2.9539  1.4235
 3862TIP3    H233078   6.652   3.546   2.964 -2.4810 -1.2514 -0.6708
 3863TIP3   OH233079   3.441   1.793   2.242 -0.1711 -0.1134 -0.0555
 3863TIP3    H133080   3.526   1.824   2.213 -0.0089 -0.4698  0.0343
 3863TIP3    H233081   3.445   1.698   2.232 -1.5183  0.0006 -2.7418
 3864TIP3   OH233082   2.775   1.857   0.300 -0.3776  0.0929 -0.0379
 3864TIP3    H133083   2.767   1.935   0.246 -0.6697  0.5354  0.6260
 3864TIP3    H233084   2.824   1.795   0.246  1.3267  1.3230  0.0166
 3865TIP3   OH233085   4.003   6.499  16.809 -0.2332  0.0531 -0.5358
 3865TIP3    H133086   3.938   6.568  16.822 -0.8991 -0.6647  0.0877
 3865TIP3    H233087   4.087   6.540  16.826 -0.5570  0.8968 -0.9375
 3866TIP3   OH233088   0.375   1.462   2.613  0.3225 -0.2842  0.6782
 3866TIP3    H133089   0.402   1.371   2.600  0.6882 -0.0346 -0.3560
 3866TIP3    H233090   0.287   1.466   2.576  0.9103  0.1465 -0.7110
 3867TIP3   OH233091   3.927   4.022  13.963  0.1816  0.4982 -0.4793
 3867TIP3    H133092   3.971   4.057  14.041 -1.0539  1.0382 -0.0122
 3867TIP3    H233093   3.968   4.067  13.890  0.4721  0.9157 -0.0649
 3868TIP3   OH233094   3.526   0.463   0.308 -0.1526 -0.2742 -0.1614
 3868TIP3    H133095   3.605   0.479   0.359  1.3437 -3.3344 -1.2658
 3868TIP3    H233096   3.459   0.442   0.372  0.5741  0.0352  0.7154
 3869TIP3   OH233097   1.880   0.803  16.987 -0.2641 -0.6809 -1.0284
 3869TIP3    H133098   1.954   0.853  16.953  0.4040 -0.6206  0.4448
 3869TIP3    H233099   1.918   0.721  17.018 -1.1785 -1.6403 -2.3384
 3870TIP3   OH233100   3.363   6.110   1.680  0.0631 -0.0563  0.2629
 3870TIP3    H133101   3.301   6.085   1.748 -1.7967 -0.9906 -1.6534
 3870TIP3    H233102   3.367   6.034   1.621 -0.3065  1.5255 -1.9493
 3871TIP3   OH233103   6.497   3.635   5.857  0.0661  0.3024  0.3808
 3871TIP3    H133104   6.532   3.576   5.924  0.0714  1.0932  1.0806
 3871TIP3    H233105   6.425   3.585   5.817  1.7943 -1.2873 -0.9470
 3872TIP3   OH233106   4.600   0.948   6.470  0.6591 -0.0165 -0.5111
 3872TIP3    H133107   4.518   0.987   6.439  0.8748  0.3353 -0.6465
 3872TIP3    H233108   4.600   0.966   6.564  1.4181  1.5742 -0.7865
 3873TIP3   OH233109   0.266   5.309  14.622  0.4948 -0.5761 -0.3742
 3873TIP3    H133110   0.337   5.299  14.558 -0.1640  0.6068 -1.3252
 3873TIP3    H233111   0.192   5.262  14.584  0.0250  0.3438 -0.6060
 3874TIP3   OH233112   1.795   3.519  12.166 -0.1907  0.1404 -0.0875
 3874TIP3    H133113   1.732   3.573  12.119 -0.3190 -1.7987 -2.3934
 3874TIP3    H233114   1.743   3.472  12.232 -0.7878  0.0805 -0.5922
 3875TIP3   OH233115   1.482   2.220  12.782 -0.6562 -0.6337  0.7635
 3875TIP3    H133116   1.508   2.181  12.866  2.0059  1.2198  0.9510
 3875TIP3    H233117   1.525   2.306  12.782 -0.4807 -0.6029 -2.5185
 3876TIP3   OH233118   3.217   0.744   1.525  0.4460  0.0585  0.6659
 3876TIP3    H133119   3.281   0.788   1.582 -0.8183  0.5766  1.7566
 3876TIP3    H233120   3.269   0.693   1.464  1.8920  0.3410  1.6247
 3877TIP3   OH233121   2.559   2.472   5.630  0.1326 -0.2204  0.0887
 3877TIP3    H133122   2.632   2.530   5.610  0.8113 -0.6019  1.3290
 3877TIP3    H233123   2.546   2.481   5.725 -1.1730 -0.4672 -0.0394
 3878TIP3   OH233124   6.695   2.279  10.829 -0.3137 -0.4881  0.2517
 3878TIP3    H133125   6.656   2.282  10.742 -0.0326 -2.0031  0.0331
 3878TIP3    H233126   6.781   2.318  10.819 -0.4501 -0.2643 -0.0516
 3879TIP3   OH233127   6.761   3.347  16.642  0.7161  0.4598 -0.2694
 3879TIP3    H133128   6.765   3.287  16.568  0.1347 -0.0019  0.0571
 3879TIP3    H233129   6.713   3.423  16.610 -1.4856 -0.6445  0.1921
 3880TIP3   OH233130   3.007   0.929   2.564 -0.1004 -0.1505 -0.3349
 3880TIP3    H133131   3.028   1.004   2.620  0.6472 -0.7887  0.2669
 3880TIP3    H233132   3.077   0.927   2.499 -0.1286 -0.3064 -0.3608
 3881TIP3   OH233133   6.716   0.666  16.434  0.2995  0.0787  0.3666
 3881TIP3    H133134   6.637   0.614  16.421 -0.8800  2.0409 -0.8491
 3881TIP3    H233135   6.748   0.640  16.520 -2.1422 -0.1887  1.2681
 3882TIP3   OH233136   3.624   0.367  12.202 -0.6030 -0.0481 -0.5949
 3882TIP3    H133137   3.674   0.294  12.166 -1.3033 -0.3978 -0.8880
 3882TIP3    H233138   3.558   0.325  12.257 -1.9683  0.2433 -1.9320
 3883TIP3   OH233139   3.207   0.328  11.705 -0.1693  0.0196 -0.1819
 3883TIP3    H133140   3.150   0.278  11.647 -0.4242  0.8005 -0.6137
 3883TIP3    H233141   3.168   0.415  11.708  2.0369  1.1657 -2.0340
 3884TIP3   OH233142   3.607   6.809  15.802 -0.1475  0.4425  0.3340
 3884TIP3    H133143   3.659   6.737  15.767 -0.8637 -0.4170  0.9830
 3884TIP3    H233144   3.669   6.862  15.853  0.9237  1.7457 -2.1652
 3885TIP3   OH233145   6.237   1.281  14.878 -0.9111 -0.2304  0.6445
 3885TIP3    H133146   6.282   1.360  14.909  1.0847 -1.3472  0.7239
 3885TIP3    H233147   6.250   1.282  14.783  0.2029 -1.0582  0.7666
 3886TIP3   OH233148   1.342   3.993   6.088  0.2214 -0.9885  0.1105
 3886TIP3    H133149   1.403   3.924   6.113 -0.1623 -1.6392 -0.7066
 3886TIP3    H233150   1.256   3.952   6.093 -0.1137 -0.2515  0.6581
 3887TIP3   OH233151   0.535   3.251  13.430 -0.1201 -0.1795 -1.0535
 3887TIP3    H133152   0.599   3.312  13.466 -1.5516  1.2345 -0.7314
 3887TIP3    H233153   0.558   3.244  13.337  1.1138 -0.5550 -0.7348
 3888TIP3   OH233154   1.083   0.812  14.793 -0.2992  0.0932 -0.5226
 3888TIP3    H133155   1.051   0.736  14.842  0.7761 -0.3108 -0.4137
 3888TIP3    H233156   1.006   0.846  14.748 -1.1170 -0.1256  0.6634
 3889TIP3   OH233157   0.834   5.427  11.760  0.4497 -0.4199 -0.0011
 3889TIP3    H133158   0.797   5.461  11.679 -0.5743 -1.0027  0.2044
 3889TIP3    H233159   0.927   5.416  11.741  0.2940 -0.1743 -0.9654
 3890TIP3   OH233160   1.338   5.174   3.492 -0.0640 -0.7076 -0.1010
 3890TIP3    H133161   1.414   5.139   3.539  1.0438  0.2902 -1.0525
 3890TIP3    H233162   1.267   5.171   3.555  1.4416  0.9425  1.8388
 3891TIP3   OH233163   4.358   1.011  14.280  0.0979  0.5870 -0.2546
 3891TIP3    H133164   4.351   0.972  14.367 -1.1696  0.2085 -0.4987
 3891TIP3    H233165   4.412   1.088  14.292  0.7962 -0.0281  0.6697
 3892TIP3   OH233166   2.902   6.310   2.396 -0.0566  0.1684  0.4262
 3892TIP3    H133167   2.831   6.268   2.348  0.4369 -1.7641  1.2920
 3892TIP3    H233168   2.895   6.275   2.485  2.6123 -0.9712  0.2777
 3893TIP3   OH233169   5.399   5.025   2.803 -0.1992 -0.6192  0.5303
 3893TIP3    H133170   5.477   5.023   2.860 -0.1825  0.1566  0.5485
 3893TIP3    H233171   5.326   5.038   2.864 -0.4470 -2.1382  0.5934
 3894TIP3   OH233172   5.787   5.572  16.552 -0.1602  0.0027 -0.2014
 3894TIP3    H133173   5.851   5.566  16.481  0.3112  0.3489  0.1776
 3894TIP3    H233174   5.779   5.666  16.568 -0.0538 -0.0819  0.3773
 3895TIP3   OH233175   3.333   4.935   2.104  0.1985  0.1661  0.7404
 3895TIP3    H133176   3.261   4.965   2.160 -0.7662  2.3856 -1.4716
 3895TIP3    H233177   3.301   4.853   2.066 -0.4051  0.2155  1.1220
 3896TIP3   OH233178   0.989   0.143  12.843  0.3424  0.3399  0.1922
 3896TIP3    H133179   1.062   0.149  12.781 -0.9934 -0.1586 -1.5154
 3896TIP3    H233180   1.018   0.078  12.907  2.1936  1.6521  0.7700
 3897TIP3   OH233181   3.479   0.982   2.082 -0.2337  0.2792  1.0504
 3897TIP3    H133182   3.531   1.024   2.151 -1.1543  1.3974  1.0936
 3897TIP3    H233183   3.515   1.019   2.001  1.5131 -1.7696  0.8029
 3898TIP3   OH233184   2.563   3.274  14.192 -0.2268 -0.2654 -0.1689
 3898TIP3    H133185   2.621   3.278  14.115  0.1880  0.5360  0.1771
 3898TIP3    H233186   2.583   3.354  14.241 -1.6099  0.0061 -0.0282
 3899TIP3   OH233187   5.819   0.633  10.677 -0.1009  0.3076 -0.0034
 3899TIP3    H133188   5.758   0.626  10.751 -0.7065  0.5870 -0.4672
 3899TIP3    H233189   5.899   0.667  10.716 -0.0491 -0.5740  0.7131
 3900TIP3   OH233190   0.256   5.163  16.418  0.1015  0.2137 -0.2318
 3900TIP3    H133191   0.265   5.079  16.373 -0.2005 -0.1514  0.3805
 3900TIP3    H233192   0.223   5.140  16.505  1.5308  0.8230  0.5065
 3901TIP3   OH233193   0.188   1.754   2.629  0.2621 -0.9251  0.3036
 3901TIP3    H133194   0.212   1.721   2.543  0.4218  2.3046 -1.0506
 3901TIP3    H233195   0.093   1.748   2.631  0.0200  1.1578 -1.2231
 3902TIP3   OH233196   1.024   2.114   1.605  0.2461  0.6687  0.0249
 3902TIP3    H133197   1.104   2.108   1.657  0.8064 -1.8192 -0.9925
 3902TIP3    H233198   1.023   2.034   1.552 -2.6979  0.8133 -0.3298
 3903TIP3   OH233199   4.833   1.475   1.858 -0.3387  0.3632 -0.4881
 3903TIP3    H133200   4.834   1.569   1.876  1.7052  0.3253 -0.1010
 3903TIP3    H233201   4.848   1.435   1.944 -1.4653 -0.3454 -0.6065
 3904TIP3   OH233202   4.080   2.005  13.056 -0.1297 -0.4698 -0.2728
 3904TIP3    H133203   3.992   2.005  13.017 -0.3930  1.4844  0.1676
 3904TIP3    H233204   4.128   2.071  13.006 -0.1123  1.2231  1.8106
 3905TIP3   OH233205   5.899   1.299   2.312  0.2771  0.1682  0.3362
 3905TIP3    H133206   5.875   1.365   2.248  0.7488  0.7676  0.7706
 3905TIP3    H233207   5.928   1.224   2.259 -1.0321 -0.0139 -0.1629
 3906TIP3   OH233208   1.314   0.645  13.020 -0.2215 -0.2735 -0.1345
 3906TIP3    H133209   1.316   0.554  13.049  2.4481 -0.0729  0.6470
 3906TIP3    H233210   1.302   0.695  13.100 -0.5978  0.0945 -0.4191
 3907TIP3   OH233211   0.703   2.289  15.306 -0.3062 -0.0991  0.4815
 3907TIP3    H133212   0.666   2.367  15.348  0.9880  1.2547 -0.7766
 3907TIP3    H233213   0.685   2.301  15.213  0.6648 -0.8681  0.1769
 3908TIP3   OH233214   0.486   5.640   0.330  0.2460  0.2257  0.3370
 3908TIP3    H133215   0.447   5.560   0.293  0.3083  0.4514 -0.2277
 3908TIP3    H233216   0.547   5.670   0.263  0.2540  0.7253  0.5666
 3909TIP3   OH233217   1.808   1.881  16.449  0.0787  0.5688  0.3658
 3909TIP3    H133218   1.866   1.941  16.403 -0.8339  0.1158 -1.5017
 3909TIP3    H233219   1.865   1.811  16.479  0.8090  1.2124  0.5000
 3910TIP3   OH233220   3.139   5.894   2.667  0.3341  0.1452  0.6508
 3910TIP3    H133221   3.129   5.812   2.715  0.3156  0.7229  1.6580
 3910TIP3    H233222   3.119   5.962   2.731 -1.9907  0.8996 -0.7750
 3911TIP3   OH233223   4.782   5.563  10.404 -0.5926 -0.0693 -0.7589
 3911TIP3    H133224   4.816   5.474  10.409 -0.6384 -0.0310  0.3835
 3911TIP3    H233225   4.813   5.606  10.483 -1.9449  0.4414 -0.4710
 3912TIP3   OH233226   3.759   0.828  13.295 -0.4944  0.1683  0.2174
 3912TIP3    H133227   3.836   0.787  13.333 -0.8857  1.5587  2.7228
 3912TIP3    H233228   3.723   0.761  13.237  1.0154 -1.5494  1.1375
 3913TIP3   OH233229   1.262   0.454  16.013 -0.0900 -0.1746  0.2672
 3913TIP3    H133230   1.350   0.415  16.016 -0.0678 -0.3502 -1.6499
 3913TIP3    H233231   1.203   0.379  16.013 -0.2220 -0.0740  0.7981
 3914TIP3   OH233232   4.547   0.775  14.555 -0.0997 -0.8946 -0.2997
 3914TIP3    H133233   4.616   0.734  14.503  1.5783 -1.1108  1.9683
 3914TIP3    H233234   4.591   0.846  14.602 -1.2124 -1.5408  1.8402
 3915TIP3   OH233235   3.443   4.373   4.246  0.0845  0.0777  0.3869
 3915TIP3    H133236   3.439   4.397   4.339  0.5963 -0.5257  0.5683
 3915TIP3    H233237   3.436   4.278   4.245 -1.4249  0.1701 -0.2993
 3916TIP3   OH233238   5.111   4.502  11.843 -0.2605 -0.4598 -0.8589
 3916TIP3    H133239   5.024   4.535  11.819 -0.2357  0.6415  0.4418
 3916TIP3    H233240   5.103   4.479  11.935  1.3573  1.7352 -0.0812
 3917TIP3   OH233241   1.955   4.966  12.326 -0.2492  0.5977  0.7013
 3917TIP3    H133242   2.031   5.019  12.351 -0.2818  0.7306  0.5167
 3917TIP3    H233243   1.989   4.900  12.267 -0.7426  2.4834 -1.8367
 3918TIP3   OH233244   1.576   0.322   3.210  0.0058 -0.6384  0.1767
 3918TIP3    H133245   1.663   0.289   3.189  0.3236  0.0587  0.3783
 3918TIP3    H233246   1.566   0.308   3.304 -0.4049 -1.3964  0.0353
 3919TIP3   OH233247   5.672   5.683   3.628 -0.0242  0.2286  0.1373
 3919TIP3    H133248   5.759   5.646   3.645  0.3953  1.7006  1.3464
 3919TIP3    H233249   5.637   5.704   3.714 -0.7852  1.4205 -0.4318
 3920TIP3   OH233250   2.237   5.063  14.289 -0.1252  0.4630 -0.0458
 3920TIP3    H133251   2.221   5.097  14.201 -1.6385  1.3805  0.5314
 3920TIP3    H233252   2.150   5.062  14.330  0.6277  0.6393  1.6363
 3921TIP3   OH233253   2.101   3.044   1.248 -0.5852  0.1892 -0.5786
 3921TIP3    H133254   2.029   3.050   1.185 -0.5417 -0.5862 -0.7192
 3921TIP3    H233255   2.178   3.072   1.200 -0.7232  0.5941 -0.5619
 3922TIP3   OH233256   5.553   1.106   4.676 -0.3508 -0.4546  0.6876
 3922TIP3    H133257   5.503   1.044   4.624  1.0818 -0.4405 -0.7837
 3922TIP3    H233258   5.497   1.183   4.683 -0.7294 -0.6022 -0.5270
 3923TIP3   OH233259   0.287   3.383  17.117  0.4408 -0.0716  0.6418
 3923TIP3    H133260   0.355   3.397  17.051  0.7728 -2.2079  0.4543
 3923TIP3    H233261   0.334   3.363  17.197  0.0492 -0.2281  0.8392
 3924TIP3   OH233262   6.757   3.201  12.000 -0.2892 -0.4921 -0.6548
 3924TIP3    H133263   6.730   3.288  12.027  0.0431  0.5287 -3.3290
 3924TIP3    H233264   6.850   3.209  11.979 -0.1363 -1.5959 -0.4893
 3925TIP3   OH233265   4.596   6.031   4.660  0.0307  0.0314 -0.2338
 3925TIP3    H133266   4.550   5.996   4.736 -1.1061 -1.0804 -1.3940
 3925TIP3    H233267   4.682   5.989   4.663 -0.7738 -1.7486 -0.7513
 3926TIP3   OH233268   4.735   6.040   1.383  0.0646 -0.1816  0.3834
 3926TIP3    H133269   4.661   6.053   1.324  0.7308 -0.4974 -0.5467
 3926TIP3    H233270   4.776   6.126   1.390  1.6653 -0.6617 -1.9520
 3927TIP3   OH233271   6.636   2.746   5.343  0.9473  0.5394  0.3939
 3927TIP3    H133272   6.584   2.735   5.423  0.8041 -0.2681  0.1965
 3927TIP3    H233273   6.579   2.715   5.273  0.9922  1.4429 -0.0619
 3928TIP3   OH233274   3.410   4.627  14.725  0.0110  0.2882  0.1336
 3928TIP3    H133275   3.326   4.582  14.736 -1.0884  2.2186  0.0890
 3928TIP3    H233276   3.390   4.702  14.669  2.0456  0.1306 -0.9141
 3929TIP3   OH233277   3.817   5.139   6.553 -0.2612 -0.1219  0.0841
 3929TIP3    H133278   3.838   5.202   6.484  0.2433 -0.4040 -0.0204
 3929TIP3    H233279   3.827   5.053   6.511  0.6130 -0.3119  0.6528
 3930TIP3   OH233280   5.907   0.247  12.209  0.7170  0.2441  0.1918
 3930TIP3    H133281   5.993   0.208  12.193  1.2930  1.4633  0.1497
 3930TIP3    H233282   5.868   0.193  12.277  1.3141 -0.6178 -0.1317
 3931TIP3   OH233283   6.384   1.626  10.840  0.3049  0.2310 -0.2685
 3931TIP3    H133284   6.465   1.674  10.857 -0.6791  1.9399 -0.1475
 3931TIP3    H233285   6.335   1.682  10.780 -1.0308 -0.4835  0.0995
 3932TIP3   OH233286   0.708   3.788  11.160 -0.5604  0.6219  0.4999
 3932TIP3    H133287   0.687   3.826  11.245  0.7443  1.8555  0.3021
 3932TIP3    H233288   0.789   3.739  11.174 -2.0316 -1.9088  0.6693
 3933TIP3   OH233289   1.343   1.853  17.084 -0.3696 -0.0012 -0.3219
 3933TIP3    H133290   1.417   1.803  17.052 -2.2066 -2.4994 -0.9444
 3933TIP3    H233291   1.379   1.907  17.155  2.1148 -0.6017 -1.0415
 3934TIP3   OH233292   4.055   5.056  16.721 -0.6021 -0.7841 -0.3493
 3934TIP3    H133293   4.139   5.075  16.677  1.1967 -0.3510  2.9264
 3934TIP3    H233294   4.078   4.992  16.788 -2.5121  0.6197  1.7645
 3935TIP3   OH233295   2.032   5.976   4.321 -0.4152 -0.4905 -0.5871
 3935TIP3    H133296   1.938   5.967   4.337 -0.4802 -2.5985 -1.8926
 3935TIP3    H233297   2.043   6.068   4.297 -1.6642  0.5120  2.2177
 3936TIP3   OH233298   2.844   2.007  11.187 -0.7026  0.6960  0.1652
 3936TIP3    H133299   2.940   2.007  11.187 -0.6319 -0.9227 -1.7059
 3936TIP3    H233300   2.820   1.928  11.138 -2.9737  1.9690 -0.9577
 3937TIP3   OH233301   5.190   2.797   5.532  0.0413 -0.0118  0.0352
 3937TIP3    H133302   5.142   2.813   5.451 -0.0189 -0.5225 -0.0293
 3937TIP3    H233303   5.274   2.841   5.519 -0.0661  0.1280 -0.1986
 3938TIP3   OH233304   1.401   4.243   1.390 -0.1528  0.3891 -0.7135
 3938TIP3    H133305   1.445   4.325   1.412 -1.3282  1.1311 -0.9876
 3938TIP3    H233306   1.390   4.198   1.474 -0.3195  0.9495 -0.4270
 3939TIP3   OH233307   3.005   0.779   1.694 -0.5218  0.3008  0.3423
 3939TIP3    H133308   3.037   0.697   1.731  0.4866  1.3172  1.8931
 3939TIP3    H233309   3.066   0.799   1.623 -0.9549 -0.4363 -0.2372
 3940TIP3   OH233310   1.488   3.819   3.697 -0.1673  0.6527  0.1911
 3940TIP3    H133311   1.411   3.821   3.639 -1.3891 -1.4047  1.5957
 3940TIP3    H233312   1.451   3.821   3.785  1.4622  0.5582  0.9097
 3941TIP3   OH233313   2.175   1.349  11.831  0.1486  0.3546  0.4482
 3941TIP3    H133314   2.262   1.325  11.797 -0.6910 -0.0119 -1.5975
 3941TIP3    H233315   2.139   1.267  11.865  2.2475  1.2138  5.7217
 3942TIP3   OH233316   4.756   2.587  14.930  0.0652  0.5248 -0.7133
 3942TIP3    H133317   4.842   2.547  14.940 -0.4894 -0.3141  1.1614
 3942TIP3    H233318   4.702   2.518  14.891 -0.4740 -0.0184  0.9366
 3943TIP3   OH233319   1.728   2.990  13.823 -0.0542 -0.1294 -0.7110
 3943TIP3    H133320   1.662   3.056  13.844  0.5409  0.2917 -0.0736
 3943TIP3    H233321   1.807   3.021  13.868  0.4011 -0.9581 -0.9172
 3944TIP3   OH233322   5.279   4.750  11.550 -0.2587 -0.3721 -0.3257
 3944TIP3    H133323   5.214   4.679  11.551 -0.1292 -0.5498 -2.0044
 3944TIP3    H233324   5.268   4.790  11.464  1.2968  0.1328 -0.3080
 3945TIP3   OH233325   2.709   6.261  16.340  0.1907 -0.2065  0.2450
 3945TIP3    H133326   2.624   6.301  16.355  0.1000  0.0483 -0.8361
 3945TIP3    H233327   2.707   6.180  16.390 -1.6699 -1.4617 -1.7117
 3946TIP3   OH233328   5.694   5.530   5.199  0.1057  0.8753 -0.4986
 3946TIP3    H133329   5.780   5.514   5.159 -0.2767  0.2789 -1.0976
 3946TIP3    H233330   5.637   5.551   5.125 -0.4163  0.5800 -0.1831
 3947TIP3   OH233331   2.912   2.750   2.237  0.1502 -0.2621 -0.2387
 3947TIP3    H133332   2.945   2.663   2.214  0.9070  0.3520 -1.5965
 3947TIP3    H233333   2.818   2.744   2.226  0.2456 -0.7894 -0.7982
 3948TIP3   OH233334   0.753   4.618  13.873 -0.2883  0.1535  0.2045
 3948TIP3    H133335   0.824   4.555  13.862 -0.7210 -0.1496 -0.9475
 3948TIP3    H233336   0.684   4.569  13.918 -0.2768  0.0681  0.1285
 3949TIP3   OH233337   3.146   4.290  13.538 -0.3934  0.0211 -0.0240
 3949TIP3    H133338   3.158   4.286  13.632 -1.1248  0.3352  0.0885
 3949TIP3    H233339   3.094   4.370  13.523  0.5182  0.5031 -0.7752
 3950TIP3   OH233340   1.594   5.583  12.437  0.0768  0.5924  0.4878
 3950TIP3    H133341   1.669   5.636  12.462 -0.5103  2.0035 -0.5923
 3950TIP3    H233342   1.523   5.614  12.493 -0.3374  1.1818 -0.3392
 3951TIP3   OH233343   2.585   0.097   5.618 -0.6540  0.4231 -0.3728
 3951TIP3    H133344   2.598   0.007   5.650 -0.3561  0.7277  0.3902
 3951TIP3    H233345   2.507   0.091   5.562 -1.1870 -0.1452  0.3927
 3952TIP3   OH233346   0.572   4.745  15.530  0.1982 -0.5708  0.3093
 3952TIP3    H133347   0.604   4.657  15.510  1.3737  0.2029 -1.3883
 3952TIP3    H233348   0.497   4.757  15.471  2.0511  0.7277 -1.9290
 3953TIP3   OH233349   3.813   2.850  11.390 -0.3678 -0.0564 -0.1163
 3953TIP3    H133350   3.743   2.791  11.361 -2.4717  2.6763 -1.0017
 3953TIP3    H233351   3.876   2.849  11.317 -2.6765  2.1427 -2.3799
 3954TIP3   OH233352   4.381   4.544  11.881 -0.1307  0.1683  0.1700
 3954TIP3    H133353   4.424   4.557  11.966  1.1906 -0.1542 -0.4193
 3954TIP3    H233354   4.454   4.532  11.820 -1.0213  1.1346 -1.1387
 3955TIP3   OH233355   6.731   4.073   6.077  0.1079 -0.0523  0.3648
 3955TIP3    H133356   6.716   4.065   6.172 -0.6341  1.2233  0.3772
 3955TIP3    H233357   6.801   4.011   6.059 -0.0792 -0.6879  1.6666
 3956TIP3   OH233358   3.225   4.210   5.536 -0.1415 -0.6401  0.2664
 3956TIP3    H133359   3.160   4.168   5.480 -0.0319 -1.6165  0.8545
 3956TIP3    H233360   3.282   4.257   5.475  0.3244 -2.1512 -0.5063
 3957TIP3   OH233361   5.263   5.028  12.162 -0.2804  0.1013 -0.3589
 3957TIP3    H133362   5.257   5.015  12.068  1.8590 -1.8564 -0.3139
 3957TIP3    H233363   5.356   5.034  12.180 -0.5513 -1.1364  1.7872
 3958TIP3   OH233364   0.262   3.535  11.502  0.0171 -0.4768  0.3230
 3958TIP3    H133365   0.277   3.603  11.435  1.6872  0.6294  1.7472
 3958TIP3    H233366   0.201   3.475  11.460 -0.1052  0.9204 -1.6900
 3959TIP3   OH233367   2.701   5.990   1.407  0.1342 -0.0374  0.4204
 3959TIP3    H133368   2.768   6.004   1.340 -0.4064  1.5002  0.1648
 3959TIP3    H233369   2.748   5.994   1.490  0.7114 -1.3626  0.1924
 3960TIP3   OH233370   2.003   2.641  11.307  0.3116 -0.0826  0.7162
 3960TIP3    H133371   2.008   2.645  11.402 -1.3113  1.6591  0.7885
 3960TIP3    H233372   1.937   2.574  11.289 -1.8749  1.8314  1.0275
 3961TIP3   OH233373   0.701   2.711   4.072  0.0107  0.7536  0.0414
 3961TIP3    H133374   0.675   2.742   3.985 -0.7773  2.0879  0.7087
 3961TIP3    H233375   0.787   2.749   4.086  0.7605 -0.6146 -0.6903
 3962TIP3   OH233376   0.425   2.051   5.813  0.2049  0.1852 -0.4040
 3962TIP3    H133377   0.482   2.022   5.742  0.5376  2.7730 -1.3057
 3962TIP3    H233378   0.430   1.981   5.878  1.0920 -1.5691 -2.2447
 3963TIP3   OH233379   6.808   4.920  15.947  0.3091 -0.0004 -0.2091
 3963TIP3    H133380   6.864   4.944  16.022 -1.3880 -1.5329  1.6540
 3963TIP3    H233381   6.834   4.830  15.926  0.6829  0.3760 -1.4327
 3964TIP3   OH233382   5.849   0.766  12.051  0.0423  0.1208  0.5279
 3964TIP3    H133383   5.757   0.740  12.039 -0.1362  0.9321  0.0074
 3964TIP3    H233384   5.895   0.725  11.978 -0.0996  0.5704  0.1762
 3965TIP3   OH233385   3.120   4.502  11.840 -0.8429  0.1841 -0.4088
 3965TIP3    H133386   3.152   4.415  11.814  1.0487  0.7074 -0.0194
 3965TIP3    H233387   3.029   4.488  11.864 -0.7436 -1.5865 -0.9322
 3966TIP3   OH233388   0.569   6.783  12.088 -0.0783  0.5361  0.3884
 3966TIP3    H133389   0.539   6.827  12.168 -0.0968 -2.2218  2.0170
 3966TIP3    H233390   0.514   6.705  12.082  1.4362 -0.4664 -1.0867
 3967TIP3   OH233391   1.030   0.961  13.247  0.5646  0.2587 -0.0632
 3967TIP3    H133392   1.015   0.868  13.228  2.1158  0.2215 -1.2619
 3967TIP3    H233393   1.074   0.961  13.331  1.0072 -0.1374 -0.2887
 3968TIP3   OH233394   2.075   0.063  16.725  0.5457 -0.3001 -0.0245
 3968TIP3    H133395   2.091   0.064  16.819  2.1358  1.8748 -0.2441
 3968TIP3    H233396   2.007   0.129  16.712  1.0646  0.1535 -0.4918
 3969TIP3   OH233397   6.416   0.656   5.672 -0.4879  0.2363 -0.1728
 3969TIP3    H133398   6.419   0.700   5.757  0.9332  0.2325 -0.2016
 3969TIP3    H233399   6.426   0.563   5.692  0.8177  0.3194 -0.3995
 3970TIP3   OH233400   0.161   5.196  13.723 -0.0243  0.0527 -0.5389
 3970TIP3    H133401   0.114   5.194  13.640  1.2048  0.5436 -1.2775
 3970TIP3    H233402   0.200   5.109  13.731  0.1680  0.1265 -0.6657
 3971TIP3   OH233403   4.081   6.670   6.058 -0.6119  0.3445 -0.1916
 3971TIP3    H133404   3.998   6.621   6.058 -0.8976  0.7976 -0.9821
 3971TIP3    H233405   4.064   6.746   6.114 -0.4270 -0.0378  0.3899
 3972TIP3   OH233406   1.513   2.245  13.315 -0.0214 -0.5549 -0.3010
 3972TIP3    H133407   1.511   2.207  13.403 -0.2329  1.2254  0.5022
 3972TIP3    H233408   1.603   2.235  13.286 -0.3262 -2.7922 -0.6824
 3973TIP3   OH233409   3.170   1.638   4.540  0.1576  0.2564  0.7093
 3973TIP3    H133410   3.094   1.614   4.593 -0.8165 -0.0697 -0.7581
 3973TIP3    H233411   3.245   1.610   4.591 -0.7929 -1.6902  1.1257
 3974TIP3   OH233412   0.249   5.807  15.060  0.0756 -0.1570 -0.1637
 3974TIP3    H133413   0.224   5.724  15.102  0.5129 -0.7520 -1.0654
 3974TIP3    H233414   0.299   5.781  14.983  2.1012  0.9805  0.7013
 3975TIP3   OH233415   5.886   3.227   1.411  0.5834 -0.0222  0.0747
 3975TIP3    H133416   5.872   3.148   1.464 -0.1875 -0.5663 -0.9076
 3975TIP3    H233417   5.937   3.197   1.336  0.6993  0.5169 -0.0676
 3976TIP3   OH233418   4.255   1.757   0.571 -0.0342 -0.5620  0.1934
 3976TIP3    H133419   4.287   1.681   0.523 -0.7505  0.1446 -1.4805
 3976TIP3    H233420   4.162   1.741   0.583  0.3852 -1.5326  3.0019
 3977TIP3   OH233421   4.052   3.351   0.138 -0.1497 -0.2767 -0.2192
 3977TIP3    H133422   4.131   3.383   0.182  0.4969 -0.2300 -1.3601
 3977TIP3    H233423   4.079   3.270   0.096 -0.8545 -0.5272 -0.1989
 3978TIP3   OH233424   4.446   4.821   2.828 -0.8170 -0.1180 -0.2592
 3978TIP3    H133425   4.398   4.762   2.770  0.1809 -1.3292  0.0965
 3978TIP3    H233426   4.379   4.880   2.863 -1.7217 -0.5486 -1.2166
 3979TIP3   OH233427   2.226   3.607  14.013  0.1736 -0.4926  0.3259
 3979TIP3    H133428   2.302   3.618  13.956 -0.8425  1.1203 -0.8045
 3979TIP3    H233429   2.229   3.681  14.073  0.3817 -1.3297  1.3681
 3980TIP3   OH233430   0.171   4.711  14.438 -0.4156 -0.6526 -0.0106
 3980TIP3    H133431   0.081   4.741  14.454  0.9055  2.5357  2.4098
 3980TIP3    H233432   0.213   4.785  14.394  1.0257 -2.1960 -1.3578
 3981TIP3   OH233433   4.940   1.146   5.310  0.1799 -0.4697  0.1262
 3981TIP3    H133434   4.974   1.219   5.258 -0.1249 -0.8346 -0.5910
 3981TIP3    H233435   4.976   1.161   5.398  0.1539  0.5135 -0.0208
 3982TIP3   OH233436   5.957   5.199   4.125 -0.3902 -0.3261 -0.1942
 3982TIP3    H133437   5.954   5.287   4.087 -1.2850 -0.5165 -0.6082
 3982TIP3    H233438   5.916   5.144   4.059 -0.4384 -0.9492  0.3474
 3983TIP3   OH233439   3.171   6.046   0.518  0.2090 -0.0193 -0.3899
 3983TIP3    H133440   3.183   6.113   0.585 -0.3529  0.5766 -0.8730
 3983TIP3    H233441   3.078   6.025   0.520 -0.3401  1.7532 -2.5632
 3984TIP3   OH233442   0.376   0.993   1.881 -0.2713  0.1903  0.3754
 3984TIP3    H133443   0.335   0.964   1.963  0.1373 -0.3358  0.4006
 3984TIP3    H233444   0.324   1.069   1.854 -1.0200 -0.2316  0.6004
 3985TIP3   OH233445   2.697   1.482   1.129  0.4797 -0.4953  0.2331
 3985TIP3    H133446   2.724   1.434   1.050  0.5695 -0.9764  0.5492
 3985TIP3    H233447   2.762   1.456   1.195 -0.3803 -1.1579  0.8336
 3986TIP3   OH233448   0.428   2.008  16.057  0.4439 -0.3396 -0.1777
 3986TIP3    H133449   0.385   2.006  16.143  0.6863 -0.9666 -0.0632
 3986TIP3    H233450   0.363   2.047  15.999 -0.1227 -0.8617  0.0828
 3987TIP3   OH233451   1.718   4.342  15.267 -0.0445  0.2604  0.3498
 3987TIP3    H133452   1.804   4.345  15.308  1.0495 -1.8071 -1.5809
 3987TIP3    H233453   1.720   4.414  15.203 -0.7714  1.8001  1.9614
 3988TIP3   OH233454   3.784   4.011   1.031 -0.0706 -0.5014  0.3688
 3988TIP3    H133455   3.860   3.974   0.986  0.0865  1.9425 -1.6532
 3988TIP3    H233456   3.710   3.962   0.997  0.3338 -0.6703 -0.2970
 3989TIP3   OH233457   1.881   2.724   3.547  0.7440  0.1190 -0.3141
 3989TIP3    H133458   1.919   2.700   3.463  2.0597  0.3814  0.1829
 3989TIP3    H233459   1.942   2.787   3.584 -0.4323  0.9190  0.3239
 3990TIP3   OH233460   6.474   6.708   1.758 -0.2223 -0.2004 -0.0796
 3990TIP3    H133461   6.540   6.716   1.827 -1.2337 -3.1300  1.4328
 3990TIP3    H233462   6.411   6.778   1.776  0.1126 -0.2380  1.3487
 3991TIP3   OH233463   1.661   1.300   2.845 -0.4240 -0.0817 -0.4250
 3991TIP3    H133464   1.622   1.362   2.907 -0.9236  0.1739 -0.9808
 3991TIP3    H233465   1.739   1.267   2.889 -0.7496  0.1253  0.3221
 3992TIP3   OH233466   2.698   3.472  11.229 -0.2800 -0.1808 -0.1898
 3992TIP3    H133467   2.663   3.460  11.140 -0.0927  0.5244 -0.3645
 3992TIP3    H233468   2.641   3.539  11.267  1.2124  1.4294 -0.6840
 3993TIP3   OH233469   4.290   2.241  14.567 -0.5508 -0.1468  0.2270
 3993TIP3    H133470   4.251   2.155  14.579 -0.9330  0.1388  1.1035
 3993TIP3    H233471   4.247   2.297  14.631  0.4451  0.4546  0.4034
 3994TIP3   OH233472   2.045   4.886  14.689 -0.1070  0.1137  0.0809
 3994TIP3    H133473   2.106   4.871  14.617 -1.4488  0.9570 -1.2846
 3994TIP3    H233474   2.060   4.978  14.715 -0.6560  0.2704 -0.1411
 3995TIP3   OH233475   0.806   3.174   3.783  0.0064  0.2844  0.1004
 3995TIP3    H133476   0.740   3.168   3.851 -1.0394  1.5412 -0.7565
 3995TIP3    H233477   0.855   3.091   3.789  0.9886  0.9546  3.3484
 3996TIP3   OH233478   6.401   4.908  16.057 -0.2636  0.0818 -0.2701
 3996TIP3    H133479   6.307   4.889  16.055 -0.3708  0.4632  0.6396
 3996TIP3    H233480   6.443   4.824  16.042 -0.7261  0.1840 -2.6126
 3997TIP3   OH233481   1.626   1.489   0.357  0.3007 -0.0791  0.6631
 3997TIP3    H133482   1.675   1.453   0.283 -1.0668 -1.1567  0.2229
 3997TIP3    H233483   1.650   1.433   0.431 -0.0256 -0.4175  0.5163
 3998TIP3   OH233484   6.625   4.260  12.693  0.1815 -0.4628 -0.5972
 3998TIP3    H133485   6.702   4.260  12.751  1.1647 -0.4449 -1.8452
 3998TIP3    H233486   6.646   4.194  12.627 -0.9025 -0.4695 -0.9458
 3999TIP3   OH233487   3.455   0.440   3.342  0.4754  0.6199  0.2902
 3999TIP3    H133488   3.363   0.449   3.367  0.7582  0.6440  1.3917
 3999TIP3    H233489   3.459   0.357   3.295  0.0798  0.0487  1.2375
 4000TIP3   OH233490   0.878   4.791  13.451  0.0896 -0.1377  0.3290
 4000TIP3    H133491   0.959   4.831  13.482  0.1503 -0.5771  0.7575
 4000TIP3    H233492   0.812   4.818  13.514  0.3371 -1.5553  1.2492
 4001TIP3   OH233493   0.699   4.505   1.102  0.2815  0.9490  0.0904
 4001TIP3    H133494   0.627   4.442   1.100 -0.0543  1.3526 -1.0772
 4001TIP3    H233495   0.773   4.455   1.136  0.1839 -0.2619 -1.3960
 4002TIP3   OH233496   1.579   6.768  12.821  0.2721 -0.4914  0.0802
 4002TIP3    H133497   1.570   6.815  12.738 -0.2802 -0.2516  0.2698
 4002TIP3    H233498   1.613   6.683  12.797  0.2225 -0.3815 -0.3864
 4003TIP3   OH233499   1.494   6.377   0.755 -0.0634  0.2569 -0.0432
 4003TIP3    H133500   1.579   6.412   0.780  1.6655 -1.9995 -2.2303
 4003TIP3    H233501   1.449   6.450   0.713  2.4787  0.6318 -2.4271
 4004TIP3   OH233502   1.083   2.620   1.200  0.0780 -0.6693 -0.6459
 4004TIP3    H133503   0.992   2.623   1.230 -0.0870  1.6120 -1.2299
 4004TIP3    H233504   1.134   2.631   1.280 -0.1781 -0.9297 -0.4415
 4005TIP3   OH233505   2.155   1.934  15.637  0.3053 -0.0229 -0.1320
 4005TIP3    H133506   2.177   1.873  15.566 -1.0666  0.7849 -1.3000
 4005TIP3    H233507   2.171   1.885  15.717  3.4036 -0.4865 -0.8867
 4006TIP3   OH233508   1.557   2.055  15.146  0.2566  0.2365 -0.0082
 4006TIP3    H133509   1.647   2.033  15.124 -0.0436  0.9846 -2.2645
 4006TIP3    H233510   1.559   2.149  15.165 -0.2699  0.6530 -1.8038
 4007TIP3   OH233511   4.720   6.455   3.632  0.1996 -0.5216 -0.4429
 4007TIP3    H133512   4.728   6.483   3.723 -1.4021 -0.3924 -0.3126
 4007TIP3    H233513   4.753   6.529   3.581  2.9386 -1.3158  0.0109
 4008TIP3   OH233514   2.674   4.887  11.561  0.0441  0.0772 -0.0972
 4008TIP3    H133515   2.704   4.796  11.560  0.6971  0.2854 -0.4774
 4008TIP3    H233516   2.579   4.882  11.555 -0.1061 -0.6387  2.1571
 4009TIP3   OH233517   0.687   5.857  15.436  0.8092  0.1808 -0.0589
 4009TIP3    H133518   0.700   5.766  15.461 -0.2784  0.6683  2.6585
 4009TIP3    H233519   0.592   5.868  15.434  0.9290  1.3102 -0.2006
 4010TIP3   OH233520   3.240   0.256   0.984 -0.1140 -0.0069  0.6817
 4010TIP3    H133521   3.267   0.218   0.901 -0.6727 -2.6386  1.5906
 4010TIP3    H233522   3.243   0.350   0.970  1.8601 -0.3279 -1.6273
 4011TIP3   OH233523   3.475   0.691   0.727 -0.1564 -0.0872  0.3343
 4011TIP3    H133524   3.405   0.667   0.789 -0.1413 -2.4580 -0.4490
 4011TIP3    H233525   3.445   0.773   0.689 -2.6733 -1.0835 -0.0965
 4012TIP3   OH233526   4.377   5.171   2.602  0.2057  0.8781  0.4876
 4012TIP3    H133527   4.293   5.128   2.621  0.7142 -0.2995  0.1660
 4012TIP3    H233528   4.388   5.234   2.673 -1.2845  1.5797  0.1420
 4013TIP3   OH233529   3.937   2.754   3.565  0.0648  0.1475 -0.2993
 4013TIP3    H133530   4.032   2.760   3.568  0.0572  1.7190 -1.4883
 4013TIP3    H233531   3.906   2.837   3.600 -0.8515 -0.0292 -0.6464
 4014TIP3   OH233532   0.724   2.350  17.216  0.2148  0.9212  0.4474
 4014TIP3    H133533   0.805   2.341  17.266  0.0834  0.1450  0.5298
 4014TIP3    H233534   0.698   2.261  17.195 -1.1584  1.0868  1.3061
 4015TIP3   OH233535   2.823   4.867  13.472 -0.3580  0.1972  0.7403
 4015TIP3    H133536   2.819   4.812  13.393 -0.8590 -1.2930  1.7684
 4015TIP3    H233537   2.906   4.915  13.463  0.7324 -1.6673  0.4001
 4016TIP3   OH233538   6.333   1.585  12.330  0.4671 -0.3308  0.3311
 4016TIP3    H133539   6.240   1.607  12.326  0.3026 -1.0780 -0.3134
 4016TIP3    H233540   6.336   1.495  12.364  0.9012 -0.5740 -0.3190
 4017TIP3   OH233541   5.487   5.963   5.313 -0.3794 -0.0030  0.3242
 4017TIP3    H133542   5.508   5.869   5.310 -1.8459 -0.3536 -2.4256
 4017TIP3    H233543   5.396   5.965   5.343 -0.6837  0.4505 -0.6159
 4018TIP3   OH233544   5.708   2.243   0.056 -0.3577 -0.3659  0.7116
 4018TIP3    H133545   5.712   2.316   0.117 -0.0701  0.3183 -0.1122
 4018TIP3    H233546   5.654   2.177   0.101 -0.4786  0.2731  1.5275
 4019TIP3   OH233547   5.495   6.818  11.335  0.4620  0.0146 -0.3863
 4019TIP3    H133548   5.504   6.742  11.392 -1.8685 -1.3055 -1.6212
 4019TIP3    H233549   5.541   6.792  11.254  0.2356  0.1955 -0.5728
 4020TIP3   OH233550   1.780   4.210   5.516 -0.8283 -0.2696 -0.2105
 4020TIP3    H133551   1.794   4.235   5.607  0.4388 -0.6627 -0.2891
 4020TIP3    H233552   1.867   4.187   5.483 -1.2207  0.1513 -1.6081
 4021TIP3   OH233553   2.635   5.224   4.734  0.2488  0.1449 -0.0661
 4021TIP3    H133554   2.686   5.251   4.658 -1.0257 -1.3585 -1.5505
 4021TIP3    H233555   2.700   5.208   4.803  1.5654  0.3233 -1.2386
 4022TIP3   OH233556   4.532   1.235  15.119  0.0767 -0.0606 -0.2707
 4022TIP3    H133557   4.620   1.199  15.106  0.7224  0.7262  1.5570
 4022TIP3    H233558   4.474   1.174  15.073  1.4126 -1.6091 -0.0029
 4023TIP3   OH233559   1.282   5.723   3.063 -0.3366  0.0453 -0.8677
 4023TIP3    H133560   1.271   5.689   2.974  0.9103  1.4012 -1.5684
 4023TIP3    H233561   1.347   5.792   3.055 -1.3853  1.3099  0.8346
 4024TIP3   OH233562   2.435   5.427   4.701 -0.1212  0.5168 -0.6624
 4024TIP3    H133563   2.500   5.357   4.705 -0.4654  0.2432  0.5325
 4024TIP3    H233564   2.352   5.381   4.691 -0.4314  0.6735  0.8834
 4025TIP3   OH233565   6.343   5.343   1.156  0.0290  0.0092  0.2292
 4025TIP3    H133566   6.271   5.285   1.183  0.2509 -0.3269  0.0985
 4025TIP3    H233567   6.380   5.375   1.238 -0.8638  0.9307  0.3015
 4026TIP3   OH233568   3.039   2.441   0.955 -0.0278  0.0446  0.0653
 4026TIP3    H133569   2.982   2.487   1.017  1.7440  0.4323  1.4900
 4026TIP3    H233570   2.996   2.357   0.941 -0.3773 -0.1638  2.0543
 4027TIP3   OH233571   6.765   3.301   0.501  0.2724  0.3465  0.0387
 4027TIP3    H133572   6.689   3.278   0.555 -0.5783  1.2747 -0.7132
 4027TIP3    H233573   6.801   3.217   0.472 -0.5496 -0.1028  0.3005
 4028TIP3   OH233574   3.680   1.736  14.915  0.0670 -0.4539 -0.1514
 4028TIP3    H133575   3.688   1.741  14.819  0.5906  0.7645 -0.0602
 4028TIP3    H233576   3.697   1.825  14.945 -0.7360 -0.6813  1.0435
 4029TIP3   OH233577   5.434   2.281   5.481 -0.5120 -0.0719  0.0487
 4029TIP3    H133578   5.425   2.216   5.551 -0.0523 -1.1132 -0.8309
 4029TIP3    H233579   5.472   2.358   5.525  0.4815 -0.9614  0.8145
 4030TIP3   OH233580   0.854   1.426   1.486 -0.3481 -0.3878 -0.4100
 4030TIP3    H133581   0.895   1.340   1.502 -1.2146 -0.4059  2.2008
 4030TIP3    H233582   0.773   1.405   1.440 -1.0652 -1.1302  1.1193
 4031TIP3   OH233583   4.979   5.270   1.469  0.1053 -0.1777  0.4948
 4031TIP3    H133584   5.001   5.363   1.457  2.2283 -0.7102 -0.2344
 4031TIP3    H233585   4.915   5.252   1.400  1.4755  0.2238 -0.9358
 4032TIP3   OH233586   3.542   2.832  13.774  0.0757  0.4875 -0.3304
 4032TIP3    H133587   3.591   2.829  13.692  0.9886  1.3486  0.1550
 4032TIP3    H233588   3.570   2.914  13.815  0.9736 -0.7546  1.6547
 4033TIP3   OH233589   4.404   3.117  12.906  0.0285 -0.7280  0.6300
 4033TIP3    H133590   4.351   3.141  12.982  0.1855  1.3811  0.1528
 4033TIP3    H233591   4.480   3.176  12.911  0.5340 -1.2405 -0.6173
 4034TIP3   OH233592   5.832   4.558   3.805 -0.1285  0.6491  0.3245
 4034TIP3    H133593   5.753   4.565   3.751  0.1582  1.5722  0.0097
 4034TIP3    H233594   5.862   4.648   3.816  0.0338  0.4575  1.7266
 4035TIP3   OH233595   4.353   2.105  11.324 -0.0332 -0.3958  0.3923
 4035TIP3    H133596   4.371   2.180  11.266 -0.0665 -0.4235  0.3455
 4035TIP3    H233597   4.339   2.032  11.264 -2.1782  0.0073  0.3330
 4036TIP3   OH233598   0.189   1.818  11.435 -0.2556 -0.1154 -0.5521
 4036TIP3    H133599   0.123   1.787  11.497 -0.4059 -0.2642 -0.7858
 4036TIP3    H233600   0.251   1.869  11.489  0.0983 -0.9775 -0.1325
 4037TIP3   OH233601   6.734   6.152   4.494  0.0576 -0.0651  0.4347
 4037TIP3    H133602   6.644   6.119   4.489 -0.4422  0.9241  2.0827
 4037TIP3    H233603   6.788   6.074   4.504 -0.3111 -0.8887 -2.8243
 4038TIP3   OH233604   6.786   0.292  16.932  0.3878  0.1482  0.1247
 4038TIP3    H133605   6.856   0.291  16.997  2.1214 -1.9197 -1.6166
 4038TIP3    H233606   6.724   0.226  16.962  1.2492 -0.8919 -0.3296
 4039TIP3   OH233607   6.806   4.977   0.291 -0.1703  0.2658 -0.2027
 4039TIP3    H133608   6.860   4.931   0.355 -1.3401 -2.3159 -0.9413
 4039TIP3    H233609   6.721   4.986   0.334 -0.7225 -0.7391 -1.0567
 4040TIP3   OH233610   3.732   2.297   6.541 -0.1911  0.4894 -0.3036
 4040TIP3    H133611   3.726   2.341   6.626 -1.1687 -0.7931  0.3359
 4040TIP3    H233612   3.694   2.210   6.557  1.0314 -0.3465 -1.6725
 4041TIP3   OH233613   0.704   3.078  15.581  0.1831 -0.0181  0.3263
 4041TIP3    H133614   0.669   3.020  15.514 -1.5190  0.1262  1.0452
 4041TIP3    H233615   0.763   3.023  15.632 -0.1006 -0.6764 -0.0406
 4042TIP3   OH233616   2.761   4.644   2.587 -0.0428 -0.0041 -0.0974
 4042TIP3    H133617   2.784   4.736   2.600 -1.4657  0.5431 -1.1303
 4042TIP3    H233618   2.666   4.645   2.577  0.0152 -1.4666 -1.0111
 4043TIP3   OH233619   4.448   6.301  12.748  0.2610 -0.3721  0.1051
 4043TIP3    H133620   4.530   6.276  12.704  0.1668  0.4108 -0.5432
 4043TIP3    H233621   4.447   6.397  12.744 -2.0075 -0.3925 -2.4166
 4044TIP3   OH233622   5.126   6.361  16.649  0.0984  0.1835 -0.0639
 4044TIP3    H133623   5.102   6.276  16.612  0.3182 -0.6392  1.6144
 4044TIP3    H233624   5.221   6.367  16.635  0.4928 -0.9302  1.8710
 4045TIP3   OH233625   1.363   2.435  15.804 -0.3467 -0.2489 -0.4245
 4045TIP3    H133626   1.294   2.416  15.739  0.9254 -0.2553 -1.8261
 4045TIP3    H233627   1.400   2.518  15.776  0.1891 -0.2264  0.3386
 4046TIP3   OH233628   6.423   0.761  10.872 -0.4483  0.2315 -0.4004
 4046TIP3    H133629   6.374   0.825  10.819 -0.4439  0.9025  0.3814
 4046TIP3    H233630   6.471   0.815  10.935 -1.2428 -0.5914  0.9558
 4047TIP3   OH233631   5.415   4.662  13.960 -0.0947  0.5726 -0.2955
 4047TIP3    H133632   5.450   4.722  14.025 -2.2216  1.8152 -0.2185
 4047TIP3    H233633   5.472   4.674  13.884  0.4518  1.5309  0.2441
 4048TIP3   OH233634   4.800   3.553  16.447 -0.0601 -0.2362  0.0904
 4048TIP3    H133635   4.718   3.545  16.399 -0.8592 -3.6321  1.7090
 4048TIP3    H233636   4.817   3.647  16.451 -3.0402  0.4898 -1.5743
 4049TIP3   OH233637   3.741   0.229   4.603 -0.3964  0.0195  0.4038
 4049TIP3    H133638   3.703   0.317   4.609 -1.3740 -0.2952 -0.6955
 4049TIP3    H233639   3.737   0.196   4.693 -0.3675  0.9522  0.7670
 4050TIP3   OH233640   3.480   0.333   2.092 -0.0460 -0.0893 -0.0400
 4050TIP3    H133641   3.429   0.283   2.156  1.8827 -3.3210 -0.7557
 4050TIP3    H233642   3.570   0.326   2.123  0.5622  1.0814 -1.4149
 4051TIP3   OH233643   4.580   5.363   6.037 -0.7027  0.2176 -0.0440
 4051TIP3    H133644   4.608   5.312   6.112 -0.5664  0.4120  0.0398
 4051TIP3    H233645   4.534   5.438   6.075 -0.3872  0.4644 -0.1426
 4052TIP3   OH233646   0.301   5.900   4.928  0.2061 -0.4056  0.4228
 4052TIP3    H133647   0.356   5.971   4.895 -1.3809  1.2331  1.1107
 4052TIP3    H233648   0.358   5.850   4.986  1.5000 -0.0032 -0.4636
 4053TIP3   OH233649   6.301   4.713  13.696 -0.4862  0.2381 -0.0745
 4053TIP3    H133650   6.387   4.723  13.655 -1.6807  1.0658 -2.5813
 4053TIP3    H233651   6.303   4.625  13.734  1.6531  0.4719  0.5240
 4054TIP3   OH233652   5.182   4.199   5.803  0.2753 -0.4387 -0.4203
 4054TIP3    H133653   5.240   4.269   5.833  3.4995 -1.5650 -3.5012
 4054TIP3    H233654   5.205   4.123   5.857 -1.4702  0.0822  1.1990
 4055TIP3   OH233655   5.992   2.621   4.684 -0.5510  0.3649 -0.1061
 4055TIP3    H133656   5.955   2.709   4.694  0.6998  0.9176 -0.0908
 4055TIP3    H233657   5.916   2.564   4.675 -1.4478  1.2684  1.2365
 4056TIP3   OH233658   3.171   5.528   6.694  0.6109  0.5303  0.2477
 4056TIP3    H133659   3.204   5.618   6.690 -0.6051  0.9843  0.0254
 4056TIP3    H233660   3.085   5.532   6.652  0.2212 -0.5859  0.8974
 4057TIP3   OH233661   2.076   2.415  16.032  0.1815  0.0746  0.2134
 4057TIP3    H133662   1.995   2.424  16.082  1.2004 -1.5940  2.3322
 4057TIP3    H233663   2.116   2.502  16.033 -0.3463  0.3140  1.3816
 4058TIP3   OH233664   3.124   3.271  12.358  0.1892  0.4215 -0.4807
 4058TIP3    H133665   3.183   3.218  12.412  0.3735  1.0246 -0.0794
 4058TIP3    H233666   3.181   3.337  12.318 -0.3270  1.5864  0.6355
 4059TIP3   OH233667   5.036   3.726  14.531  0.0520 -0.0545 -0.5060
 4059TIP3    H133668   5.006   3.816  14.543 -0.4700 -0.1098 -1.3120
 4059TIP3    H233669   5.066   3.723  14.440  2.7612  0.0562  0.3077
 4060TIP3   OH233670   1.737   3.998   2.722  0.3847 -0.3805 -0.1067
 4060TIP3    H133671   1.661   3.953   2.759 -1.4269  1.4254 -1.4056
 4060TIP3    H233672   1.753   3.954   2.638  0.5140 -0.5088 -0.0143
 4061TIP3   OH233673   1.485   4.469   3.563 -0.3650  0.0577  0.0360
 4061TIP3    H133674   1.486   4.491   3.470  1.5534  0.3625  0.0839
 4061TIP3    H233675   1.415   4.405   3.572 -0.2264 -0.3864 -1.7200
 4062TIP3   OH233676   0.482   2.079   0.481 -0.0756 -0.6322 -0.3443
 4062TIP3    H133677   0.497   2.022   0.556 -0.8361  0.2993  0.5386
 4062TIP3    H233678   0.500   2.023   0.405 -0.8934 -2.0784  0.4783
 4063TIP3   OH233679   0.521   6.626   0.280  0.7438 -0.5791 -0.1360
 4063TIP3    H133680   0.516   6.583   0.195  4.0687 -1.0183 -0.2218
 4063TIP3    H233681   0.475   6.567   0.340 -1.5741 -0.2979 -1.5123
 4064TIP3   OH233682   2.785   1.976  17.242 -0.5342  0.2900 -0.0230
 4064TIP3    H133683   2.744   2.006  17.323 -1.0093 -2.5875  0.9171
 4064TIP3    H233684   2.741   2.025  17.173 -1.1081  1.8045  1.3494
 4065TIP3   OH233685   0.929   3.620   2.628  0.3042  0.5215 -0.3731
 4065TIP3    H133686   0.983   3.570   2.689 -0.3504 -1.0188 -0.9882
 4065TIP3    H233687   0.851   3.643   2.678  0.2149  0.1340 -0.3302
 4066TIP3   OH233688   0.520   2.909  11.652  0.1735  0.2219  0.6882
 4066TIP3    H133689   0.433   2.873  11.635  0.4084  0.0735 -0.2451
 4066TIP3    H233690   0.515   2.944  11.741 -0.0269 -2.2492  1.7341
 4067TIP3   OH233691   2.297   1.705   3.379 -0.0425  0.0440 -0.2077
 4067TIP3    H133692   2.319   1.716   3.286  0.0588 -0.4002 -0.2348
 4067TIP3    H233693   2.241   1.780   3.398 -1.0604 -0.5041 -0.9413
 4068TIP3   OH233694   4.888   3.910  17.123 -0.5395  0.5794 -0.2990
 4068TIP3    H133695   4.936   3.963  17.187 -0.9104  0.0191  0.4611
 4068TIP3    H233696   4.905   3.952  17.039  2.5467 -0.4814 -0.3074
 4069TIP3   OH233697   5.791   5.486   3.830 -0.2196  0.5274 -0.5023
 4069TIP3    H133698   5.707   5.493   3.875 -1.1883  1.1350 -2.3199
 4069TIP3    H233699   5.770   5.445   3.747  0.8854  2.6932 -1.9331
 4070TIP3   OH233700   4.171   6.583  14.313 -0.1292 -0.0661 -0.3072
 4070TIP3    H133701   4.200   6.521  14.380 -1.2452 -0.3371 -0.0516
 4070TIP3    H233702   4.252   6.609  14.268  0.6620  0.2064  1.1920
 4071TIP3   OH233703   1.227   5.596   3.331  0.4914  0.2341 -1.1579
 4071TIP3    H133704   1.193   5.589   3.242 -1.3695  0.9365 -0.5480
 4071TIP3    H233705   1.294   5.528   3.336 -2.8318 -3.4452 -1.5670
 4072TIP3   OH233706   2.278   6.326   5.844 -0.1434 -0.6310 -0.6045
 4072TIP3    H133707   2.250   6.256   5.903 -0.5533  0.6243  0.7329
 4072TIP3    H233708   2.371   6.335   5.860  0.0720 -1.3648 -1.3495
 4073TIP3   OH233709   3.794   0.935   4.628 -0.2813 -0.3769  0.1974
 4073TIP3    H133710   3.823   0.863   4.683  0.8835  0.8316  1.2559
 4073TIP3    H233711   3.719   0.973   4.675 -0.0971 -0.1356  0.3014
 4074TIP3   OH233712   1.638   2.291   4.925 -0.2525 -0.0193  0.5794
 4074TIP3    H133713   1.649   2.349   5.000  0.9519  1.8611 -0.9778
 4074TIP3    H233714   1.583   2.220   4.959  0.2248  0.7408  3.2119
 4075TIP3   OH233715   2.396   3.335   3.843 -0.9553 -0.1971  0.1072
 4075TIP3    H133716   2.325   3.395   3.819 -1.3506  0.2922  2.3590
 4075TIP3    H233717   2.474   3.391   3.850 -1.4212  0.2088  2.6882
 4076TIP3   OH233718   0.852   4.968   2.898  0.2634  0.3753  0.3555
 4076TIP3    H133719   0.821   5.009   2.817  0.9990  1.1441  0.4510
 4076TIP3    H233720   0.947   4.970   2.891  0.3522 -2.4268 -0.1689
 4077TIP3   OH233721   3.970   4.533  16.194  0.3150 -0.0100  0.4260
 4077TIP3    H133722   3.925   4.463  16.146  0.2367  0.1223  0.3096
 4077TIP3    H233723   3.985   4.601  16.129  0.8744 -0.1418  0.4140
 4078TIP3   OH233724   3.015   4.494   0.499  0.6886 -0.1634  0.2749
 4078TIP3    H133725   3.033   4.472   0.591 -0.3399 -0.1325  0.4981
 4078TIP3    H233726   2.979   4.582   0.502 -0.5505 -0.6380 -0.0085
 4079TIP3   OH233727   0.900   0.606  10.734 -0.0612 -0.0647  0.4140
 4079TIP3    H133728   0.938   0.691  10.758  0.0577  0.2196 -0.7079
 4079TIP3    H233729   0.867   0.619  10.645 -2.4587 -0.4141  1.1768
 4080TIP3   OH233730   3.373   4.592   5.183  0.1961 -0.3625  0.2982
 4080TIP3    H133731   3.346   4.678   5.152  0.8452 -0.5811 -0.9496
 4080TIP3    H233732   3.299   4.535   5.163  1.0137 -0.7235 -2.0052
 4081TIP3   OH233733   1.486   2.650  12.488 -0.2701  0.3296 -0.4751
 4081TIP3    H133734   1.425   2.587  12.526 -0.3781  0.8520  0.2434
 4081TIP3    H233735   1.525   2.604  12.414  0.6591 -1.0794  0.8194
 4082TIP3   OH233736   0.547   0.877  16.783  0.2735 -0.3209  0.0326
 4082TIP3    H133737   0.551   0.972  16.788  0.9693 -0.3537  0.1762
 4082TIP3    H233738   0.531   0.858  16.690 -0.8181 -0.0427  0.1581
 4083TIP3   OH233739   4.062   6.064   5.106 -0.2803 -0.2314  0.3300
 4083TIP3    H133740   4.113   5.996   5.063 -0.0629 -1.2256  2.0530
 4083TIP3    H233741   4.048   6.130   5.039  0.6704 -1.3483 -1.0175
 4084TIP3   OH233742   2.636   2.308  15.321  0.1853 -0.1729  0.1130
 4084TIP3    H133743   2.644   2.370  15.393 -1.2415  0.1825 -0.0103
 4084TIP3    H233744   2.645   2.361  15.242 -1.2194 -0.0533  0.0050
 4085TIP3   OH233745   5.973   2.965   2.811  0.4700 -0.1136 -0.1706
 4085TIP3    H133746   6.019   3.038   2.851  1.4970  0.0746 -1.6364
 4085TIP3    H233747   5.902   3.005   2.761  1.1586 -0.0935 -1.1413
 4086TIP3   OH233748   5.110   1.138  13.176 -0.6019  0.5697  0.3000
 4086TIP3    H133749   5.147   1.192  13.106  0.0949 -2.3073 -1.7506
 4086TIP3    H233750   5.184   1.124  13.235 -0.7759  1.7309  0.8279
 4087TIP3   OH233751   3.662   6.751  16.212  0.4196 -0.7640  0.8160
 4087TIP3    H133752   3.620   6.667  16.191  1.6676 -1.1612 -0.2120
 4087TIP3    H233753   3.723   6.766  16.140 -1.9219  2.5810 -0.7631
 4088TIP3   OH233754   1.187   1.618  15.566  0.2215 -0.0089  0.0733
 4088TIP3    H133755   1.173   1.534  15.609  0.5079  0.2332  0.6439
 4088TIP3    H233756   1.153   1.683  15.627  1.4571  0.4035  0.3508
 4089TIP3   OH233757   4.349   3.767  11.672  0.3923 -0.1293  0.3949
 4089TIP3    H133758   4.331   3.856  11.701 -0.7874 -0.6845  1.4443
 4089TIP3    H233759   4.266   3.735  11.637  0.8711 -0.7394 -0.2223
 4090TIP3   OH233760   5.099   0.577  11.730  0.1280 -1.0839 -0.0719
 4090TIP3    H133761   5.161   0.599  11.799 -1.6046 -0.3708  1.3517
 4090TIP3    H233762   5.153   0.560  11.653  2.0103  2.6607  0.1794
 4091TIP3   OH233763   0.069   5.617   3.067  0.2006  0.1728 -0.0747
 4091TIP3    H133764   0.143   5.607   3.126  0.1569 -0.0917 -0.0620
 4091TIP3    H233765   0.019   5.537   3.078  0.6002 -0.2231 -1.0312
 4092TIP3   OH233766   0.480   0.423  13.646  0.3050 -0.2851  0.4512
 4092TIP3    H133767   0.425   0.423  13.724  1.0153 -0.4284  0.9601
 4092TIP3    H233768   0.522   0.336  13.645 -1.2604 -1.0928 -1.2215
 4093TIP3   OH233769   6.681   2.579  13.790 -0.1999 -0.3222 -0.4908
 4093TIP3    H133770   6.765   2.625  13.791 -0.7956  0.8298 -1.0555
 4093TIP3    H233771   6.691   2.511  13.723 -0.0254  0.4361 -1.2527
 4094TIP3   OH233772   1.370   4.377  14.212  0.1144 -0.0428  0.0922
 4094TIP3    H133773   1.290   4.386  14.264  0.8866 -1.4248  1.5930
 4094TIP3    H233774   1.372   4.284  14.187  1.0276  0.0730 -0.3057
 4095TIP3   OH233775   4.090   2.176   0.206  0.4183 -0.1122  0.0562
 4095TIP3    H133776   4.185   2.169   0.207  0.3306 -1.5129  0.8381
 4095TIP3    H233777   4.064   2.168   0.298 -0.2929  3.7665  0.3654
 4096TIP3   OH233778   0.716   4.239   0.898  0.0025 -0.2265  0.7990
 4096TIP3    H133779   0.783   4.205   0.958  0.1594 -0.1999  0.6406
 4096TIP3    H233780   0.639   4.252   0.953  0.3496  0.4495  1.1384
 4097TIP3   OH233781   2.408   3.266   4.936 -0.4435  0.7396  0.3333
 4097TIP3    H133782   2.436   3.329   4.870 -0.3455  1.8495  1.4049
 4097TIP3    H233783   2.366   3.319   5.004 -3.6436 -0.6396 -0.3478
 4098TIP3   OH233784   3.462   6.592   1.944 -0.0864  0.0149 -0.0820
 4098TIP3    H133785   3.418   6.608   1.860 -0.9343 -0.3119  0.2936
 4098TIP3    H233786   3.392   6.570   2.004  0.4923  0.4839  0.7866
 4099TIP3   OH233787   4.379   1.189   0.119 -0.2225 -0.2751 -0.5736
 4099TIP3    H133788   4.322   1.163   0.047  0.6722 -0.5639 -1.1986
 4099TIP3    H233789   4.449   1.238   0.076  0.9338 -1.4275 -0.0432
 4100TIP3   OH233790   0.998   3.274  16.843  0.6545  0.3366 -0.0477
 4100TIP3    H133791   0.934   3.218  16.887  0.9291 -0.2244 -0.3670
 4100TIP3    H233792   1.036   3.326  16.913 -1.4786  2.0556 -0.0336
 4101TIP3   OH233793   3.682   3.771   1.583 -0.2400  0.3931  0.2123
 4101TIP3    H133794   3.611   3.719   1.546 -1.7130  0.4701  2.7176
 4101TIP3    H233795   3.743   3.705   1.619  0.7473  0.3455 -1.4294
 4102TIP3   OH233796   5.475   2.644  11.396  0.6375  0.2179 -0.2827
 4102TIP3    H133797   5.414   2.632  11.324  1.0552  2.0412 -1.0037
 4102TIP3    H233798   5.556   2.603  11.366 -0.1450 -2.2015  0.6768
 4103TIP3   OH233799   3.742   3.122   2.557 -0.1099 -0.0598  0.2067
 4103TIP3    H133800   3.742   3.122   2.653 -2.2470  1.2526  0.2799
 4103TIP3    H233801   3.651   3.104   2.533  0.3852 -0.3599 -1.5919
 4104TIP3   OH233802   6.504   1.321   6.309  0.5000 -0.3977 -0.0159
 4104TIP3    H133803   6.547   1.264   6.373 -0.0248 -0.1031  0.6059
 4104TIP3    H233804   6.469   1.394   6.360  0.8478  0.3058 -0.7616
 4105TIP3   OH233805   2.400   4.252  16.455  0.2188  0.5326  0.3062
 4105TIP3    H133806   2.361   4.172  16.490  2.4676  0.6107  3.4901
 4105TIP3    H233807   2.356   4.323  16.502  0.9108  0.8946  0.4220
 4106TIP3   OH233808   5.616   2.088   3.505  0.1192 -0.3055  0.1571
 4106TIP3    H133809   5.621   2.178   3.537 -1.7211 -0.7161  1.7856
 4106TIP3    H233810   5.522   2.067   3.507  0.4770 -2.1513 -0.5173
 4107TIP3   OH233811   5.023   3.552  15.955  0.6018 -0.1066  0.3105
 4107TIP3    H133812   4.985   3.596  16.031  0.0330  0.8588 -0.5164
 4107TIP3    H233813   4.959   3.484  15.933  0.8995 -0.5735  0.8428
 4108TIP3   OH233814   4.148   2.299   3.675  0.0060  0.3940  0.0935
 4108TIP3    H133815   4.112   2.365   3.615  1.8268  0.6258 -0.8366
 4108TIP3    H233816   4.174   2.349   3.752  0.4163  0.6026 -0.1766
 4109TIP3   OH233817   4.306   2.749  11.791 -0.1724  0.5237 -0.3742
 4109TIP3    H133818   4.342   2.838  11.790  0.1383  0.3985 -0.9744
 4109TIP3    H233819   4.212   2.761  11.773 -1.0879  1.0883  3.7856
 4110TIP3   OH233820   3.740   5.996   0.549  0.2440  0.2915  0.3091
 4110TIP3    H133821   3.653   6.027   0.575  0.1999  0.1721  0.3026
 4110TIP3    H233822   3.745   5.906   0.581  0.6542  0.5397  0.9622
 4111TIP3   OH233823   4.453   5.499   1.170 -0.2066 -0.1948  0.0620
 4111TIP3    H133824   4.548   5.494   1.159 -0.1740 -0.5563  0.5109
 4111TIP3    H233825   4.439   5.497   1.264 -0.5847  1.2388  0.0680
 4112TIP3   OH233826   4.613   2.965   5.790 -0.0973  0.4255 -0.4475
 4112TIP3    H133827   4.628   2.930   5.877 -1.9614 -0.4758 -0.4294
 4112TIP3    H233828   4.582   2.890   5.739  0.2004  1.1108 -1.6729
 4113TIP3   OH233829   5.789   4.145   5.355  0.0932  0.4639 -0.0071
 4113TIP3    H133830   5.760   4.137   5.446 -2.0857  2.9013 -0.3532
 4113TIP3    H233831   5.713   4.181   5.309  1.2564 -0.3241 -2.7458
 4114TIP3   OH233832   5.690   3.666   1.736 -0.9035 -0.2378  0.3889
 4114TIP3    H133833   5.667   3.726   1.664 -0.4423  0.7738  1.0553
 4114TIP3    H233834   5.609   3.656   1.786 -1.1683 -0.7643 -0.1288
 4115TIP3   OH233835   6.204   4.128  14.780 -1.2740 -0.6737 -0.0397
 4115TIP3    H133836   6.165   4.192  14.720 -1.0685  0.5969  1.1115
 4115TIP3    H233837   6.136   4.112  14.845 -0.4672  0.4204  1.1435
 4116TIP3   OH233838   0.778   6.195   3.973 -0.1041 -0.4001 -1.0371
 4116TIP3    H133839   0.825   6.260   4.026  0.1710 -2.7602  1.8989
 4116TIP3    H233840   0.688   6.199   4.006 -0.7518  0.2438 -2.7419
 4117TIP3   OH233841   5.809   4.807  15.191 -0.7279  0.2441  0.0143
 4117TIP3    H133842   5.813   4.815  15.286 -0.8267 -1.3358  0.1830
 4117TIP3    H233843   5.819   4.896  15.159  1.6119  0.5637  1.4312
 4118TIP3   OH233844   4.272   0.654   1.260  0.7897 -0.4252  0.9455
 4118TIP3    H133845   4.194   0.700   1.289  0.5101  0.8407 -1.6148
 4118TIP3    H233846   4.281   0.581   1.323 -0.9335  0.8499  2.7997
 4119TIP3   OH233847   4.614   2.120  15.298  0.0435  0.2678  0.3371
 4119TIP3    H133848   4.580   2.209  15.295 -0.6801  0.0310  1.2162
 4119TIP3    H233849   4.639   2.101  15.207 -0.8079  0.9681 -0.0535
 4120TIP3   OH233850   0.031   1.500   3.832  0.2919 -0.4378  0.5703
 4120TIP3    H133851   0.045   1.413   3.868 -0.0033 -0.8566 -0.3221
 4120TIP3    H233852  -0.039   1.537   3.886 -1.3166 -1.6912 -0.5747
 4121TIP3   OH233853   3.405   0.676  17.150  0.1266  0.4139 -0.6101
 4121TIP3    H133854   3.420   0.620  17.074  0.6195  0.6655 -0.6997
 4121TIP3    H233855   3.459   0.639  17.219 -0.0586  0.3885 -0.4760
 4122TIP3   OH233856   0.049   2.236  13.497  0.0091  0.1404  0.6821
 4122TIP3    H133857   0.114   2.218  13.429 -2.2922  0.7851 -1.8696
 4122TIP3    H233858  -0.003   2.156  13.504 -1.2885  0.8628 -0.1837
 4123TIP3   OH233859   1.201   3.550   2.386  0.0003 -0.4057 -0.1019
 4123TIP3    H133860   1.290   3.572   2.357 -0.4800 -0.6654 -1.8875
 4123TIP3    H233861   1.158   3.635   2.396 -0.1462 -0.3235 -1.2964
 4124TIP3   OH233862   0.536   4.051  10.995 -0.8100 -0.0883 -0.2216
 4124TIP3    H133863   0.504   4.141  10.997 -2.7778 -0.7434  1.2132
 4124TIP3    H233864   0.617   4.053  11.047 -1.1716  0.7574  0.3410
 4125TIP3   OH233865   0.178   0.276  14.175  0.3426 -0.0339 -0.1199
 4125TIP3    H133866   0.239   0.312  14.112 -1.7504 -0.0716 -2.3071
 4125TIP3    H233867   0.103   0.335  14.173 -0.0126 -0.3232  2.0072
 4126TIP3   OH233868   6.205   5.708  11.640  0.0224 -0.0441  0.3976
 4126TIP3    H133869   6.221   5.689  11.732  1.4196  2.1067  0.6864
 4126TIP3    H233870   6.148   5.785  11.642  1.8396  1.3952 -0.4354
 4127TIP3   OH233871   0.740   6.561  15.510 -0.5107 -0.0453 -0.0416
 4127TIP3    H133872   0.744   6.479  15.560  2.8375 -0.6515 -1.0636
 4127TIP3    H233873   0.688   6.539  15.432  0.6017 -1.3285 -0.4551
 4128TIP3   OH233874   4.681   2.379   3.539  0.0674 -0.1529  0.6777
 4128TIP3    H133875   4.589   2.405   3.543  0.0306  0.0612 -0.8113
 4128TIP3    H233876   4.679   2.283   3.545 -0.3501 -0.2142 -0.2190
 4129TIP3   OH233877   5.906   1.613  12.891 -0.0634  0.4101 -0.1412
 4129TIP3    H133878   5.895   1.632  12.985  0.4427  1.5103 -0.2881
 4129TIP3    H233879   5.910   1.699  12.850  1.8205 -0.0236 -0.9417
 4130TIP3   OH233880   5.576   5.367  11.185 -0.3394 -0.2832 -0.3277
 4130TIP3    H133881   5.606   5.373  11.095 -0.2022  1.0436 -0.2248
 4130TIP3    H233882   5.483   5.390  11.182 -0.0956  0.8156 -0.0285
 4131TIP3   OH233883   3.661   4.480  16.701  0.0421  0.4299  0.2166
 4131TIP3    H133884   3.581   4.437  16.728  0.0159  0.6960  0.5706
 4131TIP3    H233885   3.706   4.501  16.783  0.6678 -0.0809  0.0151
 4132TIP3   OH233886   1.093   3.162  11.945  0.3405 -0.1959  0.7120
 4132TIP3    H133887   1.188   3.176  11.948  0.3214  0.7060 -1.2619
 4132TIP3    H233888   1.078   3.117  11.862 -1.1301  1.4792  0.0001
 4133TIP3   OH233889   4.920   5.681  11.464  0.1858  0.0636  0.2728
 4133TIP3    H133890   4.952   5.642  11.383 -1.4160 -0.4096 -0.1878
 4133TIP3    H233891   4.874   5.610  11.508 -1.0810  0.8997  0.3795
 4134TIP3   OH233892   6.086   1.906  14.216 -0.2872  0.6473 -0.5108
 4134TIP3    H133893   6.157   1.968  14.197 -0.9431  1.5288 -0.1353
 4134TIP3    H233894   6.083   1.901  14.311  0.8235 -1.2326 -0.5320
 4135TIP3   OH233895   6.011   3.726  14.303 -0.0558  0.2845  0.3609
 4135TIP3    H133896   6.024   3.746  14.211  1.8429  0.7427  0.6820
 4135TIP3    H233897   5.946   3.656  14.304 -1.0782  1.1602 -1.2291
 4136TIP3   OH233898   3.866   2.166  13.573 -0.0953  0.0058 -0.2393
 4136TIP3    H133899   3.913   2.245  13.548 -0.3468  0.5036  0.7978
 4136TIP3    H233900   3.934   2.100  13.586  0.3284  0.6441  0.9665
 4137TIP3   OH233901   4.874   3.859  14.787 -0.3028  0.1525 -0.4798
 4137TIP3    H133902   4.817   3.834  14.714  0.7600  0.7816 -1.5739
 4137TIP3    H233903   4.919   3.779  14.811 -1.6272 -0.3576  0.4107
 4138TIP3   OH233904   0.305   2.021   1.342 -0.0929  0.3786 -0.0082
 4138TIP3    H133905   0.323   2.060   1.427 -1.1453  0.4879  0.1735
 4138TIP3    H233906   0.388   2.027   1.294  0.3765  0.7249  0.8411
 4139TIP3   OH233907   2.835   2.915  12.577  0.3189  0.7312 -0.3836
 4139TIP3    H133908   2.859   2.974  12.505  3.0594 -0.1474 -0.3067
 4139TIP3    H233909   2.836   2.970  12.655  0.4977  1.0698 -0.6219
 4140TIP3   OH233910   1.707   4.850  15.235 -0.1131 -0.4873  0.3610
 4140TIP3    H133911   1.672   4.878  15.150 -1.4420 -2.3284  0.2365
 4140TIP3    H233912   1.740   4.930  15.275 -2.0840  0.9242 -0.6869
 4141TIP3   OH233913   3.196   5.416  13.397 -0.1836 -0.0802 -0.3082
 4141TIP3    H133914   3.257   5.481  13.432 -0.6122 -0.3209  0.9327
 4141TIP3    H233915   3.240   5.332  13.411 -0.7008 -0.2408  0.4328
 4142TIP3   OH233916   0.808   4.800  13.196  0.2314 -0.3311  0.2536
 4142TIP3    H133917   0.829   4.787  13.288 -1.9404  0.3871  0.9197
 4142TIP3    H233918   0.892   4.798  13.151  1.1929 -2.5386  1.9942
 4143TIP3   OH233919   3.972   5.773   2.564  0.0541 -0.5761  0.1112
 4143TIP3    H133920   4.060   5.739   2.549  0.0468 -0.2338 -0.7328
 4143TIP3    H233921   3.976   5.812   2.652  0.7002 -0.6994  0.1399
 4144TIP3   OH233922   5.829   5.002   0.042 -0.0669  0.5859 -0.4608
 4144TIP3    H133923   5.906   5.015  -0.013  1.0376  0.4045  0.9815
 4144TIP3    H233924   5.783   5.085   0.039  1.3098  1.4192  0.3024
 4145TIP3   OH233925   1.629   5.386   5.866 -0.1257 -0.2645  0.7928
 4145TIP3    H133926   1.537   5.379   5.889  0.0791 -0.4610  1.5817
 4145TIP3    H233927   1.676   5.377   5.949  0.5021  2.8148  0.9011
 4146TIP3   OH233928   4.325   6.288   1.338 -0.0020  0.1803  0.1559
 4146TIP3    H133929   4.271   6.289   1.259  1.2109 -0.2925 -0.7226
 4146TIP3    H233930   4.273   6.238   1.401 -0.6179 -0.2215 -0.6391
 4147TIP3   OH233931   3.625   2.777   2.631  0.4005  0.3927  0.4921
 4147TIP3    H133932   3.696   2.773   2.568 -0.6783 -1.4412 -0.7181
 4147TIP3    H233933   3.574   2.854   2.605  0.0031 -0.3040 -0.8875
 4148TIP3   OH233934   1.163   1.016  14.290 -0.4952  0.0967  0.1439
 4148TIP3    H133935   1.080   1.054  14.318  0.2473  1.5423  0.5042
 4148TIP3    H233936   1.178   1.051  14.203 -0.9824 -1.3962 -0.5669
 4149TIP3   OH233937   6.535   6.677  12.606  0.3425  0.3264 -0.6747
 4149TIP3    H133938   6.449   6.690  12.565  0.8695  1.0262 -1.6080
 4149TIP3    H233939   6.595   6.666  12.532  0.9529 -0.8995 -0.0190
 4150TIP3   OH233940   0.961   4.937   3.300 -0.0566  0.1768 -0.1251
 4150TIP3    H133941   0.885   4.985   3.265  1.9332  3.4990 -0.3748
 4150TIP3    H233942   0.999   4.894   3.224 -0.9289 -0.4663 -0.2211
 4151TIP3   OH233943   3.350   3.931   1.185 -0.4193 -0.1306  0.0869
 4151TIP3    H133944   3.288   3.866   1.154 -2.1256  0.7828  1.4234
 4151TIP3    H233945   3.320   3.954   1.272  2.0291  0.1155  0.9640
 4152TIP3   OH233946   2.493   1.525   3.010  0.4135  0.0106  0.0759
 4152TIP3    H133947   2.414   1.473   3.020  0.8351 -1.2177 -2.2289
 4152TIP3    H233948   2.564   1.461   3.005  1.2881  0.9551 -0.1122
 4153TIP3   OH233949   3.557   5.382  13.416 -0.1160 -0.0507 -0.0016
 4153TIP3    H133950   3.518   5.462  13.451 -0.9432 -0.9391  1.2261
 4153TIP3    H233951   3.651   5.395  13.424 -0.2557  0.5454  0.7948
 4154TIP3   OH233952   3.216   0.513  15.050 -0.2299  0.2120  0.3362
 4154TIP3    H133953   3.186   0.425  15.074  1.4162 -0.2482  0.8463
 4154TIP3    H233954   3.275   0.499  14.976  1.7655  0.5664  1.7661
 4155TIP3   OH233955   4.344   2.501   4.323  0.0143  0.1624 -0.5345
 4155TIP3    H133956   4.280   2.562   4.286  0.5631  0.9343 -0.2434
 4155TIP3    H233957   4.411   2.493   4.255 -1.0854 -1.8339 -1.4843
 4156TIP3   OH233958   6.606   6.717   1.520 -0.4122  0.1327  0.4671
 4156TIP3    H133959   6.536   6.705   1.457  0.1953  0.0682 -0.2090
 4156TIP3    H233960   6.569   6.686   1.603 -1.3623  0.6298  0.2449
 4157TIP3   OH233961   0.076   6.297   2.022  0.1841 -0.0154 -0.8578
 4157TIP3    H133962   0.060   6.391   2.022  2.9931  0.5764  0.6185
 4157TIP3    H233963   0.098   6.276   1.932 -0.2028  0.7705 -1.1427
 4158TIP3   OH233964   6.764   3.011  11.585  0.3844  0.0108  0.0815
 4158TIP3    H133965   6.732   3.095  11.617  1.4101  0.8365 -0.9562
 4158TIP3    H233966   6.731   3.005  11.495  0.4990 -0.5957  0.0738
 4159TIP3   OH233967   3.872   0.541  11.639 -0.2611  0.3660 -0.4166
 4159TIP3    H133968   3.938   0.473  11.654 -0.0828  0.6067 -0.0982
 4159TIP3    H233969   3.921   0.612  11.598 -0.1771  0.8161  0.4420
 4160TIP3   OH233970   2.402   5.190   1.334 -0.5943  0.5058  0.8487
 4160TIP3    H133971   2.312   5.201   1.364 -1.6543 -1.0679 -1.4566
 4160TIP3    H233972   2.411   5.095   1.319  1.1061  0.7520  0.0542
 4161TIP3   OH233973   3.045   3.139   5.801  0.3515 -0.4164  0.7386
 4161TIP3    H133974   3.108   3.171   5.866 -0.8311  0.6697  1.3962
 4161TIP3    H233975   2.959   3.159   5.839 -0.4013 -1.9351 -0.0939
 4162TIP3   OH233976   5.361   3.178  16.618  0.1461 -0.7061 -0.1861
 4162TIP3    H133977   5.275   3.221  16.617  1.4628  2.2356  0.4140
 4162TIP3    H233978   5.382   3.165  16.525  1.3895  4.1374 -0.8765
 4163TIP3   OH233979   2.203   5.544   1.111  0.9859 -0.2518  0.1763
 4163TIP3    H133980   2.141   5.504   1.173  1.2864  0.7644  1.1709
 4163TIP3    H233981   2.159   5.540   1.027  0.2271 -0.9631  0.5956
 4164TIP3   OH233982   2.797   1.880  12.248 -0.5922  0.2209 -0.3956
 4164TIP3    H133983   2.743   1.829  12.188 -0.2492 -0.2971 -0.2764
 4164TIP3    H233984   2.772   1.971  12.232 -1.9265 -0.0448  0.0836
 4165TIP3   OH233985   4.821   1.974   4.510  0.3123  0.4810 -0.2330
 4165TIP3    H133986   4.753   1.929   4.461 -1.2420 -0.1209  2.2873
 4165TIP3    H233987   4.868   1.904   4.556  1.4926  1.0444 -0.5232
 4166TIP3   OH233988   1.896   3.211   4.125  0.4286 -0.0846 -0.3864
 4166TIP3    H133989   1.938   3.141   4.175 -0.4658  0.2790  0.9194
 4166TIP3    H233990   1.937   3.291   4.156 -1.1885  0.2827  0.9590
 4167TIP3   OH233991   6.611   3.593  15.183  0.1605  0.6098 -0.1852
 4167TIP3    H133992   6.585   3.503  15.164  1.1683 -0.0445  1.3687
 4167TIP3    H233993   6.566   3.616  15.264 -2.3152  2.5755 -1.9468
 4168TIP3   OH233994   6.018   6.173   2.347  0.1143 -0.6175  0.4857
 4168TIP3    H133995   5.966   6.137   2.418  0.3837 -0.7960  0.5937
 4168TIP3    H233996   5.972   6.252   2.320 -0.1337 -0.6990  0.6755
 4169TIP3   OH233997   3.678   0.040  10.447  0.2118 -0.0807  0.1460
 4169TIP3    H133998   3.738   0.021  10.375 -0.5006  2.0280 -1.1058
 4169TIP3    H233999   3.674  -0.041  10.498  1.2140 -1.4451 -1.8258
 4170TIP3   OH234000   5.706   4.233   0.447 -0.0115  0.3658 -0.3973
 4170TIP3    H134001   5.721   4.322   0.479  3.1903 -0.1146 -0.2264
 4170TIP3    H234002   5.707   4.241   0.352  0.5354  0.5044 -0.3837
 4171TIP3   OH234003   2.719   5.118  14.759 -0.3231  0.3106 -0.4618
 4171TIP3    H134004   2.734   5.132  14.665 -0.6861 -0.9639 -0.7397
 4171TIP3    H234005   2.777   5.180  14.803  1.3185 -0.3921 -1.5214
 4172TIP3   OH234006   5.995   4.977  15.786 -0.5596 -0.0863 -0.3533
 4172TIP3    H134007   5.936   4.932  15.846  0.6985 -0.3909  0.6974
 4172TIP3    H234008   6.029   5.051  15.836  0.4483 -0.2966 -0.7020
 4173TIP3   OH234009   3.193   6.345  16.233 -0.9025 -0.1509 -0.5325
 4173TIP3    H134010   3.139   6.266  16.224  1.0848 -1.5270 -1.0193
 4173TIP3    H234011   3.217   6.368  16.143  0.6609 -0.5915 -0.2626
 4174TIP3   OH234012   3.700   6.321  17.052 -0.3008  0.4479 -0.1249
 4174TIP3    H134013   3.650   6.317  16.970 -0.7139 -0.0001  0.1476
 4174TIP3    H234014   3.635   6.342  17.119  0.4263  3.6599 -0.2664
 4175TIP3   OH234015   1.257   3.182  15.195 -0.6401  0.2902 -0.4738
 4175TIP3    H134016   1.184   3.124  15.218 -2.3136  1.1688 -3.0634
 4175TIP3    H234017   1.216   3.267  15.182  0.8555  0.8400 -1.9313
 4176TIP3   OH234018   4.109   3.563   2.246 -0.1323 -0.2299  0.3899
 4176TIP3    H134019   4.054   3.505   2.193  0.7203 -0.2945 -0.4466
 4176TIP3    H234020   4.048   3.629   2.279 -0.6914 -0.1784 -0.6792
 4177TIP3   OH234021   6.361   3.496   2.775  0.5689  1.0003 -0.1614
 4177TIP3    H134022   6.273   3.491   2.739  0.7039  1.8343 -0.6346
 4177TIP3    H234023   6.363   3.429   2.844  0.7751 -1.7082 -2.6214
 4178TIP3   OH234024   2.944   1.750  11.822  0.2402 -0.2029 -0.5326
 4178TIP3    H134025   2.944   1.668  11.871 -0.4658 -2.1070 -3.4688
 4178TIP3    H234026   2.852   1.775  11.816  0.4105  0.5935 -0.0676
 4179TIP3   OH234027   4.498   2.591  16.762 -0.2549  0.4934  0.5719
 4179TIP3    H134028   4.432   2.637  16.813 -1.2833  0.6689 -0.8531
 4179TIP3    H234029   4.494   2.500  16.792 -0.6989  0.6255  0.9170
 4180TIP3   OH234030   0.138   1.921  11.130  0.2203  0.4819  0.6060
 4180TIP3    H134031   0.176   1.992  11.182 -0.4759  1.9451 -0.7751
 4180TIP3    H234032   0.057   1.958  11.095  0.4025 -0.5879 -1.0675
 4181TIP3   OH234033   4.021   5.118   0.366 -0.5516 -0.0961 -0.2001
 4181TIP3    H134034   3.962   5.172   0.314 -0.1723  0.4614 -0.0618
 4181TIP3    H234035   3.965   5.049   0.401 -1.1841  0.5607  0.1318
 4182TIP3   OH234036   6.146   4.798  14.030 -0.3288  0.1019  0.2097
 4182TIP3    H134037   6.123   4.850  13.954  1.0561  1.7206  0.8304
 4182TIP3    H234038   6.062   4.770  14.067 -1.0240 -0.1601 -1.5113
 4183TIP3   OH234039   5.854   0.321  15.754 -0.4495 -0.5287 -0.6633
 4183TIP3    H134040   5.931   0.289  15.800 -0.2236  1.3654  0.3784
 4183TIP3    H234041   5.890   0.365  15.676 -0.4657  0.3405 -0.1859
 4184TIP3   OH234042   3.852   6.700  12.936 -0.1669 -0.1908 -0.7706
 4184TIP3    H134043   3.874   6.784  12.894  0.9271  0.8908  1.7634
 4184TIP3    H234044   3.776   6.719  12.990 -1.2616 -1.4383 -1.8036
 4185TIP3   OH234045   6.466   3.395  14.708  0.0356 -0.3658 -0.5673
 4185TIP3    H134046   6.559   3.375  14.701  0.6960  2.0572  0.3366
 4185TIP3    H234047   6.429   3.321  14.757  1.9845 -0.1171  1.4062
 4186TIP3   OH234048   3.676   0.322   2.280  0.0075 -0.0343 -0.5003
 4186TIP3    H134049   3.670   0.313   2.375  2.5822  0.5394 -0.1915
 4186TIP3    H234050   3.730   0.247   2.253 -0.1589  0.1747 -1.4283
 4187TIP3   OH234051   5.523   5.020   2.537 -0.5768 -0.0114  0.2573
 4187TIP3    H134052   5.460   5.039   2.606 -2.2363  0.1566 -1.2318
 4187TIP3    H234053   5.607   5.047   2.574 -1.5426  1.0615  1.8201
 4188TIP3   OH234054   4.476   4.172  11.953 -0.1549  0.0836  0.2287
 4188TIP3    H134055   4.412   4.197  11.887  0.6134  0.9437 -0.2154
 4188TIP3    H234056   4.425   4.160  12.033 -0.6652  2.9063  0.4378
 4189TIP3   OH234057   6.623   5.211  11.838  0.3737 -0.4513 -0.4138
 4189TIP3    H134058   6.622   5.302  11.810  1.0775  0.0165  0.9738
 4189TIP3    H234059   6.546   5.203  11.895  0.8626 -0.4262  0.2705
 4190TIP3   OH234060   1.971   2.132   4.323  0.0935 -0.0706  1.0141
 4190TIP3    H134061   2.009   2.068   4.383 -1.5374 -1.2606  0.8381
 4190TIP3    H234062   1.934   2.199   4.381 -1.1065 -0.9983  1.3618
 4191TIP3   OH234063   6.041   0.331  12.674 -0.6979  0.2996  0.0075
 4191TIP3    H134064   5.973   0.365  12.732 -2.2485 -0.3945 -1.3245
 4191TIP3    H234065   6.058   0.242  12.706 -0.2090  0.5607  0.4930
 4192TIP3   OH234066   1.256   6.726  15.312  0.5449 -0.0485  0.1672
 4192TIP3    H134067   1.209   6.658  15.361  1.3041  0.6146  1.9106
 4192TIP3    H234068   1.187   6.783  15.279 -0.0161 -0.7147  0.1584
 4193TIP3   OH234069   0.604   1.893  12.977 -0.5730  0.0615  0.0388
 4193TIP3    H134070   0.580   1.894  13.069 -0.5180 -0.8357  0.0716
 4193TIP3    H234071   0.612   1.800  12.955  0.0573  0.2769 -0.7013
 4194TIP3   OH234072   6.241   2.211   3.616  0.1883  0.0980  0.1895
 4194TIP3    H134073   6.268   2.125   3.647 -0.8946 -0.3690 -0.1342
 4194TIP3    H234074   6.294   2.225   3.537  0.8256  0.0228  0.5922
 4195TIP3   OH234075   0.664   4.416  12.498  0.2147 -0.0271  0.1764
 4195TIP3    H134076   0.603   4.381  12.562  0.1819  0.0281  0.1763
 4195TIP3    H234077   0.608   4.452  12.429  0.2399  0.3210  0.3358
 4196TIP3   OH234078   6.137   0.054  13.177 -0.2248 -0.2282 -0.3102
 4196TIP3    H134079   6.210   0.116  13.182 -1.5388  1.3333  0.8044
 4196TIP3    H234080   6.161  -0.017  13.237  1.0036 -0.4884 -1.0767
 4197TIP3   OH234081   5.973   5.073  13.874  0.0550  1.1506  0.5479
 4197TIP3    H134082   5.913   5.003  13.896  0.2716  1.1361  1.0943
 4197TIP3    H234083   5.977   5.072  13.778  0.9755 -0.3677  0.5704
 4198TIP3   OH234084   1.610   4.382  14.524  0.6135  0.4590 -0.1751
 4198TIP3    H134085   1.565   4.299  14.538 -1.4493  1.5780  0.1740
 4198TIP3    H234086   1.686   4.359  14.471 -0.1907 -1.5612 -0.5448
 4199TIP3   OH234087   3.887   5.867   1.244  0.2187 -0.0153  0.1329
 4199TIP3    H134088   3.933   5.879   1.161  0.7230  0.1256  0.4346
 4199TIP3    H234089   3.872   5.773   1.249 -0.0767  0.0063 -0.2559
 4200TIP3   OH234090   4.095   1.510  16.037 -0.6428  0.2330  0.2554
 4200TIP3    H134091   4.041   1.584  16.008 -1.1946  0.0406  0.7752
 4200TIP3    H234092   4.115   1.530  16.129 -0.8194 -0.2818  0.4057
 4201TIP3   OH234093   5.278   0.917  11.657  0.7022  0.3839 -0.7963
 4201TIP3    H134094   5.253   0.998  11.700 -0.8583 -0.2118 -0.5169
 4201TIP3    H234095   5.330   0.870  11.722 -1.6207 -0.5074  0.5336
 4202TIP3   OH234096   0.046   1.931   5.346 -0.4034  0.4488 -0.6340
 4202TIP3    H134097  -0.016   1.889   5.406 -0.4653  0.9550 -0.3459
 4202TIP3    H234098   0.071   2.013   5.389  1.8423 -0.5352  0.1119
 4203TIP3   OH234099   2.698   5.426   2.080  0.5040  0.5664 -0.0057
 4203TIP3    H134100   2.628   5.453   2.141  2.1310  1.2823  1.6350
 4203TIP3    H234101   2.698   5.494   2.013 -2.0891 -0.8320 -1.6011
 4204TIP3   OH234102   5.778   3.286   1.988 -0.3750 -0.5028  0.2562
 4204TIP3    H134103   5.803   3.300   1.896 -0.3643  0.1556  0.3559
 4204TIP3    H234104   5.852   3.240   2.026 -0.3408 -0.7020 -0.0431
 4205TIP3   OH234105   0.895   1.938   1.216  0.2769 -0.6488  0.1849
 4205TIP3    H134106   0.951   1.990   1.274 -0.4706 -1.4063  1.6482
 4205TIP3    H234107   0.893   1.851   1.256 -1.0453 -0.9363 -0.4328
 4206TIP3   OH234108   5.502   2.937   0.545 -0.1074  0.2299  0.2871
 4206TIP3    H134109   5.509   2.931   0.641 -0.9494 -0.4549  0.3178
 4206TIP3    H234110   5.471   2.850   0.518 -0.8083  0.7190 -0.5141
 4207TIP3   OH234111   5.597   5.565  11.672 -0.3146  0.5934  0.0301
 4207TIP3    H134112   5.637   5.635  11.619  3.0946 -1.2955 -0.1989
 4207TIP3    H234113   5.561   5.504  11.608 -1.0878  0.9187  0.1433
 4208TIP3   OH234114   1.070   5.035  10.206 -0.2086  0.7919 -0.1724
 4208TIP3    H134115   1.072   5.004  10.297  1.3444 -0.8461 -0.6990
 4208TIP3    H234116   0.989   5.085  10.200  0.0137  1.6126  2.3091
 4209TIP3   OH234117   1.916   5.769  10.825  0.0058  0.0115  0.8485
 4209TIP3    H134118   1.968   5.843  10.857 -0.9819 -0.2069  3.1571
 4209TIP3    H234119   1.955   5.747  10.740  1.4805  1.9856  0.9451
 4210TIP3   OH234120   4.205   6.298   3.954  1.2649 -0.1466 -0.3888
 4210TIP3    H134121   4.145   6.372   3.967  2.3715  0.6131  0.7261
 4210TIP3    H234122   4.150   6.221   3.959 -0.0971  0.6041 -2.6043
 4211TIP3   OH234123   0.839   1.849   5.362  0.7795  0.0563 -0.0673
 4211TIP3    H134124   0.768   1.794   5.395  0.5263  1.1185  1.2807
 4211TIP3    H234125   0.826   1.851   5.268  0.8242 -2.1687 -0.1770
 4212TIP3   OH234126   3.481   6.489  12.750 -0.0697  0.0983  0.1494
 4212TIP3    H134127   3.395   6.507  12.790 -0.1638 -0.3845  0.1776
 4212TIP3    H234128   3.518   6.419  12.803 -0.3748 -0.8481 -0.8371
 4213TIP3   OH234129   2.629   1.232  16.753  0.6818 -0.3627  0.0522
 4213TIP3    H134130   2.569   1.158  16.744  0.9192 -0.5627  0.1009
 4213TIP3    H234131   2.675   1.216  16.835  0.0308  0.3601  0.5722
 4214TIP3   OH234132   5.793   6.074   1.398 -0.4971  0.0238 -0.6377
 4214TIP3    H134133   5.847   6.060   1.321  0.5806 -1.8681  0.3825
 4214TIP3    H234134   5.760   5.987   1.421 -1.0453  0.5800  0.8470
 4215TIP3   OH234135   5.716   6.088   5.199 -0.3380  0.1312  0.1634
 4215TIP3    H134136   5.769   6.008   5.196  1.3415  1.2157 -0.3764
 4215TIP3    H234137   5.639   6.063   5.249  0.9791 -1.3532  1.5709
 4216TIP3   OH234138   2.736   4.509   1.381 -0.9905  0.3283  0.6437
 4216TIP3    H134139   2.654   4.504   1.332 -0.8375  2.7959 -0.0050
 4216TIP3    H234140   2.751   4.603   1.393  2.4299  0.0608 -0.4976
 4217TIP3   OH234141   5.451   6.664  16.033 -0.3989 -0.0726  0.6940
 4217TIP3    H134142   5.523   6.691  15.977 -0.0334  0.2679  1.3216
 4217TIP3    H234143   5.396   6.742  16.040  0.8124  0.6711  2.7537
 4218TIP3   OH234144   6.306   4.248  17.297  0.1029  0.6645  0.2328
 4218TIP3    H134145   6.335   4.324  17.245  3.2660  1.2710  2.5934
 4218TIP3    H234146   6.385   4.195  17.307 -1.5279 -1.8678  0.5551
 4219TIP3   OH234147   2.847   1.776  12.966  0.0707 -0.0807 -0.3190
 4219TIP3    H134148   2.886   1.814  13.045  0.6938  0.0235 -0.6752
 4219TIP3    H234149   2.879   1.685  12.966  0.3376  0.0134 -0.6264
 4220TIP3   OH234150   5.655   6.347   1.405 -0.0184 -0.1787  0.0564
 4220TIP3    H134151   5.576   6.331   1.456  0.7534  0.7977  1.6534
 4220TIP3    H234152   5.702   6.264   1.406 -0.7492 -0.6047 -0.4211
 4221TIP3   OH234153   0.653   1.391   5.185  0.0119 -0.1072 -0.1848
 4221TIP3    H134154   0.735   1.350   5.211  0.3880  0.4943 -0.4069
 4221TIP3    H234155   0.597   1.381   5.262 -0.2099 -1.7825 -0.5248
 4222TIP3   OH234156   3.209   3.661  15.932  0.7154 -0.2799 -0.3164
 4222TIP3    H134157   3.135   3.629  15.881  1.7060 -2.0527 -0.7239
 4222TIP3    H234158   3.258   3.716  15.871  0.1174  0.3648 -0.2357
 4223TIP3   OH234159   2.891   5.572  15.618 -0.2020  0.2967 -0.5554
 4223TIP3    H134160   2.815   5.517  15.637 -0.6379  0.8319 -0.7175
 4223TIP3    H234161   2.953   5.552  15.688 -1.5320  1.7837  1.1505
 4224TIP3   OH234162   6.760   1.692   2.634  0.2316  0.3236 -0.1343
 4224TIP3    H134163   6.689   1.732   2.582 -0.0434  1.1456  0.8392
 4224TIP3    H234164   6.767   1.603   2.600 -1.7903 -0.0311  0.2291
 4225TIP3   OH234165   3.658   1.007   1.158  0.0010  0.0442 -0.3830
 4225TIP3    H134166   3.625   0.929   1.112 -0.3896 -0.8632  1.3415
 4225TIP3    H234167   3.593   1.075   1.139  0.4946  0.0590 -2.1393
 4226TIP3   OH234168   0.639   1.410   4.837  0.0547 -0.4774 -0.1092
 4226TIP3    H134169   0.585   1.422   4.759  0.1100  2.0027  0.1499
 4226TIP3    H234170   0.587   1.351   4.893 -2.3796  1.6306  0.0348
 4227TIP3   OH234171   6.449   1.511   6.073  0.6465  0.4919  0.1585
 4227TIP3    H134172   6.456   1.457   6.151 -3.0156 -1.6622 -0.7676
 4227TIP3    H234173   6.503   1.588   6.091 -1.1587  0.8767  5.4217
 4228TIP3   OH234174   0.658   4.506   5.884  0.0145  0.3183 -0.0218
 4228TIP3    H134175   0.614   4.426   5.910  0.4561  0.0744 -0.0108
 4228TIP3    H234176   0.657   4.561   5.962  2.3745 -0.8637  0.9581
 4229TIP3   OH234177   3.240   3.891  13.026  0.4351  0.8969  0.5586
 4229TIP3    H134178   3.289   3.809  13.023 -0.7845  0.1723 -0.2079
 4229TIP3    H234179   3.226   3.914  12.934 -1.6416  0.4668  0.7362
 4230TIP3   OH234180   0.428   2.382  16.763  0.1154 -0.5618  0.3634
 4230TIP3    H134181   0.489   2.373  16.837 -0.2213 -0.3292  0.6760
 4230TIP3    H234182   0.416   2.293  16.731  0.7589 -0.5854  0.1858
 4231TIP3   OH234183   2.149   1.010   3.692 -0.0089  0.4355  0.3062
 4231TIP3    H134184   2.175   1.102   3.686  0.2945  0.4816  1.9187
 4231TIP3    H234185   2.109   1.001   3.779 -0.5009 -0.8442 -0.0219
 4232TIP3   OH234186   4.577   2.473  10.967  0.2268 -0.1194 -0.3942
 4232TIP3    H134187   4.563   2.532  11.042  1.2225 -1.6274  1.0541
 4232TIP3    H234188   4.522   2.510  10.897  0.0490  1.9344  0.7334
 4233TIP3   OH234189   2.719   3.773  11.185 -0.6583 -0.3352  0.7049
 4233TIP3    H134190   2.746   3.744  11.098 -0.4023  0.5228  0.4888
 4233TIP3    H234191   2.723   3.868  11.181 -0.4900 -0.2889  1.7065
 4234TIP3   OH234192   3.809   5.061   2.074 -0.2803 -0.3684  0.3032
 4234TIP3    H134193   3.818   5.073   2.169 -1.0449 -2.2602  0.6546
 4234TIP3    H234194   3.898   5.042   2.043 -0.4245 -2.6515  1.1363
 4235TIP3   OH234195   4.950   5.005   1.835 -0.0742 -0.5926 -0.1452
 4235TIP3    H134196   4.987   5.094   1.830 -1.6805  0.1233  0.1740
 4235TIP3    H234197   4.894   4.998   1.758 -1.2226 -0.7072  0.6717
 4236TIP3   OH234198   4.624   3.273   5.468 -0.1472  0.4042  0.2069
 4236TIP3    H134199   4.624   3.247   5.560 -2.9731 -2.1443 -0.3633
 4236TIP3    H234200   4.567   3.350   5.466  0.2383  0.7056  0.6262
 4237TIP3   OH234201   5.980   5.186  15.568  0.1616  0.1539 -0.0182
 4237TIP3    H134202   5.941   5.171  15.482  3.9371  0.4160 -1.9825
 4237TIP3    H234203   6.035   5.109  15.583  1.1817  1.0654  1.1570
 4238TIP3   OH234204   3.459   1.154  12.167 -0.2495  0.2033  0.2274
 4238TIP3    H134205   3.507   1.108  12.098  0.5179  0.0244  0.8634
 4238TIP3    H234206   3.515   1.227  12.192 -0.1445 -0.1780  1.1887
 4239TIP3   OH234207   5.193   5.728  15.149 -0.1631  0.2219 -0.3016
 4239TIP3    H134208   5.202   5.738  15.055  3.5188  0.8248 -0.0515
 4239TIP3    H234209   5.216   5.637  15.166  1.8053  0.7364  0.1092
 4240TIP3   OH234210   1.039   3.810  11.225 -0.4527 -0.5163  0.4448
 4240TIP3    H134211   0.983   3.732  11.236  3.6367 -3.8789 -0.0210
 4240TIP3    H234212   1.069   3.806  11.134  0.4766  1.1929  0.6298
 4241TIP3   OH234213   3.828   5.448  15.237 -0.3086 -0.1626 -0.1074
 4241TIP3    H134214   3.787   5.511  15.178 -1.8103 -1.3023 -0.3378
 4241TIP3    H234215   3.757   5.417  15.293  0.7946 -0.1929  1.3481
 4242TIP3   OH234216   4.878   1.389  15.265 -0.0010  0.1323  0.4242
 4242TIP3    H134217   4.953   1.385  15.205 -0.4110  1.2320 -0.1834
 4242TIP3    H234218   4.882   1.306  15.312  2.4137  0.7131  1.4066
 4243TIP3   OH234219   1.143   0.814  12.840 -0.4889  0.3235  0.0712
 4243TIP3    H134220   1.154   0.720  12.827 -1.8985  0.2357 -0.7450
 4243TIP3    H234221   1.220   0.853  12.798 -0.5423 -0.4156 -0.7492
 4244TIP3   OH234222   3.908   5.579  14.557  0.2034  0.2582 -0.0751
 4244TIP3    H134223   3.818   5.550  14.541 -0.0524  0.3348  1.0757
 4244TIP3    H234224   3.924   5.647  14.492 -1.8737  2.8091  1.8544
 4245TIP3   OH234225   5.978   2.340   4.519  0.2451 -0.1407  0.2563
 4245TIP3    H134226   5.977   2.322   4.426  1.6428 -0.0251  0.2003
 4245TIP3    H234227   5.889   2.321   4.548 -0.0829 -0.6227 -1.0054
 4246TIP3   OH234228   3.871   5.787  14.375 -0.0127 -0.1331  0.0188
 4246TIP3    H134229   3.800   5.830  14.423 -1.1496 -1.7280 -0.1763
 4246TIP3    H234230   3.950   5.833  14.405 -0.9125  0.4597  1.6553
 4247TIP3   OH234231   3.989   3.859  11.079  0.1227 -0.4511  0.5771
 4247TIP3    H134232   4.013   3.929  11.019 -2.9025 -0.4234 -0.7687
 4247TIP3    H234233   4.069   3.842  11.129  1.4040  2.8643 -0.0755
 4248TIP3   OH234234   1.865   0.346  10.701  0.6933 -0.0575 -0.0931
 4248TIP3    H134235   1.815   0.425  10.678 -0.2223 -0.4056  0.6723
 4248TIP3    H234236   1.825   0.276  10.648 -2.1606 -1.0994  3.0842
 4249TIP3   OH234237   5.199   3.080  12.846  0.5197 -0.2015 -0.2315
 4249TIP3    H134238   5.106   3.082  12.825  0.5297 -0.4680 -0.2994
 4249TIP3    H234239   5.214   2.993  12.884  0.3910  0.4367  1.3550
 4250TIP3   OH234240   6.639   2.717  16.093  0.1007 -0.7014  0.4136
 4250TIP3    H134241   6.718   2.756  16.129 -0.8898  0.9012  0.9793
 4250TIP3    H234242   6.619   2.770  16.016 -1.4935  0.2584  1.4180
 4251TIP3   OH234243   6.233   3.026  11.023 -0.0051  0.2318 -0.7201
 4251TIP3    H134244   6.176   2.958  10.987 -0.6603 -1.5084  3.1770
 4251TIP3    H234245   6.322   2.991  11.011 -0.1036  0.2330 -1.5502
 4252TIP3   OH234246   4.039   5.605  13.884 -0.2880  0.1966 -0.2548
 4252TIP3    H134247   4.047   5.554  13.965  1.2735 -1.2737 -1.2670
 4252TIP3    H234248   4.089   5.685  13.901 -1.8159  0.9527  0.9623
 4253TIP3   OH234249   1.062   0.269  16.019 -0.5215 -0.2429  1.0359
 4253TIP3    H134250   1.036   0.211  16.090 -0.8733 -0.1549  0.9808
 4253TIP3    H234251   0.994   0.337  16.017  1.2372  1.7168  2.8492
 4254TIP3   OH234252   0.695   3.625  10.821 -0.4099  0.3010 -0.1465
 4254TIP3    H134253   0.786   3.644  10.801 -0.8027  1.5317 -0.8565
 4254TIP3    H234254   0.693   3.530  10.835  0.8223  0.1351 -0.9114
 4255TIP3   OH234255   3.448   1.317  16.578 -0.0505  0.1636  0.2236
 4255TIP3    H134256   3.542   1.334  16.576  0.0894 -0.4299  1.1405
 4255TIP3    H234257   3.441   1.224  16.600 -0.8630  0.5575  1.7189
 4256TIP3   OH234258   2.146   6.077   3.554  0.1562 -0.1885 -0.4191
 4256TIP3    H134259   2.098   6.027   3.620  0.3971  0.0615 -0.0517
 4256TIP3    H234260   2.181   6.152   3.601  1.3156 -0.6173 -0.5636
 4257TIP3   OH234261   0.997   1.151  15.453 -0.2234 -0.3360 -0.6118
 4257TIP3    H134262   0.930   1.176  15.517 -0.9275 -1.0213 -1.0540
 4257TIP3    H234263   1.005   1.227  15.396  0.3132  0.2298  0.2112
 4258TIP3   OH234264   3.561   2.398  11.564  0.1013 -0.0770  0.3449
 4258TIP3    H134265   3.495   2.381  11.497 -0.7537  1.3555  0.7748
 4258TIP3    H234266   3.630   2.445  11.517  0.5378 -1.0037  0.0322
 4259TIP3   OH234267   2.778   4.563  16.780  0.4019 -0.3795 -0.4648
 4259TIP3    H134268   2.870   4.541  16.765  0.9377  0.2211  1.6834
 4259TIP3    H234269   2.751   4.506  16.853  0.0199  1.6091  1.0151
 4260TIP3   OH234270   2.205   1.696   5.410  0.3137 -0.1942 -0.0232
 4260TIP3    H134271   2.263   1.766   5.441 -1.5343  1.5118 -0.2535
 4260TIP3    H234272   2.117   1.728   5.428 -0.7075 -1.2011 -2.6975
 4261TIP3   OH234273   4.772   1.030  14.376  0.0168 -0.1325 -0.4441
 4261TIP3    H134274   4.711   1.029  14.450  0.0243 -0.0608 -0.4376
 4261TIP3    H234275   4.844   0.974  14.404  0.2296  0.2561 -0.2225
 4262TIP3   OH234276   3.462   5.793  16.609  0.9986 -0.2893  0.3989
 4262TIP3    H134277   3.439   5.886  16.620  3.1732  0.3646 -0.0135
 4262TIP3    H234278   3.557   5.791  16.620  1.4040 -2.0032 -2.5380
 4263TIP3   OH234279   2.990   4.525  13.420 -1.0335 -0.1496  0.4532
 4263TIP3    H134280   3.069   4.571  13.447  0.6390 -2.8807  0.5936
 4263TIP3    H234281   2.961   4.571  13.341  2.8302 -1.0945 -1.7592
 4264TIP3   OH234282   2.309   3.936   5.771  0.0165  0.9295 -0.3210
 4264TIP3    H134283   2.377   4.000   5.747 -1.9961  2.9313 -1.0910
 4264TIP3    H234284   2.259   3.979   5.840 -0.9467 -0.1484 -0.3249
 4265TIP3   OH234285   1.619   6.511  12.671  1.1583  0.1356 -0.2467
 4265TIP3    H134286   1.557   6.437  12.670  0.3784  0.7229  1.2288
 4265TIP3    H234287   1.606   6.554  12.586 -1.8962  1.3266  0.6605
 4266TIP3   OH234288   5.889   1.757  16.010  0.2662 -0.0162 -0.0915
 4266TIP3    H134289   5.959   1.695  15.993  0.7858  0.5195  0.0618
 4266TIP3    H234290   5.924   1.842  15.982 -0.4493  0.2066 -0.3515
 4267TIP3   OH234291   1.868   4.981   0.840  0.8131  0.7150  0.1082
 4267TIP3    H134292   1.937   4.940   0.787 -0.8801 -1.6031 -0.4751
 4267TIP3    H234293   1.889   5.074   0.839  2.5037  0.3991 -2.1919
 4268TIP3   OH234294   2.161   4.287   5.280 -0.5310 -0.0280 -0.6859
 4268TIP3    H134295   2.186   4.372   5.317  0.2184 -0.4380 -0.2346
 4268TIP3    H234296   2.127   4.237   5.354 -1.7060  0.1415 -1.0973
 4269TIP3   OH234297   6.715   2.386   1.209 -0.1669 -0.1333  0.1387
 4269TIP3    H134298   6.647   2.370   1.274  0.9115  1.7423  1.8539
 4269TIP3    H234299   6.775   2.312   1.218 -1.2337 -1.0896 -0.4280
 4270TIP3   OH234300   1.244   0.921   2.604  0.8633  0.4726  0.5930
 4270TIP3    H134301   1.255   1.016   2.615  0.1186  0.4696  1.4220
 4270TIP3    H234302   1.259   0.885   2.691 -0.3741 -0.0143  0.6284
 4271TIP3   OH234303   6.207   2.665   5.171 -0.2604 -0.2154  0.2766
 4271TIP3    H134304   6.224   2.734   5.235  0.4789  0.1564 -0.3177
 4271TIP3    H234305   6.267   2.683   5.099  0.0187 -1.5299  0.1513
 4272TIP3   OH234306   5.880   0.201   3.591  0.2536 -0.1694  0.1327
 4272TIP3    H134307   5.833   0.283   3.574  1.5908  0.7250  0.5978
 4272TIP3    H234308   5.856   0.144   3.518  0.2241  1.0499 -0.8335
 4273TIP3   OH234309   3.918   3.786  16.054  0.7300 -0.3241 -0.0530
 4273TIP3    H134310   3.941   3.712  15.998 -1.4449 -0.3508 -1.0282
 4273TIP3    H234311   3.852   3.834  16.004  1.0154  1.4610  1.1855
 4274TIP3   OH234312   5.263   1.451  15.635 -0.5858 -0.5631 -0.1562
 4274TIP3    H134313   5.189   1.426  15.691  0.4282 -3.6151  0.0288
 4274TIP3    H234314   5.332   1.476  15.697 -0.1424 -1.8887 -0.0845
 4275TIP3   OH234315   1.599   5.140   0.973  0.0939  0.3986 -0.0067
 4275TIP3    H134316   1.543   5.154   0.896  0.8428 -0.7789 -0.8069
 4275TIP3    H234317   1.688   5.142   0.938  0.5450  1.5728  1.1353
 4276TIP3   OH234318   1.120   0.267  14.091  0.0760  0.2082  0.0281
 4276TIP3    H134319   1.029   0.278  14.118  0.3254  0.8221  0.6328
 4276TIP3    H234320   1.133   0.172  14.091 -0.2946  0.1504  0.8644
 4277TIP3   OH234321   1.155   2.762  12.963  0.5790 -0.4346  0.2672
 4277TIP3    H134322   1.197   2.821  12.901  1.5351  0.2201  1.4969
 4277TIP3    H234323   1.198   2.780  13.047  0.1394 -2.1000  0.9010
 4278TIP3   OH234324   1.908   3.431  11.540  0.4375  0.0639  0.1380
 4278TIP3    H134325   1.906   3.527  11.542 -2.4166  0.0892 -0.1871
 4278TIP3    H234326   1.993   3.408  11.578  0.2744  2.6830  2.3949
 4279TIP3   OH234327   5.644   4.148  13.346  0.0571  0.0025  0.4105
 4279TIP3    H134328   5.632   4.226  13.293 -0.7757 -0.4741 -0.1429
 4279TIP3    H234329   5.633   4.178  13.436 -0.0787  0.5518  0.2149
 4280TIP3   OH234330   1.839   2.389   2.340  0.2431  0.1122  0.3382
 4280TIP3    H134331   1.802   2.305   2.366 -1.2835 -0.2054 -2.4407
 4280TIP3    H234332   1.763   2.445   2.324  1.0153  0.5639 -2.1514
 4281TIP3   OH234333   3.259   1.408   4.394 -0.0451  0.2880  0.5246
 4281TIP3    H134334   3.222   1.490   4.427  1.5690  0.2592  2.5775
 4281TIP3    H234335   3.354   1.424   4.392  0.1305 -0.4523 -2.2356
 4282TIP3   OH234336   2.055   5.670  15.827 -0.3119  0.0862  0.3875
 4282TIP3    H134337   2.120   5.690  15.760 -0.0193  1.7505  1.1275
 4282TIP3    H234338   1.976   5.649  15.778  0.3825 -0.5431 -0.4974
 4283TIP3   OH234339   5.714   0.413  12.228 -1.1502 -0.2664 -0.2238
 4283TIP3    H134340   5.785   0.358  12.195 -1.0326 -0.0065 -0.4057
 4283TIP3    H234341   5.742   0.439  12.316 -0.7426  0.3172 -0.5154
 4284TIP3   OH234342   1.486   0.940  11.739 -0.0457  0.3643 -0.0862
 4284TIP3    H134343   1.391   0.946  11.734  0.0247  0.7585 -1.4693
 4284TIP3    H234344   1.508   0.964  11.829 -1.1839  1.2257 -0.0267
 4285TIP3   OH234345   4.290   0.708   5.149 -0.5352 -0.7705 -0.1638
 4285TIP3    H134346   4.367   0.652   5.141  0.4547  0.4950  0.1865
 4285TIP3    H234347   4.229   0.658   5.203  0.6223 -1.1979  0.7869
 4286TIP3   OH234348   4.512   5.612   6.744 -0.0905  0.7288 -0.1496
 4286TIP3    H134349   4.608   5.612   6.742  0.0615  0.2895  2.7940
 4286TIP3    H234350   4.488   5.702   6.763 -0.1745  0.5472  0.6197
 4287TIP3   OH234351   4.865   3.201   6.140  0.5989  0.3199  0.3059
 4287TIP3    H134352   4.816   3.186   6.059 -0.2459 -0.8319  0.9922
 4287TIP3    H234353   4.887   3.113   6.171 -0.7777  0.6258  2.3151
 4288TIP3   OH234354   6.488   1.985  17.211 -0.1780  0.1292  0.5345
 4288TIP3    H134355   6.465   1.922  17.143 -0.8539  0.1120  0.7742
 4288TIP3    H234356   6.549   1.938  17.268  1.2320  0.4716 -0.6158
 4289TIP3   OH234357   2.829   3.188  16.108 -0.3407 -0.1472  0.0182
 4289TIP3    H134358   2.882   3.206  16.030 -1.1209 -2.2516 -1.0643
 4289TIP3    H234359   2.766   3.121  16.080 -1.1230 -0.4547  2.2824
 4290TIP3   OH234360   6.465   4.284  12.035 -0.2831  0.2468 -0.4394
 4290TIP3    H134361   6.449   4.192  12.055 -0.2266  0.4092  0.4058
 4290TIP3    H234362   6.527   4.283  11.962 -0.7206 -0.3799 -0.8068
 4291TIP3   OH234363   4.139   2.415   1.805 -0.5081 -0.7032  0.3271
 4291TIP3    H134364   4.210   2.403   1.742  0.1193  0.6686  0.7434
 4291TIP3    H234365   4.169   2.484   1.864 -1.6053 -1.0698  1.3784
 4292TIP3   OH234366   5.939   1.209  15.241 -0.1047  0.0151 -0.8537
 4292TIP3    H134367   5.943   1.114  15.229 -0.3945 -0.2845  1.1383
 4292TIP3    H234368   5.995   1.244  15.172  1.4307 -1.6951 -0.5641
 4293TIP3   OH234369   4.173   1.205   4.995 -0.5307 -0.3492  0.1971
 4293TIP3    H134370   4.134   1.193   4.908  1.9170 -1.4702 -0.8454
 4293TIP3    H234371   4.111   1.164   5.055 -0.2630 -3.5990 -1.5381
 4294TIP3   OH234372   1.675   3.623   4.001 -0.7860  0.6442 -0.0871
 4294TIP3    H134373   1.738   3.650   4.068 -0.1672  1.0386 -0.8189
 4294TIP3    H234374   1.611   3.694   3.998 -0.8727  0.5783  0.1482
 4295TIP3   OH234375   6.705   4.853   2.274 -0.7411  0.0747  0.2543
 4295TIP3    H134376   6.623   4.810   2.301 -0.1197 -0.6852  1.0233
 4295TIP3    H234377   6.708   4.841   2.180 -2.3982  1.7248 -0.0641
 4296TIP3   OH234378   2.843   3.115  13.465 -0.1845  0.1252  0.0333
 4296TIP3    H134379   2.752   3.090  13.477  0.1618 -0.6732  1.1667
 4296TIP3    H234380   2.894   3.042  13.502  0.8798  1.4197  1.2745
 4297TIP3   OH234381   4.738   4.744  12.180  0.3669 -0.6861  0.4807
 4297TIP3    H134382   4.753   4.792  12.099 -0.7669  0.2743  0.8102
 4297TIP3    H234383   4.785   4.661  12.168  1.4151  0.0229 -0.5613
 4298TIP3   OH234384   3.572   1.772   4.444  0.1581 -0.1939 -0.3179
 4298TIP3    H134385   3.536   1.713   4.378  0.3721 -0.7466  0.0506
 4298TIP3    H234386   3.497   1.824   4.473  0.4106  1.4658 -2.3988
 4299TIP3   OH234387   4.944   5.459  15.937 -0.2238 -0.9711 -0.6154
 4299TIP3    H134388   4.927   5.552  15.918  1.2784 -0.1989  1.3599
 4299TIP3    H234389   4.859   5.417  15.929 -0.7954  0.3924 -2.3834
 4300TIP3   OH234390   2.285   1.350  10.821  0.4359  0.5690  0.0381
 4300TIP3    H134391   2.239   1.267  10.806  0.1323  0.3965  1.7052
 4300TIP3    H234392   2.344   1.358  10.747 -0.0106 -0.8063 -0.5079
 4301TIP3   OH234393   5.691   2.292   4.449  0.3612 -0.2291  0.2800
 4301TIP3    H134394   5.628   2.254   4.387 -1.6788  1.3956  1.2387
 4301TIP3    H234395   5.713   2.377   4.412  1.4088 -0.4571  0.3552
 4302TIP3   OH234396   3.458   2.988  16.305 -0.1396 -0.0461 -0.4084
 4302TIP3    H134397   3.488   2.975  16.215 -0.9207  0.8950 -0.8297
 4302TIP3    H234398   3.374   3.034  16.296  0.3544  1.1722  0.8194
 4303TIP3   OH234399   0.161   5.949  17.064  0.3874 -0.5043  0.2255
 4303TIP3    H134400   0.070   5.921  17.061 -0.2588  1.3337  1.1941
 4303TIP3    H234401   0.158   6.044  17.055  1.9787 -0.1084  2.8105
 4304TIP3   OH234402   0.229   1.953  16.256  0.1633 -0.4304  0.1170
 4304TIP3    H134403   0.276   1.889  16.309 -1.1744 -1.4042  0.1870
 4304TIP3    H234404   0.166   1.901  16.205  1.0021  0.5270 -2.0284
 4305TIP3   OH234405   4.858   4.492   4.937 -0.1315 -0.2090 -0.3880
 4305TIP3    H134406   4.945   4.523   4.915 -0.4621  1.1718  0.0919
 4305TIP3    H234407   4.862   4.475   5.032 -0.9452  2.1053  0.1380
 4306TIP3   OH234408   5.136   2.752  16.509 -0.1257 -0.3383  0.1608
 4306TIP3    H134409   5.048   2.777  16.481 -0.0983  1.7661  1.7701
 4306TIP3    H234410   5.124   2.709  16.593  0.4249  0.6088  0.7379
 4307TIP3   OH234411   1.993   4.120   3.305  0.2341  0.1109 -0.4682
 4307TIP3    H134412   1.979   4.078   3.221 -2.3009 -2.0810  0.8750
 4307TIP3    H234413   2.035   4.053   3.359 -1.2587  0.2013  0.9035
 4308TIP3   OH234414   3.478   4.347   2.541  0.3130  0.0937 -0.1752
 4308TIP3    H134415   3.434   4.382   2.464 -0.9037 -1.2213 -0.1123
 4308TIP3    H234416   3.449   4.403   2.613  0.7728  0.7921 -0.5206
 4309TIP3   OH234417   4.794   6.387  16.203  0.0262  0.5481 -0.0522
 4309TIP3    H134418   4.847   6.467  16.205 -0.5169  0.8994  0.4975
 4309TIP3    H234419   4.784   6.363  16.295 -0.7294  0.4576 -0.1552
 4310TIP3   OH234420   3.695   6.763  14.129 -0.2349  0.3452  0.3719
 4310TIP3    H134421   3.769   6.711  14.160 -0.4325 -0.2931 -0.1898
 4310TIP3    H234422   3.712   6.776  14.036 -0.8767  0.0895  0.2118
 4311TIP3   OH234423   0.753   1.775   2.357  0.0944 -0.3723 -0.2288
 4311TIP3    H134424   0.683   1.716   2.329 -2.2477  0.9867  2.2241
 4311TIP3    H234425   0.722   1.810   2.441  2.7002  2.0637 -0.1412
 4312TIP3   OH234426   4.812   4.609  14.449 -0.4256  0.0182 -0.3754
 4312TIP3    H134427   4.811   4.516  14.470 -2.7843 -0.1658 -1.0061
 4312TIP3    H234428   4.844   4.613  14.359  0.2964 -0.0963 -0.1325
 4313TIP3   OH234429   4.490   0.658   2.199 -0.6119 -0.4092  0.0199
 4313TIP3    H134430   4.485   0.684   2.107  2.0018 -0.2436 -0.1651
 4313TIP3    H234431   4.513   0.738   2.246  2.2321 -1.2037  0.1657
 4314TIP3   OH234432   6.171   0.095  12.776 -1.0189 -0.3445  0.1636
 4314TIP3    H134433   6.128   0.100  12.861 -2.3216 -0.9112 -0.4226
 4314TIP3    H234434   6.264   0.084  12.796 -1.1656  0.6148  1.4832
 4315TIP3   OH234435   5.850   5.884   2.340 -0.4202  0.0246  0.4273
 4315TIP3    H134436   5.811   5.972   2.345  1.0314  0.7556 -0.5316
 4315TIP3    H234437   5.850   5.863   2.247  0.8765 -0.2283  0.4687
 4316TIP3   OH234438   2.906   5.949   1.219 -0.0070  0.4432  0.5155
 4316TIP3    H134439   2.988   5.990   1.246 -0.3582  3.2276 -2.0853
 4316TIP3    H234440   2.924   5.855   1.221  2.4006  0.8547  2.3633
 4317TIP3   OH234441   6.805   1.765  15.888 -0.3179 -0.2701 -0.5249
 4317TIP3    H134442   6.816   1.814  15.806  0.2962  1.4051  0.5214
 4317TIP3    H234443   6.712   1.773  15.908 -0.0386  1.4869  0.2157
 4318TIP3   OH234444   0.783   0.163   1.628  0.1561  0.2674  0.5843
 4318TIP3    H134445   0.833   0.213   1.692  0.3129 -0.8796  1.3934
 4318TIP3    H234446   0.836   0.164   1.549 -0.3968  2.3571  0.1935
 4319TIP3   OH234447   4.552   1.867  16.110  0.2737  0.4407 -0.1984
 4319TIP3    H134448   4.558   1.774  16.128  1.2520  0.1697 -1.7314
 4319TIP3    H234449   4.600   1.909  16.182 -1.9383 -0.0170  1.6810
 4320TIP3   OH234450   3.209   2.145  10.943  0.0816 -0.0404 -0.1833
 4320TIP3    H134451   3.165   2.096  11.011 -1.5228  0.9093 -0.4830
 4320TIP3    H234452   3.184   2.101  10.861  1.7321 -0.9819 -0.2173
 4321TIP3   OH234453   0.111   4.454  16.923  0.1098 -0.4981  0.2871
 4321TIP3    H134454   0.025   4.462  16.964 -0.6787  0.1773 -1.4013
 4321TIP3    H234455   0.091   4.432  16.832  1.7171  0.3598 -0.2919
 4322TIP3   OH234456   0.787   4.222  13.121  0.0569 -0.9569 -0.0706
 4322TIP3    H134457   0.846   4.269  13.180 -0.2531 -1.1163  0.3692
 4322TIP3    H234458   0.767   4.141  13.168 -1.2946 -0.4767  0.2212
 4323TIP3   OH234459   6.085   2.403  14.660 -0.2635  0.0737 -0.1826
 4323TIP3    H134460   6.147   2.452  14.606 -0.0857 -1.0480 -1.0137
 4323TIP3    H234461   6.079   2.317  14.619 -2.5034  0.1903 -0.2180
 4324TIP3   OH234462   4.150   4.007  13.400  0.5552 -0.2523  0.3417
 4324TIP3    H134463   4.171   4.056  13.321  3.2395  0.4057  1.3366
 4324TIP3    H234464   4.233   4.001  13.447 -0.9143 -0.6670  3.0964
 4325TIP3   OH234465   6.608   4.436   2.289 -0.3700  0.3261  0.5128
 4325TIP3    H134466   6.660   4.443   2.209 -2.0771 -0.5281 -0.7415
 4325TIP3    H234467   6.577   4.525   2.305  0.2011  0.5522  0.4057
 4326TIP3   OH234468   6.127   3.464  11.654 -0.7210 -0.5616 -0.1843
 4326TIP3    H134469   6.142   3.377  11.691 -2.6493 -0.4457  1.0334
 4326TIP3    H234470   6.045   3.455  11.605 -0.4232  0.3346 -0.8714
 4327TIP3   OH234471   6.755   1.005   3.874  0.3053 -0.4166  0.3089
 4327TIP3    H134472   6.807   0.961   3.942 -0.6135 -0.1711  1.1965
 4327TIP3    H234473   6.666   1.001   3.907 -0.1132 -0.0120 -0.7580
 4328TIP3   OH234474   6.479   0.981   2.518 -0.1593  0.0920 -0.4509
 4328TIP3    H134475   6.460   0.912   2.455  0.0536 -1.7155  1.3501
 4328TIP3    H234476   6.394   1.018   2.540 -0.4816 -0.7373 -0.2483
 4329TIP3   OH234477   2.811   0.479   0.342  0.0338  0.9793  0.2417
 4329TIP3    H134478   2.751   0.419   0.387 -3.3712  4.1465  0.3245
 4329TIP3    H234479   2.883   0.490   0.405 -0.7729 -0.5539  1.5395
 4330TIP3   OH234480   0.234   5.653   3.274 -0.1891 -0.7549 -0.7760
 4330TIP3    H134481   0.240   5.731   3.328 -0.3825 -0.8977 -0.5473
 4330TIP3    H234482   0.217   5.582   3.336  3.2264 -1.5310 -0.5548
 4331TIP3   OH234483   6.147   0.895  14.191 -0.0257 -0.5798 -0.2252
 4331TIP3    H134484   6.131   0.982  14.154 -1.0522 -0.4266  0.5342
 4331TIP3    H234485   6.215   0.857  14.135 -0.2332  0.3484 -1.1330
 4332TIP3   OH234486   2.779   4.278   2.970 -0.0890 -0.0346  0.7058
 4332TIP3    H134487   2.746   4.341   3.034  0.7895 -0.5003  1.6475
 4332TIP3    H234488   2.727   4.294   2.891  0.8611  2.6637  0.5208
 4333TIP3   OH234489   4.680   0.819  13.069  0.2782  0.7801  0.3916
 4333TIP3    H134490   4.620   0.748  13.046  0.1152  1.2797 -0.8132
 4333TIP3    H234491   4.676   0.879  12.994 -0.8726  2.9292  2.0301
 4334TIP3   OH234492   1.856   3.558   1.881 -0.4481 -0.5045 -0.6357
 4334TIP3    H134493   1.869   3.500   1.806  0.1884  1.9837 -2.5906
 4334TIP3    H234494   1.761   3.566   1.889 -0.5685 -2.4590  0.2475
 4335TIP3   OH234495   3.851   3.434   2.963  0.1981 -0.5242  0.7689
 4335TIP3    H134496   3.939   3.399   2.950 -0.9842 -3.8405  0.6916
 4335TIP3    H234497   3.824   3.464   2.875  1.3318  0.9151  0.8793
 4336TIP3   OH234498   1.631   1.787  13.143  0.1644 -0.0633 -0.1010
 4336TIP3    H134499   1.684   1.781  13.063 -0.8146 -1.1920 -0.7053
 4336TIP3    H234500   1.544   1.813  13.111  0.0859  0.8244  0.7682
 4337TIP3   OH234501   3.346   0.916   4.598  0.6596 -0.5691  0.7074
 4337TIP3    H134502   3.312   1.004   4.582 -0.8463 -1.1591  0.5227
 4337TIP3    H234503   3.362   0.914   4.693  0.9428 -0.0332  0.6800
 4338TIP3   OH234504   1.185   4.994   3.989  0.5170  0.1256 -0.4129
 4338TIP3    H134505   1.162   4.918   3.936  2.3780 -0.7808 -0.0058
 4338TIP3    H234506   1.264   5.030   3.947 -0.7883  2.4088 -1.1057
 4339TIP3   OH234507   5.937   1.420   1.785  0.1136  0.3508 -0.2511
 4339TIP3    H134508   5.910   1.330   1.766  1.9892 -0.1428 -0.7667
 4339TIP3    H234509   6.025   1.427   1.748  1.7363  1.1163  3.3971
 4340TIP3   OH234510   0.663   3.046   5.220  0.0393  0.0901 -0.1979
 4340TIP3    H134511   0.742   3.054   5.273 -0.4296 -0.6520  0.6531
 4340TIP3    H234512   0.624   3.133   5.221 -1.1688 -0.3722  2.6804
 4341TIP3   OH234513   6.049   3.642  10.166  0.0635 -0.1753 -0.3578
 4341TIP3    H134514   6.104   3.567  10.143 -0.5314 -0.2554 -1.6284
 4341TIP3    H234515   6.100   3.692  10.229  2.0093  0.2574 -2.1769
 4342TIP3   OH234516   4.180   4.912  12.650 -0.3735 -0.0528 -0.5964
 4342TIP3    H134517   4.219   4.943  12.731  0.2875  0.9979 -1.2849
 4342TIP3    H234518   4.116   4.847  12.677 -2.5282  2.5596  1.0438
 4343TIP3   OH234519   5.692   4.794   4.894  0.7532  0.1720 -0.2365
 4343TIP3    H134520   5.777   4.804   4.850  1.4207  0.1579  0.9949
 4343TIP3    H234521   5.627   4.806   4.825  1.6906  2.5449 -0.8211
 4344TIP3   OH234522   0.361   6.086  15.441  0.1367  0.3068 -0.2195
 4344TIP3    H134523   0.315   6.068  15.359 -0.8173  0.9167  0.1627
 4344TIP3    H234524   0.364   6.001  15.486 -1.2473  0.3703  0.0473
 4345TIP3   OH234525   3.438   3.739  13.768  0.3426  0.4700  0.0379
 4345TIP3    H134526   3.461   3.648  13.789 -0.3167 -0.4466 -2.7092
 4345TIP3    H234527   3.355   3.732  13.722  0.3112  2.4908 -0.2875
 4346TIP3   OH234528   2.224   1.618  10.910 -0.5602  0.0131  0.2155
 4346TIP3    H134529   2.217   1.524  10.922 -1.8642  0.1078  0.3633
 4346TIP3    H234530   2.295   1.630  10.847 -2.3881 -1.2471 -2.2222
 4347TIP3   OH234531   0.175   4.467  17.225 -0.4701 -0.0636  0.4130
 4347TIP3    H134532   0.174   4.490  17.132  2.0263  1.1408  0.6085
 4347TIP3    H234533   0.143   4.376  17.227 -1.0021  0.0328 -1.5466
 4348TIP3   OH234534   2.642   2.674  13.502 -0.0538  0.5633  0.2319
 4348TIP3    H134535   2.630   2.589  13.545  2.2912 -0.3701 -0.8142
 4348TIP3    H234536   2.565   2.725  13.529 -2.4447 -2.3876 -0.4233
 4349TIP3   OH234537   5.819   5.956   6.686  0.0006 -0.1877  0.1259
 4349TIP3    H134538   5.822   5.989   6.776  1.0666 -1.4210  0.5746
 4349TIP3    H234539   5.843   5.863   6.694  2.0657  0.1133 -1.6451
 4350TIP3   OH234540   6.270   2.527   1.757  0.1786  0.2200 -0.0608
 4350TIP3    H134541   6.245   2.582   1.683  0.1459  0.0795 -0.1530
 4350TIP3    H234542   6.199   2.464   1.765  0.3727 -0.0127 -0.1567
 4351TIP3   OH234543   1.660   6.103  14.629 -0.2171  0.0158 -0.2595
 4351TIP3    H134544   1.655   6.106  14.534 -0.2420  0.7552 -0.2386
 4351TIP3    H234545   1.573   6.130  14.659  0.1475  0.9746 -0.0232
 4352TIP3   OH234546   5.500   1.628   1.990 -0.0804  0.3130  0.1021
 4352TIP3    H134547   5.412   1.596   1.970  0.2607 -0.8808  0.4172
 4352TIP3    H234548   5.558   1.574   1.936  0.5135  0.3941  0.6389
 4353TIP3   OH234549   3.174   6.289  13.666  0.5243 -0.5640 -0.0466
 4353TIP3    H134550   3.105   6.227  13.690  0.1737  0.1283  0.8026
 4353TIP3    H234551   3.131   6.374  13.671  1.4733 -0.1131  0.5934
 4354TIP3   OH234552   3.007   2.798   3.981  0.0981 -0.4518  0.3828
 4354TIP3    H134553   2.957   2.860   3.928  0.8939 -0.6246 -0.5972
 4354TIP3    H234554   3.021   2.844   4.064  1.0829  0.9107 -0.4878
 4355TIP3   OH234555   4.806   1.507   3.741  0.1457 -0.3822 -0.2955
 4355TIP3    H134556   4.729   1.558   3.716 -0.7920  0.9356  4.3716
 4355TIP3    H234557   4.771   1.422   3.767  1.1354 -1.8725 -3.3099
 4356TIP3   OH234558   1.466   1.796  15.534 -0.6366 -0.1532  0.0796
 4356TIP3    H134559   1.446   1.712  15.493  0.0576 -0.9938  1.3788
 4356TIP3    H234560   1.427   1.790  15.621 -1.0267  1.0862  0.0106
 4357TIP3   OH234561   2.609   4.819  12.991 -0.1687 -0.0141  0.5511
 4357TIP3    H134562   2.549   4.893  12.998 -0.7091 -0.3207 -0.4977
 4357TIP3    H234563   2.587   4.763  13.065 -0.6856  0.2293  0.5856
 4358TIP3   OH234564   4.295   3.618  14.224 -0.2469 -0.8838  0.2433
 4358TIP3    H134565   4.291   3.539  14.170 -0.5429 -0.9974  0.4267
 4358TIP3    H234566   4.277   3.690  14.163  2.0340 -0.7418 -0.3453
 4359TIP3   OH234567   6.085   0.364   5.271 -0.0581  0.4009 -0.3574
 4359TIP3    H134568   6.164   0.324   5.235 -0.6267  0.0094 -1.2053
 4359TIP3    H234569   6.051   0.418   5.200 -0.8802  0.0907 -0.2101
 4360TIP3   OH234570   2.099   5.828   5.746 -0.0198 -0.2735 -0.4435
 4360TIP3    H134571   2.180   5.874   5.723 -1.4556  2.6976  0.0028
 4360TIP3    H234572   2.076   5.861   5.832 -0.9997 -2.1971  0.0837
 4361TIP3   OH234573   1.308   1.862   0.145  0.5634  0.1757  0.3680
 4361TIP3    H134574   1.347   1.928   0.088  1.6169 -0.2743  0.5464
 4361TIP3    H234575   1.374   1.793   0.151 -0.0402 -0.3577  1.1287
 4362TIP3   OH234576   2.963   5.401   0.824  0.1758 -0.0778  0.4972
 4362TIP3    H134577   2.972   5.346   0.901 -0.5362  0.7528  1.2005
 4362TIP3    H234578   2.870   5.425   0.822  0.5328  1.4348  0.4803
 4363TIP3   OH234579   5.678   0.655  14.944 -0.4238  0.0709  0.6095
 4363TIP3    H134580   5.648   0.626  15.030  1.7824 -0.2954  1.3111
 4363TIP3    H234581   5.761   0.610  14.931 -1.6594 -1.5160 -2.6694
 4364TIP3   OH234582   2.652   1.536   2.238  0.2722  0.2117 -0.1971
 4364TIP3    H134583   2.626   1.509   2.326  0.8675  1.3608  0.3589
 4364TIP3    H234584   2.706   1.464   2.205 -0.9103 -0.7366 -0.0920
 4365TIP3   OH234585   0.853   1.287   3.608 -0.1380 -0.1824 -0.8289
 4365TIP3    H134586   0.856   1.215   3.545  1.0402 -1.0919  0.2083
 4365TIP3    H234587   0.839   1.244   3.692  0.0964  0.8508 -0.2486
 4366TIP3   OH234588   5.794   0.514   2.565 -0.3595 -0.1789  0.4976
 4366TIP3    H134589   5.887   0.530   2.578 -0.0377 -2.1831  1.0332
 4366TIP3    H234590   5.751   0.557   2.639  0.1153  0.8784  0.1638
 4367TIP3   OH234591   4.387   3.314   4.569  0.1014 -0.5185 -0.2648
 4367TIP3    H134592   4.362   3.352   4.485 -0.4693 -0.1216  0.0728
 4367TIP3    H234593   4.376   3.220   4.557 -0.8331 -0.4048 -0.3734
 4368TIP3   OH234594   6.817   2.305   2.772 -0.2124 -0.0759 -0.1849
 4368TIP3    H134595   6.877   2.241   2.811 -0.8378 -0.5446  0.0243
 4368TIP3    H234596   6.816   2.377   2.836 -0.4224 -0.3805  0.1600
 4369TIP3   OH234597   3.829   1.237   2.397  0.4770 -0.3429 -0.5111
 4369TIP3    H134598   3.779   1.169   2.353 -2.1412  1.6954 -0.8982
 4369TIP3    H234599   3.852   1.199   2.482  1.0102 -2.4380 -1.5471
 4370TIP3   OH234600   4.149   4.831  16.881 -0.1226  0.1803 -0.5464
 4370TIP3    H134601   4.174   4.795  16.966 -0.8592  0.0323 -0.3865
 4370TIP3    H234602   4.229   4.826  16.829  0.1804 -0.2914 -0.0531
 4371TIP3   OH234603   5.494   5.984  16.152 -0.0101 -0.2813 -0.1172
 4371TIP3    H134604   5.439   6.016  16.081 -0.3436 -0.9761 -0.1804
 4371TIP3    H234605   5.535   6.063  16.188 -2.0134  0.4192  0.7402
 4372TIP3   OH234606   5.806   1.032  10.687  0.8059 -0.0061 -0.2200
 4372TIP3    H134607   5.898   1.011  10.674  0.7685  0.1490 -0.7928
 4372TIP3    H234608   5.775   1.058  10.600  0.3282  0.3469  0.0497
 4373TIP3   OH234609   4.928   0.534  12.019  0.2340 -0.5484  0.2975
 4373TIP3    H134610   4.941   0.612  11.966 -0.3441 -1.6305 -1.5224
 4373TIP3    H234611   4.840   0.545  12.055 -0.6240 -1.1634 -1.4845
 4374TIP3   OH234612   2.126   5.502  11.501  0.0971 -0.0786 -0.2443
 4374TIP3    H134613   2.153   5.587  11.465  0.5518  0.5870  1.5726
 4374TIP3    H234614   2.197   5.477  11.559 -1.2567 -0.3653  1.3599
 4375TIP3   OH234615   4.375   0.004   1.071 -0.1332  0.4866  0.4672
 4375TIP3    H134616   4.342  -0.063   1.131  0.7148 -0.3606  0.0109
 4375TIP3    H234617   4.306   0.071   1.069 -0.4061  0.2821  1.9647
 4376TIP3   OH234618   3.361   4.425   0.550 -0.0235 -0.7362 -0.4591
 4376TIP3    H134619   3.312   4.343   0.550 -0.9180 -0.2240  0.3991
 4376TIP3    H234620   3.452   4.399   0.562 -0.4903 -1.5417  1.9857
 4377TIP3   OH234621   2.701   5.721   2.841  0.0216 -0.5786 -0.0944
 4377TIP3    H134622   2.770   5.760   2.787  0.9509 -1.4407  0.4360
 4377TIP3    H234623   2.746   5.654   2.893 -1.4676 -2.2367 -0.8397
 4378TIP3   OH234624   5.815   0.662  17.056 -0.4806  0.0925 -0.0279
 4378TIP3    H134625   5.820   0.740  17.000  0.5307 -0.0105 -0.1013
 4378TIP3    H234626   5.776   0.595  17.000  0.9455 -0.1408 -0.7917
 4379TIP3   OH234627   3.252   3.339  13.157 -1.1448  0.1366  0.0408
 4379TIP3    H134628   3.198   3.405  13.113 -1.8633  0.3004  1.1446
 4379TIP3    H234629   3.190   3.286  13.207 -0.7987 -2.3790 -1.9406
 4380TIP3   OH234630   1.063   5.030  14.352  0.5347 -0.5349 -0.1201
 4380TIP3    H134631   1.158   5.015  14.351  0.4266 -2.1683  2.6794
 4380TIP3    H234632   1.028   4.958  14.404 -2.0921  0.8649  0.2243
 4381TIP3   OH234633   4.477   1.253  12.223  0.4588 -0.4812  0.8969
 4381TIP3    H134634   4.451   1.333  12.178  0.6129 -1.2452 -0.5959
 4381TIP3    H234635   4.394   1.215  12.252  0.1521 -1.0397 -0.6222
 4382TIP3   OH234636   4.383   2.561   1.334 -0.3600 -0.7002  0.4706
 4382TIP3    H134637   4.379   2.558   1.239  0.0199 -2.4021  0.4899
 4382TIP3    H234638   4.473   2.590   1.353 -1.0589  1.7715  0.3405
 4383TIP3   OH234639   3.247   2.934   4.369  0.5566 -0.1410 -0.2458
 4383TIP3    H134640   3.159   2.917   4.336  0.3949  0.4495 -0.1250
 4383TIP3    H234641   3.294   2.971   4.294  0.7456 -0.5689 -0.3459
 4384TIP3   OH234642   0.602   5.847   0.785 -0.3025  0.6124 -0.1782
 4384TIP3    H134643   0.583   5.904   0.859 -3.6343 -0.2893 -0.1622
 4384TIP3    H234644   0.608   5.906   0.709 -3.9932  1.1483 -0.2201
 4385TIP3   OH234645   4.566   3.020  13.292 -0.6407  0.6822 -0.2916
 4385TIP3    H134646   4.602   3.061  13.213  0.5964 -2.4049 -1.4720
 4385TIP3    H234647   4.632   3.036  13.360 -2.0958  4.0956  0.5368
 4386TIP3   OH234648   4.646   5.622   2.904  0.0856  0.3687 -0.2274
 4386TIP3    H134649   4.585   5.616   2.830 -1.4393 -0.5778  1.0548
 4386TIP3    H234650   4.719   5.566   2.878  0.3848  1.3615 -1.7054
 4387TIP3   OH234651   3.519   5.708   1.103  0.1978  1.4443 -0.6952
 4387TIP3    H134652   3.587   5.692   1.168  0.8648  0.8177 -1.5301
 4387TIP3    H234653   3.456   5.765   1.148  0.0325  0.0939  0.9031
 4388TIP3   OH234654   4.662   4.259   2.669 -0.4949 -0.0256  0.0482
 4388TIP3    H134655   4.744   4.304   2.650  1.7546 -2.8795  2.1556
 4388TIP3    H234656   4.637   4.219   2.585 -0.7825  2.2403 -1.0331
 4389TIP3   OH234657   0.540   0.663   2.289 -0.3310  0.0572  0.0053
 4389TIP3    H134658   0.541   0.571   2.318  0.2392  0.3949  1.1193
 4389TIP3    H234659   0.624   0.698   2.319 -0.3519  0.8326 -0.8053
 4390TIP3   OH234660   0.254   3.191   3.195 -0.4625 -0.1507 -0.1744
 4390TIP3    H134661   0.308   3.197   3.274 -1.7350 -1.2117  0.8132
 4390TIP3    H234662   0.171   3.231   3.219 -1.1203 -1.1564 -0.7233
 4391TIP3   OH234663   4.718   4.265  15.180 -0.2436 -0.4932  0.2941
 4391TIP3    H134664   4.627   4.285  15.155  0.2083 -0.0516 -1.1267
 4391TIP3    H234665   4.718   4.171  15.197 -0.6332 -0.8460 -1.4062
 4392TIP3   OH234666   2.373   3.822   2.771  0.2730 -0.9936  0.1466
 4392TIP3    H134667   2.308   3.793   2.708 -1.8179  0.9157  1.2642
 4392TIP3    H234668   2.415   3.741   2.802 -1.9632 -2.3830 -0.2316
 4393TIP3   OH234669   4.820   4.902   5.043 -0.5551  0.0789  0.1252
 4393TIP3    H134670   4.887   4.834   5.040  0.2074  0.7656  1.0784
 4393TIP3    H234671   4.808   4.928   4.952 -0.0850 -0.5804 -0.1371
 4394TIP3   OH234672   1.722   5.743   5.905  0.2230  0.0332 -0.2498
 4394TIP3    H134673   1.747   5.803   5.975 -1.4285 -0.8618  1.1884
 4394TIP3    H234674   1.791   5.676   5.904  0.0977 -0.1182  0.7527
 4395TIP3   OH234675   1.014   0.568   5.162  0.2365 -0.3133  0.4752
 4395TIP3    H134676   0.962   0.646   5.180  2.4895  1.4706 -0.2671
 4395TIP3    H234677   0.981   0.537   5.077 -2.4797 -1.8648  1.9711
 4396TIP3   OH234678   6.283   5.560   3.854  0.0696 -0.7300  0.4956
 4396TIP3    H134679   6.295   5.630   3.918  0.3279 -1.4313  1.2282
 4396TIP3    H234680   6.323   5.594   3.774 -2.0131  0.9895  0.0690
 4397TIP3   OH234681   4.706   2.801  10.553 -0.0315  0.2606  0.9356
 4397TIP3    H134682   4.793   2.813  10.517  0.4475 -0.4567  1.8114
 4397TIP3    H234683   4.663   2.741  10.492  0.3529  0.0104  0.9082
 4398TIP3   OH234684   5.213   6.699  14.584 -0.1027  0.1684 -0.7029
 4398TIP3    H134685   5.188   6.608  14.595  0.0440  0.1744 -0.3140
 4398TIP3    H234686   5.280   6.698  14.515 -1.3225  0.1824 -1.9202
 4399TIP3   OH234687   1.285   5.513   4.956  0.8402 -0.0309 -0.8746
 4399TIP3    H134688   1.262   5.446   4.892 -0.4364  0.1443 -0.6307
 4399TIP3    H234689   1.201   5.545   4.988  1.4055  1.7764 -1.0666
 4400TIP3   OH234690   0.270   3.926  15.300  0.4026  0.4019  0.6242
 4400TIP3    H134691   0.205   3.984  15.258  0.8519  0.4082 -0.0906
 4400TIP3    H234692   0.238   3.838  15.281  0.7839  0.3992 -0.0477
 4401TIP3   OH234693   5.510   1.155   0.705 -0.4419 -0.2784 -0.1632
 4401TIP3    H134694   5.596   1.122   0.730  0.8690  1.7582 -1.6053
 4401TIP3    H234695   5.499   1.126   0.615 -0.2351  1.2311 -0.7120
 4402TIP3   OH234696   3.343   3.997   2.389 -0.0216  0.0576 -0.1704
 4402TIP3    H134697   3.376   3.963   2.471 -0.2946  1.0919  0.3792
 4402TIP3    H234698   3.416   4.045   2.351 -0.0365 -0.0327 -0.3151
 4403TIP3   OH234699   0.906   6.624  12.719  0.6074  0.3591  0.2271
 4403TIP3    H134700   0.983   6.636  12.664  1.8247  1.2348  2.0265
 4403TIP3    H234701   0.938   6.634  12.808 -1.4856  0.0883  1.0733
 4404TIP3   OH234702   2.839   6.275  15.542  0.2107  0.5395 -0.1022
 4404TIP3    H134703   2.780   6.228  15.600 -0.6934  0.7019 -0.8611
 4404TIP3    H234704   2.782   6.316  15.477  1.0994  1.3682 -0.3941
 4405TIP3   OH234705   6.783   0.446   1.376 -0.2608 -0.0426 -0.7331
 4405TIP3    H134706   6.755   0.533   1.347  0.2312  0.3142 -0.1614
 4405TIP3    H234707   6.705   0.392   1.369 -0.6794  0.5511 -0.6952
 4406TIP3   OH234708   2.244   5.165   2.177 -0.6578 -0.2752 -0.6841
 4406TIP3    H134709   2.313   5.216   2.133 -1.3195  0.8062 -0.5221
 4406TIP3    H234710   2.285   5.136   2.259 -0.8010  1.6519  0.1413
 4407TIP3   OH234711   6.725   1.135  14.959 -0.1686 -0.3853  0.3638
 4407TIP3    H134712   6.657   1.181  15.008 -0.8458  0.7414 -1.5087
 4407TIP3    H234713   6.807   1.170  14.992 -0.5501 -0.5220  1.4861
 4408TIP3   OH234714   4.443   0.192  11.886  0.3087  0.0586 -0.1634
 4408TIP3    H134715   4.537   0.182  11.902  0.2630 -0.5316 -0.2140
 4408TIP3    H234716   4.438   0.251  11.811  0.6216  0.4238  0.0968
 4409TIP3   OH234717   3.000   6.318  13.304  0.3677  0.0057 -0.2442
 4409TIP3    H134718   3.013   6.252  13.372  0.9897  0.8547  0.4822
 4409TIP3    H234719   3.060   6.293  13.234  0.1617 -0.5340 -0.2330
 4410TIP3   OH234720   5.481   4.327  17.262  0.1016 -0.0508 -0.1864
 4410TIP3    H134721   5.503   4.343  17.353  1.7307 -0.4482 -0.4790
 4410TIP3    H234722   5.434   4.406  17.234  2.0682  1.3685  0.2435
 4411TIP3   OH234723   4.231   1.473  15.076  0.3106 -0.3997  0.8303
 4411TIP3    H134724   4.238   1.548  15.016  1.0310  0.7038  2.2235
 4411TIP3    H234725   4.310   1.422  15.060 -0.0841 -0.7766  0.0172
 4412TIP3   OH234726   5.889   4.558   5.893  0.6291  0.2734 -0.1008
 4412TIP3    H134727   5.943   4.636   5.893  0.0023  0.7189 -0.4656
 4412TIP3    H234728   5.924   4.504   5.964 -0.1701  1.7631  1.4845
 4413TIP3   OH234729   3.387   1.246  12.744  0.0918 -0.0181  0.0685
 4413TIP3    H134730   3.396   1.342  12.737 -0.4616 -0.0086 -0.7429
 4413TIP3    H234731   3.351   1.220  12.659 -0.1055 -0.9113  0.4201
 4414TIP3   OH234732   5.233   4.978   3.031 -0.4771  0.3323  0.7153
 4414TIP3    H134733   5.312   5.002   3.080 -0.5969 -0.1961  1.1756
 4414TIP3    H234734   5.196   4.905   3.080 -0.1316 -0.7914 -0.6448
 4415TIP3   OH234735   5.513   2.219   0.477  0.2689  0.3704  0.3910
 4415TIP3    H134736   5.478   2.176   0.555  2.2972  0.6549  1.5533
 4415TIP3    H234737   5.462   2.299   0.469  0.3280  0.5723  1.7470
 4416TIP3   OH234738   0.498   3.161   3.057  0.5051  0.4867 -0.5996
 4416TIP3    H134739   0.559   3.184   3.127  0.2989  0.3042 -0.3562
 4416TIP3    H234740   0.412   3.183   3.093  0.4640  1.2282 -1.1358
 4417TIP3   OH234741   2.005   1.424  14.552  0.4641 -0.5251 -0.2783
 4417TIP3    H134742   2.009   1.478  14.474 -0.5077 -0.7045 -0.4735
 4417TIP3    H234743   1.993   1.335  14.519 -1.0978 -0.4756  0.0582
 4418TIP3   OH234744   6.818   6.027   0.104  0.7431 -0.0569 -0.1746
 4418TIP3    H134745   6.736   5.999   0.065  0.7259  1.5005 -1.3335
 4418TIP3    H234746   6.813   5.996   0.195 -0.3273 -1.5182 -0.7024
 4419TIP3   OH234747   1.565   5.904   6.201 -0.0964  0.0187  0.0448
 4419TIP3    H134748   1.597   5.899   6.291  1.4432  1.2361 -0.4072
 4419TIP3    H234749   1.638   5.874   6.147 -1.3037 -1.5710 -0.7971
 4420TIP3   OH234750   0.848   1.381  15.850 -0.0461 -0.2673 -0.5489
 4420TIP3    H134751   0.757   1.382  15.822  0.0501 -0.2471 -0.8571
 4420TIP3    H234752   0.848   1.427  15.934 -0.2624  0.0473 -0.7200
 4421TIP3   OH234753   1.211   6.417   1.297 -0.4203 -0.0149  0.3795
 4421TIP3    H134754   1.253   6.501   1.312 -1.7327  0.7696 -0.2006
 4421TIP3    H234755   1.241   6.391   1.210 -1.0779  0.5184 -0.0128
 4422TIP3   OH234756   3.601   1.106  11.286  0.0303 -0.7327 -0.0338
 4422TIP3    H134757   3.567   1.097  11.197 -1.0846 -0.3520  0.3415
 4422TIP3    H234758   3.529   1.078  11.342  0.1107  0.6478  0.8009
 4423TIP3   OH234759   0.364   6.553   4.841 -0.5300  0.1417 -0.3137
 4423TIP3    H134760   0.373   6.462   4.813  2.1123  0.1742  0.2137
 4423TIP3    H234761   0.351   6.547   4.936  2.3293  0.2941  0.1702
 4424TIP3   OH234762   4.614   1.151   4.000  0.1026 -0.3735  0.7631
 4424TIP3    H134763   4.596   1.196   4.083 -0.5438  1.7680 -0.4602
 4424TIP3    H234764   4.710   1.152   3.993  0.1081  0.8992  0.7604
 4425TIP3   OH234765   6.755   2.875   4.923 -0.0012 -0.1895 -0.0687
 4425TIP3    H134766   6.754   2.947   4.861  1.7913  0.0383  0.1219
 4425TIP3    H234767   6.835   2.827   4.903 -1.0311 -2.0076 -0.0262
 4426TIP3   OH234768   2.419   3.013  16.926  0.1899  0.2066  0.1228
 4426TIP3    H134769   2.405   3.071  17.002 -0.4884  0.4471 -0.1734
 4426TIP3    H234770   2.333   3.010  16.883  0.4026 -0.4585 -0.2660
 4427TIP3   OH234771   0.154   0.288   3.564 -0.3711 -0.1675 -0.4529
 4427TIP3    H134772   0.181   0.238   3.487 -0.9573  0.2822 -0.9609
 4427TIP3    H234773   0.141   0.377   3.531  2.0292  0.6991  0.7013
 4428TIP3   OH234774   5.355   5.575  13.222 -0.0981 -0.0101 -0.4814
 4428TIP3    H134775   5.367   5.612  13.309 -0.7874  0.9867 -0.7953
 4428TIP3    H234776   5.303   5.496  13.236  0.5981 -0.3772  0.0947
 4429TIP3   OH234777   3.900   1.636  12.033  0.5870 -0.2196 -0.1048
 4429TIP3    H134778   3.989   1.602  12.026  0.4725 -0.3660 -1.1162
 4429TIP3    H234779   3.863   1.624  11.945 -0.0918  0.7758  0.0205
 4430TIP3   OH234780   3.979   5.188   3.437  0.3307  0.4531  0.1118
 4430TIP3    H134781   4.060   5.221   3.476  0.2367  0.0393  0.6713
 4430TIP3    H234782   3.932   5.148   3.510 -0.7613  1.4138 -0.0209
 4431TIP3   OH234783   0.640   1.330  13.492 -0.0924  0.1401 -0.0371
 4431TIP3    H134784   0.686   1.330  13.576 -0.7766  0.8724  0.3532
 4431TIP3    H234785   0.569   1.266  13.503 -1.4239  1.6832  0.6740
 4432TIP3   OH234786   2.375   2.886  11.417 -0.3383  0.0329 -0.3358
 4432TIP3    H134787   2.415   2.830  11.484 -0.7914  1.0835  0.8453
 4432TIP3    H234788   2.298   2.923  11.459 -2.5994 -1.8500 -2.5225
 4433TIP3   OH234789   4.060   5.848   3.506 -0.4443  0.1609  0.4898
 4433TIP3    H134790   4.087   5.819   3.419  0.4351  1.5140  0.2745
 4433TIP3    H234791   4.123   5.917   3.529 -1.1290  0.3698  1.8667
 4434TIP3   OH234792   1.343   4.917  10.560 -0.1064  0.1590 -0.0431
 4434TIP3    H134793   1.436   4.925  10.580  0.0687  2.8441 -1.4898
 4434TIP3    H234794   1.331   4.824  10.538  1.3433 -1.1279  3.7327
 4435TIP3   OH234795   3.424   1.378   3.374  0.0012 -0.4550 -0.1433
 4435TIP3    H134796   3.374   1.461   3.377 -1.1637 -1.0903 -0.9754
 4435TIP3    H234797   3.511   1.404   3.343 -0.2482  0.5035 -0.0944
 4436TIP3   OH234798   4.330   3.173  13.868  0.3329  0.1110 -0.4681
 4436TIP3    H134799   4.302   3.165  13.960  0.4363 -1.2805 -0.5432
 4436TIP3    H234800   4.300   3.260  13.842 -0.6512  0.1105  0.5685
 4437TIP3   OH234801   2.931   2.608  11.233 -0.6184  0.2975 -0.1242
 4437TIP3    H134802   2.997   2.550  11.272  0.3065  2.3861  1.6391
 4437TIP3    H234803   2.982   2.679  11.195 -1.7686  0.6927 -0.9597
 4438TIP3   OH234804   6.779   0.768  15.618 -0.2034 -0.5553 -0.3173
 4438TIP3    H134805   6.693   0.781  15.658 -0.3596 -1.6395 -0.2584
 4438TIP3    H234806   6.840   0.769  15.691 -0.1188  0.5701 -0.3970
 4439TIP3   OH234807   4.402   5.819   2.453 -0.1004 -0.0898 -0.2887
 4439TIP3    H134808   4.480   5.867   2.481  0.7169 -1.8799  0.6741
 4439TIP3    H234809   4.372   5.772   2.531 -1.0628 -0.8728 -1.0793
 4440TIP3   OH234810   6.714   0.081  11.232  0.0926 -0.0071 -0.1882
 4440TIP3    H134811   6.636   0.030  11.254 -0.2350  0.8100  0.5730
 4440TIP3    H234812   6.696   0.116  11.145 -0.7374  0.8204  0.3029
 4441TIP3   OH234813   0.076   0.560  13.053  0.0855 -0.2412  0.2395
 4441TIP3    H134814   0.127   0.574  13.132  1.4234  2.2343 -0.9357
 4441TIP3    H234815   0.133   0.589  12.982 -1.5002 -1.2361 -1.5340
 4442TIP3   OH234816   6.521   2.602   5.831  0.0628 -0.1101  0.1485
 4442TIP3    H134817   6.483   2.515   5.837 -1.4001  0.5934  2.0721
 4442TIP3    H234818   6.513   2.638   5.919 -0.3048  2.3398 -0.7937
 4443TIP3   OH234819   4.177   5.423  16.348 -0.1946  0.3682 -0.6245
 4443TIP3    H134820   4.083   5.407  16.338 -0.1402  1.3426 -3.4577
 4443TIP3    H234821   4.216   5.336  16.354 -1.2319 -0.0426  0.7914
 4444TIP3   OH234822   4.488   4.433   3.632 -0.2747  0.5346 -0.5525
 4444TIP3    H134823   4.397   4.457   3.645 -0.3449 -0.3757  0.8233
 4444TIP3    H234824   4.536   4.481   3.701 -0.2682 -2.0699  1.4214
 4445TIP3   OH234825   4.303   4.657  12.350 -0.1330 -0.1847 -0.4800
 4445TIP3    H134826   4.212   4.633  12.336  0.1742 -2.0989  0.4651
 4445TIP3    H234827   4.341   4.582  12.395  2.5985 -0.6152 -3.2006
 4446TIP3   OH234828   4.060   1.437   4.859  0.1066  0.4812  0.6854
 4446TIP3    H134829   4.131   1.376   4.841  0.2145  0.7346  0.2185
 4446TIP3    H234830   4.024   1.458   4.772 -0.9678 -0.1476  0.9633
 4447TIP3   OH234831   3.966   5.191   6.795 -0.2088  0.1754 -0.8134
 4447TIP3    H134832   3.941   5.277   6.827 -1.7282 -0.6904  0.4614
 4447TIP3    H234833   3.901   5.169   6.729 -0.8114 -0.6322  0.0170
 4448TIP3   OH234834   2.832   0.963  16.020  0.2315 -0.4020  0.5633
 4448TIP3    H134835   2.887   1.036  15.990  1.3450 -1.3737  0.1405
 4448TIP3    H234836   2.887   0.916  16.082 -0.2131 -1.2644  0.3165
 4449TIP3   OH234837   5.278   5.508  15.419  0.4060 -0.1288 -0.4083
 4449TIP3    H134838   5.336   5.558  15.476 -1.9171  3.2359 -0.6870
 4449TIP3    H234839   5.218   5.463  15.479  1.6558 -1.5527 -0.1784
 4450TIP3   OH234840   4.155   4.350   4.075  0.0813  0.5065  0.1874
 4450TIP3    H134841   4.080   4.324   4.021  1.1186 -0.4530 -0.8363
 4450TIP3    H234842   4.230   4.342   4.016  0.8514  2.7891  0.7866
 4451TIP3   OH234843   3.960   0.879   2.511  0.0769 -0.1422  0.4343
 4451TIP3    H134844   3.909   0.799   2.509 -0.7419  0.3682 -0.3038
 4451TIP3    H234845   3.917   0.934   2.577  0.3456 -0.1402  0.6060
 4452TIP3   OH234846   2.997   2.016   1.087  0.4291  0.1979 -0.4634
 4452TIP3    H134847   3.002   2.019   0.992 -2.4063 -0.6932 -0.7389
 4452TIP3    H234848   2.962   1.929   1.106  2.6796 -0.3855  1.5728
 4453TIP3   OH234849   4.006   0.473  12.775  0.1735  0.3073 -0.1301
 4453TIP3    H134850   3.937   0.511  12.830  0.8065  0.8965  0.2791
 4453TIP3    H234851   4.047   0.406  12.830  0.9946  1.0936  0.2360
 4454TIP3   OH234852   6.417   2.301  13.744  0.7097  0.8113 -0.0030
 4454TIP3    H134853   6.429   2.354  13.665  1.0189  0.5655 -0.1228
 4454TIP3    H234854   6.451   2.355  13.815  1.6506  0.5106 -0.2108
 4455TIP3   OH234855   2.162   4.738   3.399 -0.3459  0.2106  0.4424
 4455TIP3    H134856   2.101   4.676   3.359  2.1634 -2.9440  1.1190
 4455TIP3    H234857   2.216   4.770   3.326 -0.9825  0.8512  0.2404
 4456TIP3   OH234858   6.135   4.750  16.680  0.1134  0.3566  0.3350
 4456TIP3    H134859   6.152   4.826  16.736  2.6638  0.1066  0.0039
 4456TIP3    H234860   6.153   4.781  16.592  1.5377 -0.6903  0.2311
 4457TIP3   OH234861   3.691   4.460  16.259 -0.1802 -0.0711 -0.2521
 4457TIP3    H134862   3.682   4.546  16.300 -0.7066 -1.1511  2.0302
 4457TIP3    H234863   3.709   4.400  16.331  2.7993 -1.5793 -2.0338
 4458TIP3   OH234864   4.287   2.229   2.009 -0.0671  0.1903  0.2173
 4458TIP3    H134865   4.240   2.256   1.930 -1.0047  0.7635  0.9506
 4458TIP3    H234866   4.265   2.296   2.074 -1.2170 -1.4881  1.6365
 4459TIP3   OH234867   0.071   1.902  15.664 -0.4916 -0.5645 -0.1704
 4459TIP3    H134868   0.047   1.994  15.648 -0.8799 -0.6507 -0.1060
 4459TIP3    H234869   0.163   1.897  15.640 -0.5962 -0.2749 -0.6663
 4460TIP3   OH234870   1.533   0.245  13.451 -0.2103  0.3841  0.0456
 4460TIP3    H134871   1.481   0.324  13.468 -0.0569  0.1520  1.7932
 4460TIP3    H234872   1.516   0.188  13.526  0.0370 -1.0787 -0.9652
 4461TIP3   OH234873   2.763   1.111   1.832 -0.1851 -0.1394 -0.0240
 4461TIP3    H134874   2.814   1.041   1.873 -2.0713 -2.2362 -0.9812
 4461TIP3    H234875   2.825   1.158   1.777  1.4206 -0.1684  1.6663
 4462TIP3   OH234876   3.054   2.332   2.814 -0.1903  0.4704  0.5673
 4462TIP3    H134877   3.107   2.270   2.765 -1.1537  0.5761 -0.6366
 4462TIP3    H234878   2.994   2.370   2.750 -0.4660  1.7321  1.5232
 4463TIP3   OH234879   0.426   5.540  15.446 -0.0673  0.5128 -0.0923
 4463TIP3    H134880   0.442   5.548  15.352 -0.4994  1.8642 -0.0716
 4463TIP3    H234881   0.491   5.477  15.476  0.3259  0.3501 -1.2316
 4464TIP3   OH234882   1.141   6.458   0.058 -0.4988  0.1210 -0.2965
 4464TIP3    H134883   1.155   6.385   0.118  0.6782 -2.0617 -3.0226
 4464TIP3    H234884   1.046   6.462   0.046 -0.5293 -1.8970 -1.0831
 4465TIP3   OH234885   1.740   0.746  11.118  0.1774 -0.2474 -0.2131
 4465TIP3    H134886   1.784   0.667  11.150  0.8695  0.4433  0.5700
 4465TIP3    H234887   1.752   0.742  11.023 -1.3199 -1.9631 -0.3886
 4466TIP3   OH234888   0.590   4.769   0.213 -0.2670 -0.2388  0.0965
 4466TIP3    H134889   0.574   4.780   0.119  1.8135  0.1164 -0.2798
 4466TIP3    H234890   0.504   4.754   0.251 -1.2553  0.4647 -1.7492
 4467TIP3   OH234891   4.392   4.860  16.448 -0.8440  0.6171 -0.0652
 4467TIP3    H134892   4.340   4.809  16.386 -1.3245  1.0099  0.0136
 4467TIP3    H234893   4.475   4.813  16.453 -0.8252  0.5373 -0.9464
 4468TIP3   OH234894   3.815   3.885   2.920  0.4013 -0.1401 -0.0576
 4468TIP3    H134895   3.828   3.818   2.986  0.7498 -1.0114 -0.9749
 4468TIP3    H234896   3.895   3.937   2.921  0.2165  0.1325  0.5143
 4469TIP3   OH234897   3.528   2.236   2.943 -0.1157 -0.3263 -0.9499
 4469TIP3    H134898   3.559   2.152   2.911  1.6183 -0.0820 -0.0322
 4469TIP3    H234899   3.595   2.298   2.914  0.1124  0.2906  0.8335
 4470TIP3   OH234900   1.287   1.303  17.097 -0.8117  0.0534 -0.3743
 4470TIP3    H134901   1.236   1.226  17.121 -1.4943  1.0275  1.5011
 4470TIP3    H234902   1.378   1.273  17.098 -1.1859 -1.3388 -2.2833
 4471TIP3   OH234903   5.248   1.489  14.463 -0.2658 -0.0120  0.1377
 4471TIP3    H134904   5.302   1.482  14.384  0.6480 -0.4790  0.7887
 4471TIP3    H234905   5.306   1.464  14.534 -0.7987  1.3409  1.0798
 4472TIP3   OH234906   4.265   1.449   5.061 -0.1542  0.2419  0.6159
 4472TIP3    H134907   4.190   1.509   5.060 -0.9025 -0.6384 -1.3396
 4472TIP3    H234908   4.229   1.365   5.032  1.3634 -0.5038  0.7953
 4473TIP3   OH234909   1.012   0.766  11.276 -0.2609  0.0070 -0.2025
 4473TIP3    H134910   0.977   0.847  11.239 -1.0190 -0.2614 -0.0973
 4473TIP3    H234911   1.008   0.703  11.204  0.2145  0.0243 -0.2486
 4474TIP3   OH234912   2.908   3.768   4.192  0.6691  0.1132 -0.1544
 4474TIP3    H134913   2.922   3.832   4.263 -0.2211 -0.0427  0.1742
 4474TIP3    H234914   2.819   3.786   4.160  1.3259  0.6866 -1.7636
 4475TIP3   OH234915   6.108   2.167   6.214  0.0934 -0.2761 -0.2380
 4475TIP3    H134916   6.138   2.115   6.140 -1.8282  0.7298 -1.8057
 4475TIP3    H234917   6.015   2.150   6.220 -0.1027  0.9799  0.8764
 4476TIP3   OH234918   4.530   3.951  14.109 -0.1000  0.4548 -0.1413
 4476TIP3    H134919   4.578   3.914  14.035 -0.1270  1.1969 -0.5376
 4476TIP3    H234920   4.438   3.934  14.089 -0.0716 -0.0384  0.1128
 4477TIP3   OH234921   5.767   6.407  11.561  0.6250 -0.0950  0.9741
 4477TIP3    H134922   5.807   6.415  11.648  1.4068 -1.0443  0.7174
 4477TIP3    H234923   5.688   6.355  11.577  0.9389 -0.5484  1.0779
 4478TIP3   OH234924   3.162   3.338   4.024  0.0006 -0.1007  0.4145
 4478TIP3    H134925   3.112   3.411   4.060 -2.9051 -1.1766 -1.1374
 4478TIP3    H234926   3.243   3.378   3.991 -0.2737  1.9220  1.9865
 4479TIP3   OH234927   6.140   0.368   2.850  0.1664 -0.2706 -0.1290
 4479TIP3    H134928   6.096   0.293   2.891 -1.1217  0.4245 -0.1663
 4479TIP3    H234929   6.098   0.444   2.890  0.7766  0.4237 -0.7884
 4480TIP3   OH234930   4.553   6.411   1.105 -0.2557 -0.2144  0.0659
 4480TIP3    H134931   4.526   6.469   1.034  1.0120  0.3014 -0.0130
 4480TIP3    H234932   4.607   6.345   1.062  3.2245  1.8735  0.8665
 4481TIP3   OH234933   6.353   0.785  11.500 -0.6053 -0.6655  0.0243
 4481TIP3    H134934   6.273   0.749  11.461  0.6655 -2.7956 -0.7884
 4481TIP3    H234935   6.338   0.781  11.594 -1.0325 -2.1742 -0.0823
 4482TIP3   OH234936   4.410   1.829   4.659  0.1565  0.1532  0.1940
 4482TIP3    H134937   4.491   1.783   4.680  0.2702  0.3391  0.1706
 4482TIP3    H234938   4.380   1.866   4.742  1.9144  2.9845 -0.3175
 4483TIP3   OH234939   5.228   3.371  14.399  0.2683  0.1715 -0.3848
 4483TIP3    H134940   5.300   3.434  14.397  0.8473 -0.4580  0.1079
 4483TIP3    H234941   5.268   3.290  14.431 -0.5457 -0.3417 -0.6358
 4484TIP3   OH234942   2.073   3.615   5.003  0.3503  0.1641 -0.4355
 4484TIP3    H134943   2.005   3.626   4.937  0.7923  2.0351 -0.6161
 4484TIP3    H234944   2.135   3.685   4.986  0.6492  0.5130  1.7587
 4485TIP3   OH234945   3.164   3.332  11.402 -0.0553  0.0398 -0.4490
 4485TIP3    H134946   3.120   3.414  11.381  0.1765  0.2100 -0.2813
 4485TIP3    H234947   3.094   3.275  11.435 -0.1126  0.3847  0.0337
 4486TIP3   OH234948   2.656   2.067   0.165  0.2446 -0.0210  0.0968
 4486TIP3    H134949   2.634   2.084   0.256 -0.7373 -0.7192  0.0083
 4486TIP3    H234950   2.577   2.089   0.116  1.1925  1.6769 -0.7689
 4487TIP3   OH234951   3.140   5.338  10.783 -0.2573  0.1375 -0.3323
 4487TIP3    H134952   3.233   5.318  10.771  0.4050  0.7596  2.8695
 4487TIP3    H234953   3.094   5.273  10.729  1.9997 -1.2195 -0.7412
 4488TIP3   OH234954   6.000   0.029  15.128 -0.3810 -0.0404  0.3138
 4488TIP3    H134955   5.906   0.011  15.132 -0.9086  2.5203  0.6670
 4488TIP3    H234956   6.010   0.098  15.064  1.5433 -1.4671 -1.0725
 4489TIP3   OH234957   3.483   5.912   5.271  0.1404 -0.4745 -0.0899
 4489TIP3    H134958   3.559   5.925   5.328 -0.1169  0.2937  0.0848
 4489TIP3    H234959   3.513   5.849   5.206  0.7286 -0.6630  0.3558
 4490TIP3   OH234960   6.080   0.276  16.377 -0.1892  0.4042  0.1567
 4490TIP3    H134961   6.025   0.254  16.453  0.3483 -0.7479  0.2396
 4490TIP3    H234962   6.161   0.309  16.415  0.6675 -1.5597  0.1838
 4491TIP3   OH234963   4.478   6.517   5.543  0.2907 -0.0669 -0.1529
 4491TIP3    H134964   4.402   6.573   5.531  0.9075  0.6963 -0.5909
 4491TIP3    H234965   4.540   6.545   5.475  2.0705  1.2284  1.8783
 4492TIP3   OH234966   4.787   6.509  13.487  0.0486 -0.0117 -0.6747
 4492TIP3    H134967   4.842   6.550  13.420 -1.9363  0.6171 -2.0442
 4492TIP3    H234968   4.781   6.417  13.460 -1.3124  0.3767 -1.8755
 4493TIP3   OH234969   1.151   4.432   2.608 -0.4159 -0.3335  0.0163
 4493TIP3    H134970   1.241   4.422   2.640 -0.2709  1.6919  0.4224
 4493TIP3    H234971   1.113   4.345   2.613  0.4792 -0.6582  3.0973
 4494TIP3   OH234972   4.311   4.919  14.620 -0.0586  0.7195 -0.5332
 4494TIP3    H134973   4.318   4.850  14.554  1.5811 -0.3883  0.7240
 4494TIP3    H234974   4.364   4.991  14.586 -1.3369  1.1868 -1.5988
 4495TIP3   OH234975   3.583   0.230   0.673 -0.0769  0.3967  0.0795
 4495TIP3    H134976   3.658   0.289   0.679  1.2926 -1.3801  1.5105
 4495TIP3    H234977   3.606   0.169   0.602 -0.6087  0.3950 -0.1016
 4496TIP3   OH234978   1.249   4.323  13.430  0.7114 -0.1382  0.1866
 4496TIP3    H134979   1.199   4.404  13.420  1.2535  0.5034  2.1860
 4496TIP3    H234980   1.329   4.337  13.380  0.7522  0.5177  0.4340
 4497TIP3   OH234981   5.844   6.395   6.347  0.0680  0.1276 -0.1974
 4497TIP3    H134982   5.748   6.399   6.348  0.0556  0.1155 -0.9020
 4497TIP3    H234983   5.865   6.313   6.393 -0.2830 -0.1967 -0.6088
 4498TIP3   OH234984   2.495   4.128  14.675  0.5241 -0.3937  0.0447
 4498TIP3    H134985   2.431   4.140  14.605  0.1019 -2.1045  0.0952
 4498TIP3    H234986   2.475   4.198  14.737 -0.7624 -0.3966 -0.3381
 4499TIP3   OH234987   2.245   4.721  16.533 -0.3827 -0.2851 -0.3112
 4499TIP3    H134988   2.169   4.723  16.475  0.0523 -1.8022 -1.0114
 4499TIP3    H234989   2.320   4.727  16.474  0.0572 -1.3105  0.1086
 4500TIP3   OH234990   5.613   1.424  13.620 -0.3056 -0.1798 -0.0881
 4500TIP3    H134991   5.706   1.449  13.622 -0.9985  2.6540  0.0995
 4500TIP3    H234992   5.566   1.504  13.641 -2.8621 -1.3673 -0.9139
 4501TIP3   OH234993   4.677   2.024  16.304  0.3646  0.6230 -0.4052
 4501TIP3    H134994   4.630   2.064  16.377  0.7638 -0.4161  0.4383
 4501TIP3    H234995   4.736   1.961  16.345  0.5654 -0.0128 -1.6306
 4502TIP3   OH234996   2.566   4.583   4.820  0.1771 -0.1025  0.5423
 4502TIP3    H134997   2.568   4.496   4.781 -0.1745  0.2135 -0.2081
 4502TIP3    H234998   2.622   4.636   4.763 -1.0706  0.5764 -0.1010
 4503TIP3   OH234999   5.236   0.005   5.255  0.0889 -0.1823  0.1239
 4503TIP3    H135000   5.179  -0.039   5.318  1.1168 -1.3726  0.2683
 4503TIP3    H235001   5.324  -0.025   5.278  0.6045  0.3304 -1.1134
 4504TIP3   OH235002   6.778   4.407   5.169 -0.6621 -0.6638  0.2412
 4504TIP3    H135003   6.784   4.391   5.263 -0.9666  1.9136  0.7761
 4504TIP3    H235004   6.868   4.428   5.142 -0.0160 -4.0024 -0.7079
 4505TIP3   OH235005   2.693   3.411  14.399 -0.0744 -0.3921 -0.1096
 4505TIP3    H135006   2.687   3.499  14.436  0.7618 -0.0420 -0.7744
 4505TIP3    H235007   2.769   3.415  14.340 -1.0953 -1.0627 -1.5112
 4506TIP3   OH235008   0.491   3.373   4.565 -0.4363  0.5598 -0.8521
 4506TIP3    H135009   0.497   3.444   4.501  0.1984 -2.2358 -4.2141
 4506TIP3    H235010   0.582   3.350   4.584 -0.6269  0.8826  0.5712
 4507TIP3   OH235011   0.400   6.470  11.043 -0.4175  0.3553 -0.1273
 4507TIP3    H135012   0.325   6.422  11.077 -0.1045  0.9894  1.5513
 4507TIP3    H235013   0.374   6.562  11.047  0.5109  0.6038  0.7182
 4508TIP3   OH235014   4.433   3.495  13.764  0.2950 -0.5053  0.1354
 4508TIP3    H135015   4.337   3.492  13.761  0.2963 -0.3019 -0.1262
 4508TIP3    H235016   4.460   3.505  13.673  0.5336  0.3795  0.2947
 4509TIP3   OH235017   2.295   1.562  16.883  0.3830 -0.2163  0.1293
 4509TIP3    H135018   2.337   1.481  16.910  1.7856 -0.0087 -1.2891
 4509TIP3    H235019   2.365   1.626  16.878  0.3345 -0.1823 -3.6172
 4510TIP3   OH235020   4.141   3.275  16.573 -0.4230  0.7901 -0.1453
 4510TIP3    H135021   4.200   3.202  16.555 -0.9572  0.3191 -0.0065
 4510TIP3    H235022   4.054   3.242  16.552 -0.9660  0.5378  2.2286
 4511TIP3   OH235023   4.174   0.555   2.106  0.3692 -0.1707 -0.2387
 4511TIP3    H135024   4.136   0.544   2.018 -0.0732 -0.6128  0.0008
 4511TIP3    H235025   4.268   0.557   2.092  0.2661  1.0439 -0.8646
 4512TIP3   OH235026   5.703   2.041  16.390 -0.1180 -0.6063  0.0976
 4512TIP3    H135027   5.706   2.092  16.309 -0.2497 -0.2806  0.2947
 4512TIP3    H235028   5.763   2.087  16.449  1.4258 -1.8710 -0.3884
 4513TIP3   OH235029   0.672   3.267   4.279  0.1593 -0.8533 -0.3002
 4513TIP3    H135030   0.676   3.182   4.324  1.2308 -1.5718 -1.6872
 4513TIP3    H235031   0.686   3.246   4.187 -1.1627  0.6820 -0.8926
 4514TIP3   OH235032   2.574   1.729   4.284  0.0137 -0.3268  0.1176
 4514TIP3    H135033   2.577   1.808   4.231  1.3484  0.6022  1.5028
 4514TIP3    H235034   2.481   1.717   4.304 -0.3068  0.3238 -0.9076
 4515TIP3   OH235035   2.428   5.825   1.985  0.2481  0.5037 -0.3996
 4515TIP3    H135036   2.507   5.847   2.033 -0.7544  0.5736  1.3133
 4515TIP3    H235037   2.362   5.885   2.019 -1.3434 -1.7412  0.7397
 4516TIP3   OH235038   4.797   3.192   3.636 -0.6092  0.1997  0.4180
 4516TIP3    H135039   4.707   3.216   3.657 -1.5165 -0.4511 -2.4170
 4516TIP3    H235040   4.797   3.096   3.635  0.0998  0.1954  0.3221
 4517TIP3   OH235041   6.602   6.471   4.244  0.0010  0.7808 -0.4717
 4517TIP3    H135042   6.660   6.431   4.309 -1.2805  2.5732  1.9391
 4517TIP3    H235043   6.630   6.435   4.161  2.9808 -0.2299  0.8557
 4518TIP3   OH235044   0.824   5.705   4.227 -0.0964 -0.0002  0.4265
 4518TIP3    H135045   0.860   5.791   4.208 -2.3505  1.0542  0.6151
 4518TIP3    H235046   0.804   5.707   4.321  0.1342 -0.8513  0.5047
 4519TIP3   OH235047   5.533   3.971  10.467  0.2071 -0.3261 -0.0371
 4519TIP3    H135048   5.575   3.888  10.447 -0.6747 -0.5911 -0.9136
 4519TIP3    H235049   5.577   4.035  10.411  2.8753  0.4188  2.7068
 4520TIP3   OH235050   1.703   3.526  15.550 -0.5961  0.3633 -0.0011
 4520TIP3    H135051   1.677   3.476  15.473 -0.3463 -1.5113  1.0700
 4520TIP3    H235052   1.772   3.584  15.519 -0.8549  0.0128 -1.2882
 4521TIP3   OH235053   0.235   2.894  16.961  0.4630  0.0230 -0.7347
 4521TIP3    H135054   0.218   2.925  17.049  0.8348 -1.3789 -0.1334
 4521TIP3    H235055   0.156   2.845  16.937  0.3901  0.3414 -1.1575
 4522TIP3   OH235056   2.452   5.876   1.509  0.1959  0.0126  0.1870
 4522TIP3    H135057   2.521   5.925   1.463  0.0766 -2.3192 -2.7872
 4522TIP3    H235058   2.463   5.900   1.601  2.3049  2.8624 -0.6594
 4523TIP3   OH235059   2.564   5.481  10.888  0.2233  0.4786 -0.1307
 4523TIP3    H135060   2.471   5.463  10.874  0.8481 -3.0920 -0.8911
 4523TIP3    H235061   2.607   5.442  10.812  2.5017 -1.2686  1.8856
 4524TIP3   OH235062   0.654   2.262   1.856 -0.5850 -0.0765 -0.3511
 4524TIP3    H135063   0.690   2.347   1.881  0.2964 -0.6440  0.3752
 4524TIP3    H235064   0.559   2.275   1.854 -0.4835  0.7941  0.2373
 4525TIP3   OH235065   1.564   0.750   2.332 -0.2250 -0.3827  0.0629
 4525TIP3    H135066   1.475   0.778   2.312  0.7460  1.1270 -2.7064
 4525TIP3    H235067   1.569   0.660   2.301  0.0489  0.6113 -3.1991
 4526TIP3   OH235068   6.150   0.138  12.099 -0.0729  0.2640 -0.0129
 4526TIP3    H135069   6.140   0.104  12.011 -1.4223  0.5104  0.0294
 4526TIP3    H235070   6.203   0.218  12.088  1.9184 -1.0125 -0.2604
 4527TIP3   OH235071   2.184   3.170   1.730  0.2213 -0.3981  0.4179
 4527TIP3    H135072   2.213   3.261   1.736 -0.3214 -0.0960 -0.9818
 4527TIP3    H235073   2.207   3.144   1.641 -2.7598 -0.4550 -0.4623
 4528TIP3   OH235074   1.237   3.650   2.816 -0.1743 -0.6594 -0.1926
 4528TIP3    H135075   1.263   3.682   2.902 -0.7921 -1.4465  0.3027
 4528TIP3    H235076   1.224   3.729   2.764 -0.4229 -0.1462  0.6298
 4529TIP3   OH235077   1.369   5.798  11.068 -0.8411 -0.0174 -0.4956
 4529TIP3    H135078   1.326   5.735  11.010 -2.6622 -0.3891  1.1324
 4529TIP3    H235079   1.371   5.754  11.153  0.0302  1.2246  0.1626
 4530TIP3   OH235080   3.341   4.795   4.666  0.0634  0.3738 -0.9446
 4530TIP3    H135081   3.284   4.870   4.687  0.5129  0.8397 -1.3528
 4530TIP3    H235082   3.419   4.835   4.629  0.3422 -0.3054 -1.0948
 4531TIP3   OH235083   5.690   2.887  11.778  0.4305  0.2043 -0.7203
 4531TIP3    H135084   5.718   2.958  11.834  2.0659  1.5560 -3.0769
 4531TIP3    H235085   5.747   2.814  11.801 -0.4161 -0.0051  0.8421
 4532TIP3   OH235086   5.456   6.584  15.282 -0.1331  0.1059 -0.2918
 4532TIP3    H135087   5.420   6.657  15.331 -5.3937 -1.2189 -1.5966
 4532TIP3    H235088   5.486   6.622  15.199 -1.5425  1.0371 -0.4052
 4533TIP3   OH235089   3.371   6.725  15.910  0.1158  0.5073  0.7850
 4533TIP3    H135090   3.338   6.788  15.974 -0.7295  2.5598 -1.5450
 4533TIP3    H235091   3.457   6.758  15.885  0.6294 -0.5220  1.1188
 4534TIP3   OH235092   2.438   5.486   1.401  0.0265  0.0435  0.1897
 4534TIP3    H135093   2.360   5.510   1.450  0.6679 -0.4561  1.4987
 4534TIP3    H235094   2.411   5.412   1.347 -1.0422  1.4302 -1.2869
 4535TIP3   OH235095   5.870   5.735   6.866  0.3759  0.0201 -0.0515
 4535TIP3    H135096   5.949   5.709   6.818 -0.5294  0.7274 -2.0249
 4535TIP3    H235097   5.798   5.694   6.819 -0.5191 -0.0454  1.3014
 4536TIP3   OH235098   1.954   1.352  13.474  0.1207 -0.1235 -0.4317
 4536TIP3    H135099   1.901   1.323  13.548  1.1547 -0.5641  0.1480
 4536TIP3    H235100   1.894   1.406  13.422 -0.5517  0.4119  0.8514
 4537TIP3   OH235101   4.628   6.261  13.947 -0.2606 -0.1350 -0.2513
 4537TIP3    H135102   4.668   6.348  13.954  0.8114 -0.6956  0.9706
 4537TIP3    H235103   4.541   6.278  13.912  0.0405  1.4009 -0.3356
 4538TIP3   OH235104   5.947   2.191  15.059 -0.6323  0.5493 -0.2155
 4538TIP3    H135105   5.883   2.251  15.096 -0.2287  0.8391  0.0221
 4538TIP3    H235106   5.945   2.115  15.118 -0.8360  0.5074 -0.2750
 4539TIP3   OH235107   2.956   6.297   2.020  0.6590  0.0214 -0.2165
 4539TIP3    H135108   2.898   6.342   1.958  1.4687  0.6816 -0.5062
 4539TIP3    H235109   2.902   6.227   2.057  0.2591 -0.5723 -1.8796
 4540TIP3   OH235110   4.335   0.992  14.557 -0.5929  1.2019  0.2563
 4540TIP3    H135111   4.243   0.979  14.580 -0.6419 -0.0247 -0.5046
 4540TIP3    H235112   4.377   0.909  14.579  0.1488  1.4360 -0.2278
 4541TIP3   OH235113   1.146   0.087   6.219  0.8692  0.3177 -0.2078
 4541TIP3    H135114   1.066   0.121   6.179  0.1902 -0.2662  0.6068
 4541TIP3    H235115   1.217   0.127   6.170  0.0709  0.1428 -1.5433
 4542TIP3   OH235116   1.510   1.393   3.089 -0.5707  0.2963 -0.3891
 4542TIP3    H135117   1.470   1.331   3.150 -0.1856  0.2034 -0.2302
 4542TIP3    H235118   1.548   1.460   3.144 -0.6892  0.4958 -0.5501
 4543TIP3   OH235119   0.959   6.445   2.691 -0.1753 -0.0139 -0.0003
 4543TIP3    H135120   1.003   6.417   2.772 -1.1737 -0.4976  0.3901
 4543TIP3    H235121   0.883   6.387   2.684 -0.6308  0.6645 -0.7745
 4544TIP3   OH235122   0.608   1.962  15.824 -0.6550 -0.0983  0.0846
 4544TIP3    H135123   0.582   1.923  15.908  0.2226 -2.2779 -0.5731
 4544TIP3    H235124   0.577   1.899  15.759 -0.2971  0.9748 -1.1609
 4545TIP3   OH235125   2.265   2.123  13.061 -0.2408 -0.3104 -0.1404
 4545TIP3    H135126   2.352   2.163  13.060 -0.0138 -0.6776  1.4786
 4545TIP3    H235127   2.209   2.185  13.014  0.4519  1.0133  0.7214
 4546TIP3   OH235128   5.096   3.459  13.041  0.1372 -0.0476  0.2933
 4546TIP3    H135129   5.103   3.403  13.118 -2.0832 -2.0823 -0.8659
 4546TIP3    H235130   5.179   3.449  12.996 -0.8886 -4.4170 -1.0555
 4547TIP3   OH235131   0.135   3.991  14.425  0.0571  0.3332  0.4078
 4547TIP3    H135132   0.210   3.991  14.364  0.4276 -0.1921  0.8539
 4547TIP3    H235133   0.113   4.083  14.435  0.3370  0.4638 -0.1057
 4548TIP3   OH235134   2.498   4.746   3.918 -0.0923 -0.1007  0.0832
 4548TIP3    H135135   2.477   4.678   3.982 -1.7844  1.0825  0.8649
 4548TIP3    H235136   2.475   4.828   3.962  0.1643  0.8563 -1.4866
 4549TIP3   OH235137   0.068   2.399   0.079 -0.0849  0.2058  0.0367
 4549TIP3    H135138   0.160   2.422   0.067 -0.0965 -0.1118 -0.6559
 4549TIP3    H235139   0.067   2.304   0.085 -0.3112  0.2347  0.6213
 4550TIP3   OH235140   0.246   1.788   1.204  0.1649  0.6602 -0.0756
 4550TIP3    H135141   0.240   1.866   1.258  0.9367  0.0483  0.9079
 4550TIP3    H235142   0.193   1.723   1.250 -0.3496  0.5403 -0.8105
 4551TIP3   OH235143   2.217   3.361  16.527 -0.1049  0.3181 -0.4950
 4551TIP3    H135144   2.256   3.440  16.489 -1.0968  1.3530  0.5298
 4551TIP3    H235145   2.123   3.370  16.508 -0.2572 -0.4900 -0.1426
 4552TIP3   OH235146   4.132   5.127  11.285  0.4023 -0.5358  0.0980
 4552TIP3    H135147   4.167   5.176  11.210  2.1936 -1.5308  0.2212
 4552TIP3    H235148   4.145   5.035  11.262 -0.8983 -0.9188  0.7975
 4553TIP3   OH235149   2.001   1.771  11.451 -0.0049 -0.2938  0.0353
 4553TIP3    H135150   1.920   1.720  11.441 -0.7081  0.2338  2.4127
 4553TIP3    H235151   2.069   1.717  11.410 -1.2726 -1.5629 -0.4699
 4554TIP3   OH235152   6.214   0.470  16.541 -0.4176  0.8141 -0.4602
 4554TIP3    H135153   6.247   0.529  16.609 -0.6522  3.0019 -2.1407
 4554TIP3    H235154   6.119   0.478  16.547 -0.4288  1.4372 -1.3679
 4555TIP3   OH235155   5.818   3.688   3.702 -0.4545  0.3801  0.5820
 4555TIP3    H135156   5.882   3.621   3.725 -1.3352 -0.8711 -0.4849
 4555TIP3    H235157   5.733   3.650   3.727 -0.8507  1.8435  1.6057
 4556TIP3   OH235158   0.159   5.713   5.736  0.2764 -0.1407 -0.2883
 4556TIP3    H135159   0.236   5.691   5.790 -0.0933  0.9756  0.7439
 4556TIP3    H235160   0.184   5.793   5.691 -0.6594  0.8605  0.9202
 4557TIP3   OH235161   2.471   4.137  15.546  0.2941 -0.6506  0.1736
 4557TIP3    H135162   2.516   4.075  15.603  1.0449 -0.1416  0.1541
 4557TIP3    H235163   2.383   4.101  15.536  0.7663 -1.8230 -0.0011
 4558TIP3   OH235164   3.335   6.134  16.396  0.0852  0.4202  0.3191
 4558TIP3    H135165   3.270   6.188  16.441 -0.4832  1.7947 -1.9932
 4558TIP3    H235166   3.373   6.192  16.330  0.4827 -1.6045 -1.3457
 4559TIP3   OH235167   0.832   5.867   5.681  0.2266 -0.7371  0.0399
 4559TIP3    H135168   0.875   5.952   5.668 -0.0278 -0.6648 -0.3422
 4559TIP3    H235169   0.869   5.834   5.763  1.5552 -0.9932 -0.6333
 4560TIP3   OH235170   2.118   0.719   3.623  0.0674 -0.1105 -0.0777
 4560TIP3    H135171   2.057   0.692   3.553  0.7467  1.8195 -1.5141
 4560TIP3    H235172   2.095   0.810   3.641  2.0319  0.4449 -0.1461
 4561TIP3   OH235173   0.629   1.244   2.955 -0.2675  0.3383  0.0511
 4561TIP3    H135174   0.587   1.159   2.973 -1.5303  0.8570 -0.3621
 4561TIP3    H235175   0.620   1.293   3.036 -0.3696  0.4133 -0.0055
 4562TIP3   OH235176   2.309   5.712  14.911 -0.0193  0.2610  0.5098
 4562TIP3    H135177   2.276   5.748  14.993  2.2940 -1.7040  2.4742
 4562TIP3    H235178   2.384   5.768  14.889 -0.7892  0.9423 -0.4590
 4563TIP3   OH235179   1.432   4.735  16.983 -0.1813  0.4380 -0.1173
 4563TIP3    H135180   1.404   4.820  16.948  0.7056  1.0725  0.6322
 4563TIP3    H235181   1.387   4.728  17.067  1.1310  1.0563  0.6837
 4564TIP3   OH235182   0.104   5.095  14.550 -0.2995 -0.3559 -0.0752
 4564TIP3    H135183   0.151   5.027  14.599  1.2317  0.5475 -0.2232
 4564TIP3    H235184   0.095   5.059  14.461  1.2032 -0.0694 -0.3605
 4565TIP3   OH235185   5.662   0.329  14.419  0.1383  1.0755  0.4299
 4565TIP3    H135186   5.653   0.419  14.386 -0.5133  0.5155 -1.0090
 4565TIP3    H235187   5.578   0.288  14.398  0.2671  0.2564  1.4923
 4566TIP3   OH235188   6.580   5.614   2.878  0.1509 -0.6246  0.3052
 4566TIP3    H135189   6.583   5.662   2.795 -1.8706 -0.7878  0.0694
 4566TIP3    H235190   6.572   5.522   2.852 -0.6448 -0.6639  0.6619
 4567TIP3   OH235191   4.049   4.029   6.182 -0.0966  0.2796  0.2192
 4567TIP3    H135192   4.128   4.077   6.160 -0.3562  1.4455  1.6324
 4567TIP3    H235193   4.030   4.055   6.273 -1.7581 -0.4228  0.1113
 4568TIP3   OH235194   2.469   3.971   5.435 -0.4326 -0.0581  0.4232
 4568TIP3    H135195   2.527   3.901   5.464 -1.5246 -0.6342  1.2834
 4568TIP3    H235196   2.381   3.940   5.455 -1.0733  0.7612 -0.9180
 4569TIP3   OH235197   2.051   6.512   2.757 -0.1615 -0.0001  0.0180
 4569TIP3    H135198   2.110   6.490   2.829 -0.5299 -1.8343 -0.2071
 4569TIP3    H235199   1.974   6.456   2.771  0.7809 -2.3346 -3.1397
 4570TIP3   OH235200   2.457   4.433   1.603  0.2513 -0.1286 -0.5971
 4570TIP3    H135201   2.513   4.508   1.622 -0.5264  0.3257 -0.0269
 4570TIP3    H235202   2.493   4.395   1.523  0.6845  0.8191 -0.8597
 4571TIP3   OH235203   4.813   6.726   3.500 -0.0649 -0.2746  0.2910
 4571TIP3    H135204   4.804   6.790   3.429  1.8755 -0.7549 -0.4486
 4571TIP3    H235205   4.821   6.779   3.579  0.5064  0.3736 -0.1895
 4572TIP3   OH235206   1.016   5.269  10.388 -0.3055  0.3135 -0.1457
 4572TIP3    H135207   1.038   5.184  10.425 -1.0836 -0.4459 -1.3450
 4572TIP3    H235208   1.048   5.265  10.298  3.6161  2.9416  0.8500
 4573TIP3   OH235209   2.007   0.687   0.543  0.5069  0.4282 -0.2455
 4573TIP3    H135210   1.956   0.676   0.464 -0.0769 -0.3254  0.2224
 4573TIP3    H235211   1.959   0.752   0.595  0.0237 -0.2514  0.1769
 4574TIP3   OH235212   3.783   1.041   0.370  0.5358 -0.2035  0.3845
 4574TIP3    H135213   3.842   1.107   0.334 -1.6026  1.4598 -0.2973
 4574TIP3    H235214   3.750   1.079   0.451  1.1221 -1.5345  1.2748
 4575TIP3   OH235215   3.666   3.065   0.781  0.1055  0.3395 -0.2210
 4575TIP3    H135216   3.593   3.119   0.809  0.4378  0.5343  0.2881
 4575TIP3    H235217   3.687   3.096   0.693  0.6236  1.4064  0.2593
 4576TIP3   OH235218   3.711   6.333  11.896  0.1566  0.0402 -0.2321
 4576TIP3    H135219   3.761   6.402  11.851 -0.6407  1.7881  1.4301
 4576TIP3    H235220   3.644   6.380  11.945 -2.1443 -2.1246 -1.1070
 4577TIP3   OH235221   4.583   1.444   3.899  1.0683  0.1916 -0.1954
 4577TIP3    H135222   4.576   1.349   3.891  0.5252 -0.0541  2.3287
 4577TIP3    H235223   4.591   1.460   3.993  0.3945  2.6894 -0.4844
 4578TIP3   OH235224   3.255   5.156  16.410  0.6742 -0.1254  0.2131
 4578TIP3    H135225   3.311   5.217  16.363  0.8070  0.5368  1.1919
 4578TIP3    H235226   3.285   5.161  16.501 -1.6582  1.1380  1.0161
 4579TIP3   OH235227   1.670   3.012  16.284  0.0334  0.0803 -0.4885
 4579TIP3    H135228   1.697   2.920  16.292 -0.1992 -0.0071 -0.6835
 4579TIP3    H235229   1.672   3.029  16.190  1.5502  0.7245 -0.3658
 4580TIP3   OH235230   5.025   1.286   5.787  0.1211 -0.6668 -0.3227
 4580TIP3    H135231   5.070   1.227   5.726  1.1933 -0.4366  0.2204
 4580TIP3    H235232   5.070   1.273   5.870 -0.8861 -0.4792  0.2680
 4581TIP3   OH235233   4.544   4.393   1.174  0.1147 -0.4063  0.2899
 4581TIP3    H135234   4.536   4.324   1.240  0.0486  0.9654  1.7678
 4581TIP3    H235235   4.526   4.348   1.091  0.4730 -2.2401  1.1490
 4582TIP3   OH235236   6.335   3.356   0.027  0.1442 -0.2761  0.0878
 4582TIP3    H135237   6.430   3.371   0.024 -0.2241  2.7860  0.6906
 4582TIP3    H235238   6.316   3.314  -0.057  1.6549  2.2907 -1.7072
 4583TIP3   OH235239   2.148   2.740   0.665  0.2424 -0.2124 -0.0004
 4583TIP3    H135240   2.222   2.801   0.664  0.1261 -0.0693 -1.0692
 4583TIP3    H235241   2.071   2.795   0.674  0.2430 -0.3588  1.0571
 4584TIP3   OH235242   1.235   2.956   0.135  0.1189 -0.9024  0.3657
 4584TIP3    H135243   1.156   2.925   0.180  0.2613 -0.0432  1.2496
 4584TIP3    H235244   1.219   2.938   0.042 -1.1622 -0.6484  0.5204
 4585TIP3   OH235245   1.721   6.455   0.892  0.6107  0.3572  0.3293
 4585TIP3    H135246   1.694   6.544   0.915 -1.4020 -0.2040  0.3293
 4585TIP3    H235247   1.765   6.464   0.807  1.7074  1.5031  0.9903
 4586TIP3   OH235248   0.632   4.899   4.281  0.5439  0.1820 -0.0627
 4586TIP3    H135249   0.633   4.980   4.332 -1.4888  0.4780 -0.4368
 4586TIP3    H235250   0.567   4.913   4.213  3.0359 -0.2983 -2.7063
 4587TIP3   OH235251   3.532   5.990  13.951 -0.4050  0.4772 -0.2774
 4587TIP3    H135252   3.456   6.018  13.899 -0.5118  0.2906 -0.2236
 4587TIP3    H235253   3.577   5.927  13.896 -0.5181  0.2791 -0.1469
 4588TIP3   OH235254   0.726   4.994  13.719  0.4117  0.4880 -0.6993
 4588TIP3    H135255   0.708   4.902  13.701  0.9293 -0.1292  1.5885
 4588TIP3    H235256   0.643   5.039  13.702 -0.5478 -0.7916  0.4507
 4589TIP3   OH235257   1.566   3.240  13.845  0.1968  0.1857 -0.5119
 4589TIP3    H135258   1.488   3.282  13.808  0.8393  0.9807 -0.9991
 4589TIP3    H235259   1.638   3.270  13.790  0.7553 -1.1864 -0.5628
 4590TIP3   OH235260   4.505   4.237   0.963 -0.0149 -0.5266  0.7069
 4590TIP3    H135261   4.564   4.199   0.898 -1.2740  0.7171 -1.2590
 4590TIP3    H235262   4.428   4.180   0.961 -0.9807  0.7582 -0.6124
 4591TIP3   OH235263   0.627   6.042   1.916 -0.2249  0.1320 -0.0279
 4591TIP3    H135264   0.558   6.107   1.932  0.6199  1.4172 -1.3329
 4591TIP3    H235265   0.706   6.095   1.900  1.2688 -1.2789  2.0858
 4592TIP3   OH235266   6.573   5.619  13.436 -0.0609  0.3003 -0.1807
 4592TIP3    H135267   6.601   5.555  13.371  1.2599  0.3634  0.2806
 4592TIP3    H235268   6.552   5.567  13.513  0.8478  0.3769  0.1387
 4593TIP3   OH235269   5.205   5.665   5.607  0.3595 -0.1362  0.0234
 4593TIP3    H135270   5.249   5.671   5.522  1.1070  2.2161  0.4956
 4593TIP3    H235271   5.115   5.640   5.586  0.9492 -1.3476 -1.2727
 4594TIP3   OH235272   6.536   2.108   1.142 -0.0256  0.5326  0.0179
 4594TIP3    H135273   6.518   2.143   1.054  0.6827 -0.0197 -0.3561
 4594TIP3    H235274   6.625   2.074   1.137  0.2149  0.9603  1.1133
 4595TIP3   OH235275   1.529   3.494  14.799  0.0317  0.1462  0.1420
 4595TIP3    H135276   1.529   3.400  14.816  0.9446  0.0657 -0.2270
 4595TIP3    H235277   1.471   3.531  14.866  0.3911 -0.5766  0.8705
 4596TIP3   OH235278   1.821   2.225  10.481 -0.0818 -0.5870 -0.3358
 4596TIP3    H135279   1.816   2.249  10.573  0.0217 -1.4808 -0.0868
 4596TIP3    H235280   1.884   2.153  10.478 -1.3872 -1.7588 -0.8259
 4597TIP3   OH235281   0.136   6.042  14.906  0.2807  0.0140 -0.7836
 4597TIP3    H135282   0.124   6.016  14.815  2.7902 -2.9495 -0.4372
 4597TIP3    H235283   0.188   5.972  14.945  0.4283  1.7757  2.6424
 4598TIP3   OH235284   0.187   1.595   4.672 -0.2739  0.4863  0.2169
 4598TIP3    H135285   0.160   1.658   4.738 -0.6677  1.2276 -0.6293
 4598TIP3    H235286   0.151   1.511   4.702 -0.2677  0.7648  1.0322
 4599TIP3   OH235287   0.089   1.599   0.409 -0.3750  0.1080 -0.1750
 4599TIP3    H135288   0.126   1.659   0.346 -0.1644  0.6168  0.4228
 4599TIP3    H235289   0.074   1.518   0.360 -0.9283  0.7357 -1.0488
 4600TIP3   OH235290   5.238   1.233   5.300 -0.6972  0.0196  0.0127
 4600TIP3    H135291   5.211   1.206   5.212 -0.6184  0.3935 -0.1295
 4600TIP3    H235292   5.252   1.327   5.292 -1.6965  0.2465  0.6756
 4601TIP3   OH235293   3.115   0.153   0.308 -0.1738  0.0887 -0.8274
 4601TIP3    H135294   3.029   0.121   0.282 -0.4565 -0.8588  1.0694
 4601TIP3    H235295   3.159   0.075   0.343  1.2577  0.6778 -1.2624
 4602TIP3   OH235296   1.188   2.642   0.647  0.0443 -0.4280  0.6446
 4602TIP3    H135297   1.275   2.678   0.630 -0.4350  0.7505  0.5405
 4602TIP3    H235298   1.188   2.619   0.739  0.0967  0.7134  0.9489
 4603TIP3   OH235299   4.415   2.242   0.621  0.1796  0.1351  0.6373
 4603TIP3    H135300   4.494   2.278   0.582  0.5696 -1.2024  0.1071
 4603TIP3    H235301   4.436   2.150   0.636 -1.5661 -0.5037 -0.4387
 4604TIP3   OH235302   0.978   6.222   5.962  0.0059 -0.2644  0.4776
 4604TIP3    H135303   0.978   6.150   6.026 -2.3794  0.2521  1.1688
 4604TIP3    H235304   0.897   6.269   5.980  2.0839  3.4578  0.9640
 4605TIP3   OH235305   1.877   0.324   1.213 -0.3591 -0.3334 -0.5567
 4605TIP3    H135306   1.931   0.348   1.287 -0.7834 -1.7145  0.2378
 4605TIP3    H235307   1.915   0.371   1.139  0.5441  0.4526  0.3761
 4606TIP3   OH235308   4.827   2.590  12.517 -0.3711 -0.0826  0.7761
 4606TIP3    H135309   4.739   2.554  12.531 -0.3534 -1.5703 -2.0641
 4606TIP3    H235310   4.886   2.524  12.552 -0.3891 -0.4774  0.0820
 4607TIP3   OH235311   0.872   1.364  10.984 -0.0898 -0.3619  0.2055
 4607TIP3    H135312   0.892   1.273  11.004 -0.9607 -0.2502  1.7097
 4607TIP3    H235313   0.835   1.362  10.896  0.1668 -1.4054  0.1120
 4608TIP3   OH235314   2.943   2.020   3.947 -0.4568 -0.2360  0.3061
 4608TIP3    H135315   2.964   2.109   3.973 -3.4906  1.1891 -1.5774
 4608TIP3    H235316   2.930   1.973   4.029  0.0019  1.3890  1.3428
 4609TIP3   OH235317   3.304   3.148  12.537  0.0774  0.1202 -0.1273
 4609TIP3    H135318   3.243   3.153  12.611 -0.1208  0.2795 -0.3012
 4609TIP3    H235319   3.283   3.065  12.495  0.3854 -0.1095  0.1612
 4610TIP3   OH235320   0.830   1.769  17.202 -0.1797  0.2593 -0.5554
 4610TIP3    H135321   0.785   1.695  17.161  0.0835 -0.2545  0.0705
 4610TIP3    H235322   0.908   1.781  17.148  0.0434 -0.2606 -0.3600
 4611TIP3   OH235323   5.146   5.286   5.911 -0.3123 -0.0842 -0.0075
 4611TIP3    H135324   5.054   5.277   5.887 -0.2874  0.2817 -0.2581
 4611TIP3    H235325   5.194   5.240   5.842 -0.2606  0.6179 -0.4550
 4612TIP3   OH235326   0.769   1.563  16.766 -0.2734  0.4332 -0.0901
 4612TIP3    H135327   0.855   1.535  16.734 -0.0578  0.6093  0.3255
 4612TIP3    H235328   0.726   1.482  16.792  0.8887  0.5543  2.4515
 4613TIP3   OH235329   2.748   0.840   2.762 -0.2812 -1.1520 -0.6540
 4613TIP3    H135330   2.746   0.916   2.703 -0.6493 -0.9632 -0.3974
 4613TIP3    H235331   2.658   0.829   2.791  0.0190 -0.8054  0.4393
 4614TIP3   OH235332   3.694   3.805  13.870 -0.0176  0.3411 -0.6520
 4614TIP3    H135333   3.654   3.793  13.784 -0.6756  0.3798 -0.3545
 4614TIP3    H235334   3.751   3.881  13.859 -0.6116  0.7619 -0.8819
 4615TIP3   OH235335   4.067   3.828   5.471  0.1717  0.0861  0.1860
 4615TIP3    H135336   3.973   3.812   5.466  0.3244 -1.2296  1.1577
 4615TIP3    H235337   4.105   3.743   5.491  1.6283  0.4942 -0.6870
 4616TIP3   OH235338   6.814   0.784   0.076  0.0991 -0.0685  0.0764
 4616TIP3    H135339   6.728   0.742   0.075  0.1241 -0.1326  0.5307
 4616TIP3    H235340   6.851   0.761   0.161  1.3429 -1.6065 -0.8185
 4617TIP3   OH235341   5.610   4.902  14.867  0.1842  0.1198 -0.0188
 4617TIP3    H135342   5.565   4.862  14.942 -3.4821 -0.5157 -2.3210
 4617TIP3    H235343   5.569   4.988  14.858 -0.6016 -0.4148 -2.1339
 4618TIP3   OH235344   2.220   1.957   0.273 -0.0540 -0.5276 -0.0296
 4618TIP3    H135345   2.285   2.009   0.225 -0.5677 -1.5589 -1.9382
 4618TIP3    H235346   2.249   1.961   0.364  2.6512 -0.8930 -0.7991
 4619TIP3   OH235347   4.949   2.572  13.477  0.0035 -0.0179 -0.0263
 4619TIP3    H135348   4.854   2.565  13.482  0.0026 -0.3548 -0.4943
 4619TIP3    H235349   4.965   2.644  13.416  0.0518 -0.8136 -0.9636
 4620TIP3   OH235350   3.505   3.379   6.052 -0.4507 -0.8534 -0.0600
 4620TIP3    H135351   3.499   3.407   6.144  0.1290 -0.7314 -0.0582
 4620TIP3    H235352   3.576   3.315   6.050  1.5639  1.2474 -0.8950
 4621TIP3   OH235353   1.646   3.063  14.178 -1.0094 -0.3598 -0.1767
 4621TIP3    H135354   1.552   3.049  14.163 -0.8387 -2.2771  0.3018
 4621TIP3    H235355   1.687   3.028  14.099 -0.6974  1.2554 -0.7684
 4622TIP3   OH235356   1.602   0.229  14.813  0.9694  0.0101  0.2487
 4622TIP3    H135357   1.555   0.163  14.863 -1.5025  2.4152  1.3514
 4622TIP3    H235358   1.650   0.279  14.878  1.3408  0.4397 -0.3476
 4623TIP3   OH235359   6.308   2.398   1.148  1.3619  0.2705 -0.6533
 4623TIP3    H135360   6.273   2.320   1.106 -1.2836  0.5697  0.7807
 4623TIP3    H235361   6.366   2.365   1.216 -0.2911 -0.5513  0.4248
 4624TIP3   OH235362   1.779   4.558   0.513 -0.0598  0.4322 -0.1500
 4624TIP3    H135363   1.830   4.489   0.471  1.6064  0.8080  1.1472
 4624TIP3    H235364   1.801   4.637   0.465 -0.1077  0.4524 -0.1377
 4625TIP3   OH235365   6.544   1.664   3.494 -0.0761  0.1848  0.6015
 4625TIP3    H135366   6.552   1.709   3.410 -0.7858  1.2238  1.0700
 4625TIP3    H235367   6.570   1.574   3.475 -2.8377 -0.3406 -1.4092
 4626TIP3   OH235368   4.963   5.549   1.418 -0.2813  0.1639  0.0441
 4626TIP3    H135369   4.886   5.525   1.469  0.4376 -0.2935  0.9422
 4626TIP3    H235370   4.961   5.645   1.415 -0.4457  0.1876  0.7613
 4627TIP3   OH235371   0.898   0.429  11.428 -0.3872  0.3114  0.6705
 4627TIP3    H135372   0.915   0.369  11.501 -1.0015 -1.7249 -0.7434
 4627TIP3    H235373   0.985   0.461  11.402  0.4169 -2.5018 -0.4915
 4628TIP3   OH235374   3.694   4.646  13.072  0.2657 -0.2542 -0.0742
 4628TIP3    H135375   3.705   4.737  13.047 -0.1469 -0.6329 -1.7656
 4628TIP3    H235376   3.732   4.640  13.160 -2.2290  2.1596  1.3577
 4629TIP3   OH235377   5.643   5.319   1.258 -0.1550 -0.3537  0.2779
 4629TIP3    H135378   5.623   5.372   1.335 -0.9223 -2.5690  1.7023
 4629TIP3    H235379   5.739   5.319   1.253 -0.0251 -1.3718  2.1575
 4630TIP3   OH235380   6.525   6.712   4.832  0.1559 -0.3409 -0.0696
 4630TIP3    H135381   6.516   6.624   4.868 -0.0002 -1.0942 -1.8202
 4630TIP3    H235382   6.608   6.744   4.866 -0.0605 -0.9202  1.0553
 4631TIP3   OH235383   0.741   1.088  15.725  0.1400 -0.0578  0.4714
 4631TIP3    H135384   0.674   1.054  15.783 -0.5555  0.1794 -0.1731
 4631TIP3    H235385   0.823   1.074  15.772 -0.4344  0.5174  1.6937
 4632TIP3   OH235386   4.259   4.301  11.395 -0.5919  0.0548  0.2500
 4632TIP3    H135387   4.261   4.293  11.300  3.8476 -1.4227  0.2541
 4632TIP3    H235388   4.244   4.212  11.427  1.0545 -0.0752  0.7924
 4633TIP3   OH235389   0.678   0.544   4.267  0.7952  0.1883  0.0022
 4633TIP3    H135390   0.631   0.463   4.252 -0.6849  1.3206 -2.0080
 4633TIP3    H235391   0.748   0.544   4.202  0.7076  0.5794 -0.0956
 4634TIP3   OH235392   6.542   1.435  16.835 -0.0964 -0.1545 -0.4172
 4634TIP3    H135393   6.535   1.351  16.789 -1.4464  0.7105 -1.8596
 4634TIP3    H235394   6.568   1.498  16.768 -1.7174  1.0721  0.0451
 4635TIP3   OH235395   2.385   6.597  15.235  0.0934 -0.1698 -0.0564
 4635TIP3    H135396   2.341   6.643  15.164 -0.0941  0.4253  0.4326
 4635TIP3    H235397   2.465   6.562  15.195 -0.6599 -1.0157 -0.8817
 4636TIP3   OH235398   4.700   1.964   3.187  0.3252 -0.2662  0.5556
 4636TIP3    H135399   4.622   1.940   3.237  1.1337  0.0682  2.0413
 4636TIP3    H235400   4.704   2.059   3.193  0.2178 -0.1809 -0.5220
 4637TIP3   OH235401   2.551   6.408  15.430  0.0627  0.2801  0.6261
 4637TIP3    H135402   2.614   6.468  15.470  2.5638 -1.6979 -0.1101
 4637TIP3    H235403   2.543   6.437  15.339 -0.7080  0.9812  0.9086
 4638TIP3   OH235404   4.350   1.477  11.840 -0.4576  0.5068 -0.3112
 4638TIP3    H135405   4.424   1.417  11.852 -2.8715 -2.6717  0.0630
 4638TIP3    H235406   4.382   1.542  11.778  1.9714 -2.0452 -1.9843
 4639TIP3   OH235407   2.822   6.737  16.267  0.7974  0.0880 -0.2983
 4639TIP3    H135408   2.775   6.654  16.258  1.2233 -0.4089  1.5529
 4639TIP3    H235409   2.755   6.800  16.294  0.8092 -0.1496  0.3135
 4640TIP3   OH235410   1.462   3.251  11.546 -1.0319 -0.1742 -0.0456
 4640TIP3    H135411   1.551   3.222  11.526 -1.0582 -0.1517 -0.1988
 4640TIP3    H235412   1.473   3.324  11.607 -0.9856 -0.8471  0.7679
 4641TIP3   OH235413   3.806   1.788  13.076  0.2436  0.7260 -0.6884
 4641TIP3    H135414   3.779   1.877  13.055 -0.5619  0.9315  1.0616
 4641TIP3    H235415   3.901   1.793  13.086  0.4663  0.9360 -2.5042
 4642TIP3   OH235416   6.351   4.477  14.589  0.2246 -0.2993  0.0764
 4642TIP3    H135417   6.266   4.475  14.635  0.1811  0.0999  0.0199
 4642TIP3    H235418   6.330   4.509  14.502  0.3719 -0.6393 -0.0835
 4643TIP3   OH235419   3.346   6.494  13.509  0.0021  0.4469 -0.5041
 4643TIP3    H135420   3.319   6.572  13.557  1.3396 -0.0316  1.1736
 4643TIP3    H235421   3.296   6.423  13.549 -0.1221  0.2535 -0.9973
 4644TIP3   OH235422   6.420   4.940   4.567  0.0948  0.1561  0.1491
 4644TIP3    H135423   6.340   4.991   4.578 -0.8390 -1.2727  0.3064
 4644TIP3    H235424   6.392   4.849   4.582  1.1151 -0.7174 -2.5242
 4645TIP3   OH235425   3.153   3.439  12.124 -0.4060  0.2269  0.1438
 4645TIP3    H135426   3.067   3.406  12.100 -0.6469  1.5993 -1.0075
 4645TIP3    H235427   3.136   3.519  12.173  0.1761  1.8928 -2.2117
 4646TIP3   OH235428   3.201   4.846   6.060 -0.1253 -0.1373 -0.3191
 4646TIP3    H135429   3.128   4.842   5.998 -1.0720  1.0175  0.6601
 4646TIP3    H235430   3.274   4.880   6.008 -0.8006  0.4783 -0.8954
 4647TIP3   OH235431   6.701   5.196  14.415 -0.1673  0.5201 -0.3715
 4647TIP3    H135432   6.627   5.242  14.454 -0.9702 -0.8064 -0.2461
 4647TIP3    H235433   6.764   5.186  14.487 -1.4520 -1.5277  0.5899
 4648TIP3   OH235434   0.873   0.947  16.933  0.2093  0.0434  0.2037
 4648TIP3    H135435   0.866   1.002  17.012 -1.5765  1.8198 -1.0790
 4648TIP3    H235436   0.884   0.858  16.967  0.1026  0.8077  2.4486
 4649TIP3   OH235437   5.060   2.385   4.662 -0.4090 -0.3891  0.2276
 4649TIP3    H135438   4.976   2.384   4.709 -0.8433 -1.5506 -0.5266
 4649TIP3    H235439   5.071   2.477   4.636 -1.1700 -0.1174  0.8133
 4650TIP3   OH235440   6.413   0.926   0.222 -0.2583 -0.0722  0.1661
 4650TIP3    H135441   6.374   0.979   0.153 -1.8959  0.9318  1.7471
 4650TIP3    H235442   6.404   0.835   0.191 -1.1762  0.3347 -0.8273
 4651TIP3   OH235443   5.038   6.349   4.638  0.2262  0.1917  0.9174
 4651TIP3    H135444   4.961   6.353   4.582  0.3662 -1.3308  0.5899
 4651TIP3    H235445   5.012   6.396   4.718 -0.8374  0.1872  0.5853
 4652TIP3   OH235446   5.376   2.618   0.784 -0.3539  0.3665 -0.1374
 4652TIP3    H135447   5.461   2.580   0.759  0.1905  1.7668 -0.5027
 4652TIP3    H235448   5.312   2.551   0.761  0.6113 -0.5122 -0.3372
 4653TIP3   OH235449   1.937   5.845  14.397  0.0506 -0.2542  0.1282
 4653TIP3    H135450   1.856   5.835  14.347  0.6880 -2.3872 -0.6012
 4653TIP3    H235451   1.911   5.826  14.488 -0.9449  2.8428  0.6293
 4654TIP3   OH235452   3.444   0.640  16.143 -0.0726  0.1519  0.0983
 4654TIP3    H135453   3.447   0.729  16.110  1.1477 -0.0818 -0.4822
 4654TIP3    H235454   3.525   0.600  16.111 -0.0859 -0.8440  1.2355
 4655TIP3   OH235455   2.179   5.752  12.434  0.0978 -0.1106  0.0885
 4655TIP3    H135456   2.115   5.743  12.505 -0.2201 -1.2577 -0.3251
 4655TIP3    H235457   2.166   5.840  12.401 -2.5780 -0.9104 -1.2058
 4656TIP3   OH235458   2.352   0.561  13.607  0.4711  0.1889 -0.7324
 4656TIP3    H135459   2.329   0.650  13.636  1.5295  0.2224  0.0694
 4656TIP3    H235460   2.301   0.503  13.664 -0.1549  0.2769 -1.1984
 4657TIP3   OH235461   1.299   5.063  11.180  0.2077  0.6714 -0.4747
 4657TIP3    H135462   1.208   5.093  11.182  0.3275  1.0551  1.2427
 4657TIP3    H235463   1.294   4.972  11.210  0.6343  1.6867  3.1368
 4658TIP3   OH235464   1.605   5.185   5.030 -0.2202  0.3532  0.1268
 4658TIP3    H135465   1.588   5.166   4.938  1.6103  1.0947 -0.4076
 4658TIP3    H235466   1.634   5.276   5.031  0.1587  0.2383  1.3805
 4659TIP3   OH235467   4.839   2.546   3.301  0.5070 -0.6452 -0.0756
 4659TIP3    H135468   4.753   2.550   3.259 -0.3242 -1.1155  1.4989
 4659TIP3    H235469   4.882   2.472   3.258  0.2989 -0.1582 -1.1622
 4660TIP3   OH235470   0.376   6.563  15.476 -0.3882 -0.4294 -0.3497
 4660TIP3    H135471   0.436   6.508  15.426 -1.4871  0.4246 -2.7367
 4660TIP3    H235472   0.297   6.509  15.487 -1.0317  0.2057 -1.6763
 4661TIP3   OH235473   4.945   1.302  14.268 -0.1652 -0.5259 -0.4315
 4661TIP3    H135474   4.872   1.310  14.330  1.5884 -1.3351  1.8824
 4661TIP3    H235475   5.003   1.237  14.307  1.2654 -0.7865 -2.7800
 4662TIP3   OH235476   5.670   6.715   5.636 -0.0063  0.5936  0.1574
 4662TIP3    H135477   5.638   6.790   5.587  2.6501  1.5727 -0.2208
 4662TIP3    H235478   5.727   6.668   5.575  0.4075 -0.2896  1.1830
 4663TIP3   OH235479   1.445   3.425  14.532 -0.1684 -0.0696  0.1537
 4663TIP3    H135480   1.394   3.347  14.551 -1.2544  0.7957  0.9845
 4663TIP3    H235481   1.436   3.479  14.611 -0.2184  1.2877 -0.7438
 4664TIP3   OH235482   1.625   0.812  13.263  0.0576 -0.1984  0.6152
 4664TIP3    H135483   1.593   0.732  13.306 -0.2070 -0.4470 -0.0163
 4664TIP3    H235484   1.545   0.855  13.232  0.2683 -0.4054 -0.2619
 4665TIP3   OH235485   3.404   2.426   3.226  0.0104 -0.0351 -0.0280
 4665TIP3    H135486   3.326   2.428   3.282 -0.6886 -1.2845 -0.9141
 4665TIP3    H235487   3.466   2.371   3.274 -0.0906 -0.0339  0.1063
 4666TIP3   OH235488   3.693   6.295   4.761 -0.1367 -0.5088 -0.4625
 4666TIP3    H135489   3.636   6.371   4.755  0.7714  0.2112 -0.2219
 4666TIP3    H235490   3.650   6.238   4.824  1.4408  1.9240  3.1594
 4667TIP3   OH235491   5.669   1.163  10.457 -0.3030 -0.2951 -0.1568
 4667TIP3    H135492   5.605   1.094  10.445 -1.0308 -0.1797  2.5193
 4667TIP3    H235493   5.634   1.238  10.409 -1.5089 -0.6341  0.1807
 4668TIP3   OH235494   5.021   5.503  12.359  0.9160  0.1933 -0.2943
 4668TIP3    H135495   5.042   5.572  12.296  0.3113 -0.1151 -0.8431
 4668TIP3    H235496   5.055   5.423  12.319  2.2794  0.2538  0.6799
 4669TIP3   OH235497   3.020   4.202  11.943 -1.4048  0.0286 -0.4617
 4669TIP3    H135498   2.973   4.280  11.914 -0.1619  0.5806 -1.0279
 4669TIP3    H235499   3.071   4.174  11.867 -1.3146 -0.9465 -0.0607
 4670TIP3   OH235500   3.007   5.201  11.067  0.1038  0.1223 -0.5656
 4670TIP3    H135501   3.044   5.197  10.979  0.6712  0.7082 -0.3620
 4670TIP3    H235502   2.922   5.157  11.060  1.2999 -2.3559 -0.7878
 4671TIP3   OH235503   0.022   0.327   0.017 -0.5644  0.0787  0.3056
 4671TIP3    H135504   0.017   0.372   0.101 -1.5002 -0.9788  0.8340
 4671TIP3    H235505  -0.038   0.253   0.025 -0.6993 -0.0277 -1.3037
 4672TIP3   OH235506   0.426   2.039  11.328 -0.6118 -0.0720 -0.1345
 4672TIP3    H135507   0.382   2.123  11.318  1.1771  1.0886  1.1664
 4672TIP3    H235508   0.408   2.014  11.419 -1.8394 -1.5787 -0.7419
 4673TIP3   OH235509   5.588   0.920  11.616  0.0742 -0.2197 -0.5648
 4673TIP3    H135510   5.514   0.960  11.572  0.0744  0.0255 -0.3439
 4673TIP3    H235511   5.633   0.870  11.547 -2.1803 -3.2078 -0.0970
 4674TIP3   OH235512   0.929   1.942   2.229 -0.1601  0.3951  0.1175
 4674TIP3    H135513   0.866   1.880   2.266  1.2205 -0.4257  1.1545
 4674TIP3    H235514   0.874   2.008   2.187 -1.8811  1.0852  3.1025
 4675TIP3   OH235515   6.553   5.034   5.700  0.3304  0.3326  0.0230
 4675TIP3    H135516   6.558   5.113   5.646 -0.0749  0.8340  0.6971
 4675TIP3    H235517   6.519   5.065   5.784  1.2168 -0.3841  0.6596
 4676TIP3   OH235518   2.771   2.524  15.176  0.1468 -0.2589 -0.4501
 4676TIP3    H135519   2.805   2.559  15.257 -1.7653 -1.6437  1.0556
 4676TIP3    H235520   2.792   2.589  15.110 -0.0240  1.8979  1.5191
 4677TIP3   OH235521   2.485   6.130   6.667 -0.7551  0.4407  0.4382
 4677TIP3    H135522   2.537   6.199   6.710 -1.5727  0.2364  1.7976
 4677TIP3    H235523   2.407   6.175   6.636 -0.6428  0.3823  0.0612
 4678TIP3   OH235524   6.586   0.978   5.402  0.0588 -0.4623  0.3888
 4678TIP3    H135525   6.588   0.946   5.492  0.2073 -0.3315  0.4310
 4678TIP3    H235526   6.507   1.032   5.397  0.4662  0.1653  0.6542
 4679TIP3   OH235527   5.881   6.230  14.871 -0.4020 -0.8113 -0.1571
 4679TIP3    H135528   5.846   6.207  14.785  0.3992 -1.0615 -0.4277
 4679TIP3    H235529   5.963   6.181  14.877  0.0186 -0.0598  0.3604
 4680TIP3   OH235530   5.313   0.037  11.807 -0.4473  0.1809  0.9864
 4680TIP3    H135531   5.242   0.093  11.777  0.4713  0.4704 -0.8130
 4680TIP3    H235532   5.386   0.098  11.822  0.0703 -0.3314  0.5940
 4681TIP3   OH235533   5.743   3.649   4.745 -0.1375  0.6053 -0.2260
 4681TIP3    H135534   5.727   3.555   4.744 -1.8069  0.8001  2.0379
 4681TIP3    H235535   5.826   3.659   4.792 -0.8098  0.3349  1.0389
 4682TIP3   OH235536   2.715   3.493   0.256 -0.2602  0.5610  0.1975
 4682TIP3    H135537   2.677   3.563   0.203  1.1790  0.7056 -0.7176
 4682TIP3    H235538   2.809   3.512   0.256  0.2624 -1.7132 -0.6218
 4683TIP3   OH235539   4.803   2.167   5.036 -0.5707 -0.0328  0.0846
 4683TIP3    H135540   4.819   2.114   5.114  1.5691 -0.1565 -0.3841
 4683TIP3    H235541   4.815   2.257   5.065 -3.1130  0.2133  0.6193
 4684TIP3   OH235542   2.925   5.854  11.634  0.0108  0.2354  0.7211
 4684TIP3    H135543   2.838   5.832  11.668 -0.2503 -0.1041 -0.1425
 4684TIP3    H235544   2.925   5.950  11.629 -0.4355  0.2266  0.4337
 4685TIP3   OH235545   4.914   3.991  12.968  0.5369  0.0366 -0.0520
 4685TIP3    H135546   4.870   4.075  12.973 -1.5315 -0.7516 -2.7667
 4685TIP3    H235547   5.006   4.011  12.985 -0.0863  2.5720  0.7312
 4686TIP3   OH235548   0.517   4.020  13.382  0.3570 -0.3068  0.8415
 4686TIP3    H135549   0.578   4.093  13.380 -0.3053  0.2680  1.1345
 4686TIP3    H235550   0.430   4.061  13.386 -0.0141 -1.1049  1.3307
 4687TIP3   OH235551   1.711   5.682   3.056 -0.2858 -0.8786 -0.5312
 4687TIP3    H135552   1.752   5.721   3.133 -2.1606 -0.5900  0.3797
 4687TIP3    H235553   1.780   5.681   2.989  1.0973 -0.2316  0.8385
 4688TIP3   OH235554   5.880   4.085  11.117  0.1806  0.0188 -0.3412
 4688TIP3    H135555   5.952   4.148  11.122 -1.3675  1.8498  0.1876
 4688TIP3    H235556   5.808   4.134  11.079 -0.9601 -1.6182 -0.3985
 4689TIP3   OH235557   6.177   2.295  15.250 -0.3263  0.3457  0.4118
 4689TIP3    H135558   6.100   2.299  15.307  1.2106 -0.3504  2.6453
 4689TIP3    H235559   6.178   2.205  15.219 -0.7690  0.5394 -0.1911
 4690TIP3   OH235560   1.242   5.963  14.007  0.1880 -0.3579 -0.3901
 4690TIP3    H135561   1.206   6.048  14.031  1.4650  0.0360  0.2306
 4690TIP3    H235562   1.180   5.927  13.944 -0.8923  0.5883  0.0974
 4691TIP3   OH235563   0.108   3.869   1.074  0.1728  0.1169 -0.3851
 4691TIP3    H135564   0.042   3.923   1.118  0.6055  0.0917  0.3215
 4691TIP3    H235565   0.184   3.926   1.064 -0.1269  0.3001 -1.6672
 4692TIP3   OH235566   1.873   4.493   4.019  0.0195 -0.6223  0.3953
 4692TIP3    H135567   1.888   4.444   4.100  0.0954 -1.4042 -0.0789
 4692TIP3    H235568   1.788   4.535   4.033 -0.9523 -2.3976  0.1179
 4693TIP3   OH235569   5.498   0.248  12.339  0.0135  0.0760  0.1206
 4693TIP3    H135570   5.570   0.285  12.287  0.0352 -0.4540 -0.2298
 4693TIP3    H235571   5.446   0.199  12.276 -0.5652  0.3122  0.4089
 4694TIP3   OH235572   5.591   0.790  16.384  0.0908  0.1330 -0.7180
 4694TIP3    H135573   5.595   0.703  16.424  2.2708  0.5920  0.2628
 4694TIP3    H235574   5.510   0.829  16.418  0.8009 -0.2779  1.6822
 4695TIP3   OH235575   0.388   6.364   3.511 -0.4059 -0.5848  0.2862
 4695TIP3    H135576   0.362   6.342   3.421  2.1388 -1.1395 -0.3878
 4695TIP3    H235577   0.359   6.455   3.523 -0.5461 -0.4101 -1.2037
 4696TIP3   OH235578   3.589   0.666   5.330 -0.0727 -0.0620  0.4614
 4696TIP3    H135579   3.513   0.692   5.278 -0.6071 -0.3590  1.0822
 4696TIP3    H235580   3.552   0.622   5.406  0.7620 -1.8932 -0.1279
 4697TIP3   OH235581   4.639   4.468   6.201 -0.1632 -0.4936 -0.2549
 4697TIP3    H135582   4.725   4.504   6.221  0.2860 -0.6810 -1.7630
 4697TIP3    H235583   4.638   4.383   6.245  0.1988 -0.2619  0.2138
 4698TIP3   OH235584   0.618   0.539   2.672 -0.2810 -0.2169  0.1719
 4698TIP3    H135585   0.689   0.502   2.724  0.4075  1.7461  0.7149
 4698TIP3    H235586   0.661   0.599   2.611 -1.3337 -0.3462 -0.7488
 4699TIP3   OH235587   5.251   1.741  15.568 -0.1701 -0.2933 -0.4269
 4699TIP3    H135588   5.272   1.662  15.617  0.0877 -0.2522 -0.4713
 4699TIP3    H235589   5.172   1.775  15.610  0.3869  0.0664  0.3317
 4700TIP3   OH235590   6.088   3.849   1.627  0.1439 -0.7561 -0.1408
 4700TIP3    H135591   6.098   3.885   1.538  0.6189 -1.9990 -0.6124
 4700TIP3    H235592   6.000   3.876   1.653 -0.0878 -0.5462 -1.0791
 4701TIP3   OH235593   0.775   2.766   2.922  0.4636  0.0812  0.4268
 4701TIP3    H135594   0.691   2.768   2.968 -0.5510 -0.3404 -1.2955
 4701TIP3    H235595   0.793   2.858   2.902  0.7944  0.2436  1.4018
 4702TIP3   OH235596   6.662   0.137   4.477 -0.0699  0.8339  0.0002
 4702TIP3    H135597   6.576   0.131   4.434  0.3086 -0.0376 -0.6475
 4702TIP3    H235598   6.673   0.053   4.521  0.0743  1.2754  0.8149
 4703TIP3   OH235599   5.455   1.017  11.395 -0.7366  0.4262 -0.7505
 4703TIP3    H135600   5.376   0.981  11.354 -0.4172 -1.3519  0.0824
 4703TIP3    H235601   5.522   1.010  11.327 -1.3338  2.2872 -1.5858
 4704TIP3   OH235602   0.718   4.886  11.653 -0.0405  0.1750 -0.1573
 4704TIP3    H135603   0.754   4.939  11.723 -0.4884 -0.5685  0.6506
 4704TIP3    H235604   0.795   4.847  11.610  0.2653  1.1637 -0.5277
 4705TIP3   OH235605   1.086   2.932  13.567 -0.1941  0.1015 -0.0698
 4705TIP3    H135606   1.051   2.891  13.646  2.0966  1.4713  1.7969
 4705TIP3    H235607   1.019   2.997  13.543 -1.7486 -1.5570 -0.3854
 4706TIP3   OH235608   0.006   5.446   5.420 -0.0447  0.3101 -0.8533
 4706TIP3    H135609  -0.064   5.408   5.367 -0.9191  0.2781  0.2853
 4706TIP3    H235610   0.082   5.390   5.403 -0.3802  0.1331 -1.8319
 4707TIP3   OH235611   2.937   5.667   5.011 -0.1573 -0.1352  0.2202
 4707TIP3    H135612   2.903   5.691   4.925 -0.9466 -0.1964  0.5022
 4707TIP3    H235613   2.867   5.692   5.072  0.3522 -0.1788  0.8327
 4708TIP3   OH235614   2.665   1.222  16.089  0.1515  0.2031  0.2100
 4708TIP3    H135615   2.686   1.149  16.147  1.2883 -0.6148 -1.1719
 4708TIP3    H235616   2.744   1.276  16.090 -0.3617  0.9737  0.5291
 4709TIP3   OH235617   6.706   6.382   4.936  0.1886  0.6780  0.8329
 4709TIP3    H135618   6.732   6.291   4.952  1.3107  0.4961 -1.5466
 4709TIP3    H235619   6.783   6.433   4.962 -0.1621  0.8781  1.4745
 4710TIP3   OH235620   4.709   2.345   4.336  0.2206 -0.5292  0.3771
 4710TIP3    H135621   4.701   2.384   4.423 -1.0126 -3.6886  1.8454
 4710TIP3    H235622   4.772   2.273   4.348 -0.0336 -1.0782 -1.3142
 4711TIP3   OH235623   3.901   1.671   3.798 -0.4580 -0.3004  0.1118
 4711TIP3    H135624   3.956   1.726   3.854  1.4434 -0.1736 -1.7344
 4711TIP3    H235625   3.870   1.602   3.856 -0.9961  1.3923  1.9569
 4712TIP3   OH235626   2.656   5.284   3.611  0.3575 -0.7482 -0.0802
 4712TIP3    H135627   2.589   5.231   3.654 -0.0027  0.4782  0.9065
 4712TIP3    H235628   2.716   5.220   3.572 -0.2629 -1.8662  0.7626
 4713TIP3   OH235629   0.961   0.335  11.668 -0.8019  0.4975  0.0694
 4713TIP3    H135630   0.881   0.292  11.698 -1.0631  1.1813  0.3656
 4713TIP3    H235631   0.977   0.404  11.732  0.9965 -0.7043  1.0296
 4714TIP3   OH235632   1.186   2.942  12.752 -0.3556 -0.2434 -0.5140
 4714TIP3    H135633   1.095   2.966  12.733 -1.2089 -1.6016  1.5173
 4714TIP3    H235634   1.207   2.874  12.688 -1.2663 -0.8784 -0.1584
 4715TIP3   OH235635   4.306   4.362   0.096  0.4526  0.7286  0.8087
 4715TIP3    H135636   4.392   4.401   0.077  0.2247  0.8022 -0.1226
 4715TIP3    H235637   4.282   4.316   0.015  0.2183 -0.4298  1.5255
 4716TIP3   OH235638   6.808   0.078  15.124  0.2086  0.2502 -0.9147
 4716TIP3    H135639   6.890   0.035  15.152  0.0315 -1.0521 -2.2586
 4716TIP3    H235640   6.819   0.169  15.151  0.3691 -0.6517  2.6248
 4717TIP3   OH235641   5.526   2.423   6.309  0.5496  0.0854 -0.3639
 4717TIP3    H135642   5.455   2.397   6.368  1.2171 -0.6848  0.1079
 4717TIP3    H235643   5.497   2.507   6.273 -0.7931 -0.4098 -0.4973
 4718TIP3   OH235644   4.964   3.465  15.195 -0.8915 -0.3056 -0.0901
 4718TIP3    H135645   5.045   3.510  15.218 -0.3682 -0.4262 -1.5592
 4718TIP3    H235646   4.923   3.443  15.279  0.2254  0.4121  0.6632
 4719TIP3   OH235647   0.015   5.347  10.935  0.1065  0.5629  0.1963
 4719TIP3    H135648  -0.009   5.256  10.916 -1.9182  0.8966  0.8445
 4719TIP3    H235649  -0.057   5.399  10.898  1.0735  1.8953  0.1051
 4720TIP3   OH235650   5.217   3.879   1.838  0.2945 -0.2709 -0.4024
 4720TIP3    H135651   5.188   3.938   1.907  0.9776  0.7894 -1.0021
 4720TIP3    H235652   5.293   3.834   1.875 -0.3000 -0.8874  0.0979
 4721TIP3   OH235653   5.185   6.724   2.667  0.0248 -0.0300  0.9560
 4721TIP3    H135654   5.105   6.753   2.710 -0.1397  0.1404  0.5377
 4721TIP3    H235655   5.244   6.800   2.671 -0.5856  0.5802 -0.5913
 4722TIP3   OH235656   2.378   3.061   5.917 -0.0125  0.2442  0.0909
 4722TIP3    H135657   2.397   3.137   5.972 -1.6562 -0.4629  1.7577
 4722TIP3    H235658   2.443   2.996   5.944  0.3478  0.5188 -0.1227
 4723TIP3   OH235659   3.402   2.060  14.123 -0.0856  0.5097 -0.6617
 4723TIP3    H135660   3.363   2.052  14.036  2.4314  0.6400 -1.8922
 4723TIP3    H235661   3.437   1.973  14.142 -0.7738  0.4355  0.3174
 4724TIP3   OH235662   3.186   0.813   4.293 -0.1679  0.9848  0.2119
 4724TIP3    H135663   3.241   0.749   4.248 -1.4076 -0.7694  1.0734
 4724TIP3    H235664   3.144   0.862   4.222 -0.8745 -0.6599 -0.5581
 4725TIP3   OH235665   5.130   6.704   3.147 -0.4162 -0.2900  0.2615
 4725TIP3    H135666   5.111   6.612   3.127 -0.6841 -0.2978  0.5511
 4725TIP3    H235667   5.211   6.700   3.199 -0.2475 -0.3374 -0.0010
 4726TIP3   OH235668   0.333   2.887  12.676  0.9227  0.2175  0.3140
 4726TIP3    H135669   0.316   2.805  12.723  2.2695 -1.6983 -2.3396
 4726TIP3    H235670   0.424   2.909  12.696  0.9457  0.3947  0.0256
 4727TIP3   OH235671   4.929   3.238  12.795  0.2285  0.4782 -0.1862
 4727TIP3    H135672   4.853   3.271  12.842 -0.1889 -0.5629 -0.1073
 4727TIP3    H235673   4.987   3.313  12.787  0.0368  0.8438  1.4421
 4728TIP3   OH235674   4.462   1.536  12.927 -0.2969 -0.4989 -0.2592
 4728TIP3    H135675   4.366   1.543  12.927 -0.5001 -0.8723  3.8152
 4728TIP3    H235676   4.479   1.447  12.959  1.4105 -0.1047 -0.0025
 4729TIP3   OH235677   0.515   3.562   1.883  0.4932  0.4273  0.3069
 4729TIP3    H135678   0.514   3.625   1.955 -0.8746  2.7908 -1.5922
 4729TIP3    H235679   0.525   3.477   1.925  2.7088  1.8694  3.0430
 4730TIP3   OH235680   5.259   0.205   3.879 -0.1496 -0.1909 -0.1407
 4730TIP3    H135681   5.302   0.123   3.904  0.4361 -0.0952 -0.7973
 4730TIP3    H235682   5.288   0.269   3.945 -3.3658 -1.1994  2.5430
 4731TIP3   OH235683   0.846   2.135   4.730  0.4441 -0.5181  0.6405
 4731TIP3    H135684   0.793   2.057   4.748  0.3190 -0.7575 -0.6541
 4731TIP3    H235685   0.784   2.208   4.737 -0.3735 -0.8725 -1.8424
 4732TIP3   OH235686   6.664   5.123  16.968  0.3147  0.1799  0.3740
 4732TIP3    H135687   6.747   5.126  16.921  1.0648  1.4853  1.6945
 4732TIP3    H235688   6.601   5.165  16.909  0.7518 -0.1238 -0.3170
 4733TIP3   OH235689   6.569   0.649   3.999 -0.2424 -0.7203 -0.7109
 4733TIP3    H135690   6.492   0.701   3.976  0.1136 -0.1123 -0.5446
 4733TIP3    H235691   6.604   0.619   3.915  0.0298  0.0085 -0.8617
 4734TIP3   OH235692   1.392   4.423   4.562  0.1509  0.5510  0.1663
 4734TIP3    H135693   1.430   4.357   4.504 -0.7018 -0.6586  0.9512
 4734TIP3    H235694   1.392   4.504   4.510  1.1238 -0.0718 -0.8394
 4735TIP3   OH235695   3.771   5.873   2.390  0.0937 -0.0680  0.2030
 4735TIP3    H135696   3.856   5.859   2.431  0.8240 -1.1840 -1.5573
 4735TIP3    H235697   3.769   5.967   2.370  0.8368  0.0069  0.4416
 4736TIP3   OH235698   3.593   1.916   3.214  0.3414 -0.2021  0.2409
 4736TIP3    H135699   3.687   1.898   3.203  0.2616 -0.2643 -0.3639
 4736TIP3    H235700   3.570   1.874   3.297  0.7775 -0.4682  0.2280
 4737TIP3   OH235701   5.478   0.862  15.404  0.8724  0.5299  0.0841
 4737TIP3    H135702   5.494   0.771  15.381  0.4730  0.4098  0.2923
 4737TIP3    H235703   5.396   0.862  15.452  0.6607  1.0529 -0.2661
 4738TIP3   OH235704   3.714   0.471  14.903 -0.0921 -0.1002  0.1787
 4738TIP3    H135705   3.670   0.549  14.937 -1.1150 -0.7873  0.4700
 4738TIP3    H235706   3.774   0.446  14.973 -1.2450 -0.7429  0.9790
 4739TIP3   OH235707   3.086   1.912  15.855 -0.8057 -0.1873  1.2213
 4739TIP3    H135708   3.152   1.955  15.801  1.6963 -2.6497  2.0892
 4739TIP3    H235709   3.033   1.861  15.793 -0.1799 -0.2830  0.7612
 4740TIP3   OH235710   1.441   2.887  15.611  0.4107 -0.4632  0.2326
 4740TIP3    H135711   1.516   2.931  15.650 -1.6513 -0.3522  4.7564
 4740TIP3    H235712   1.388   2.958  15.575  0.5089 -0.0377  0.9027
 4741TIP3   OH235713   0.271   5.335  11.033 -0.1255 -0.5666  0.2353
 4741TIP3    H135714   0.186   5.312  10.996  0.8274 -1.9004 -1.2389
 4741TIP3    H235715   0.291   5.421  10.996 -0.9440 -0.0768  0.8725
 4742TIP3   OH235716   1.178   5.965  10.966 -0.1911  0.6122 -0.1148
 4742TIP3    H135717   1.246   5.923  11.018  1.1959  2.4679 -0.3135
 4742TIP3    H235718   1.146   6.036  11.022 -0.1754  1.3188 -0.9833
 4743TIP3   OH235719   4.111   2.547   3.832  0.2371  0.2361 -0.1875
 4743TIP3    H135720   4.091   2.640   3.838  0.1082  0.5634 -3.7464
 4743TIP3    H235721   4.059   2.507   3.903  0.8108  2.8386  1.8681
 4744TIP3   OH235722   5.059   4.351  15.875 -0.3863 -0.0996 -0.4436
 4744TIP3    H135723   4.965   4.358  15.857 -0.4945 -0.9023 -0.2329
 4744TIP3    H235724   5.089   4.442  15.879 -0.8035  0.1621 -2.2849
 4745TIP3   OH235725   1.777   0.573   3.878 -0.0646 -0.0432 -0.1995
 4745TIP3    H135726   1.859   0.543   3.838 -0.8613 -0.9489 -1.2070
 4745TIP3    H235727   1.715   0.502   3.861 -0.9467  0.4334  0.9427
 4746TIP3   OH235728   5.112   1.822  15.270  0.1518  0.6772 -0.0796
 4746TIP3    H135729   5.021   1.813  15.241  0.8916 -1.3670 -2.0243
 4746TIP3    H235730   5.139   1.908  15.237 -0.6496  0.6779 -0.7662
 4747TIP3   OH235731   3.678   2.659  13.095 -0.3954  0.2782  0.0238
 4747TIP3    H135732   3.729   2.723  13.146  0.9029 -0.0503 -0.8206
 4747TIP3    H235733   3.646   2.709  13.020 -0.1716  0.1630 -0.1489
 4748TIP3   OH235734   1.671   5.584  13.895  0.0029  0.4728  0.1732
 4748TIP3    H135735   1.722   5.595  13.975  0.9573 -0.4980 -0.2789
 4748TIP3    H235736   1.656   5.674  13.865  0.2317  0.8233  1.0688
 4749TIP3   OH235737   6.520   1.705   5.349 -0.0723  0.1158  0.4022
 4749TIP3    H135738   6.538   1.799   5.351  0.0719  0.2884 -2.8470
 4749TIP3    H235739   6.442   1.694   5.402 -0.9164  2.3305 -0.2497
 4750TIP3   OH235740   3.711   6.598  17.202  0.4778  0.0960  1.0138
 4750TIP3    H135741   3.669   6.599  17.116  2.8425  1.2561 -0.2307
 4750TIP3    H235742   3.661   6.662  17.254  0.2040  0.8594 -0.1463
 4751TIP3   OH235743   2.844   3.590   2.831 -0.2197  0.1082 -0.3769
 4751TIP3    H135744   2.769   3.532   2.847  0.4874 -0.6324  0.3483
 4751TIP3    H235745   2.888   3.596   2.916  0.1130  1.1705 -0.6031
 4752TIP3   OH235746   0.073   2.969   3.445 -0.0153  0.5573  0.0388
 4752TIP3    H135747   0.005   2.902   3.458  0.9850 -0.0778  2.5941
 4752TIP3    H235748   0.034   3.050   3.478 -0.2064  0.6270 -0.3501
 4753TIP3   OH235749   2.806   4.013   5.530  0.0578 -0.2438 -0.0460
 4753TIP3    H135750   2.869   4.016   5.602 -0.8526  0.9071  0.7426
 4753TIP3    H235751   2.782   3.921   5.522  0.9381 -0.5252  0.4210
 4754TIP3   OH235752   0.006   6.307   5.506  0.0672 -0.0007 -0.0618
 4754TIP3    H135753   0.002   6.214   5.528 -2.1292 -0.0621 -0.4993
 4754TIP3    H235754   0.021   6.351   5.590 -3.1370 -0.5306  0.9046
 4755TIP3   OH235755   5.413   2.436  13.685 -0.6126 -0.0643  0.1933
 4755TIP3    H135756   5.405   2.409  13.594 -0.3618  0.0343  0.1422
 4755TIP3    H235757   5.347   2.504  13.696 -0.1935  0.3977 -0.0967
 4756TIP3   OH235758   6.075   2.527   2.945  0.0248  0.0337  0.0770
 4756TIP3    H135759   6.130   2.449   2.938  1.1184  0.6465  1.5738
 4756TIP3    H235760   6.058   2.537   3.038  1.2660  2.5064  0.1216
 4757TIP3   OH235761   3.570   0.607   0.075 -0.1534  0.2631  0.5669
 4757TIP3    H135762   3.554   0.555   0.153  0.8940  1.3773  1.5847
 4757TIP3    H235763   3.657   0.645   0.089 -0.0912  0.7725 -0.9793
 4758TIP3   OH235764   4.214   1.653  14.610 -0.0608  0.2118 -0.6257
 4758TIP3    H135765   4.160   1.731  14.594  0.9028  0.6969 -1.6402
 4758TIP3    H235766   4.303   1.682  14.592  0.3223 -1.0924 -0.8839
 4759TIP3   OH235767   4.857   3.859   4.137  0.7082  0.0235 -0.3328
 4759TIP3    H135768   4.840   3.894   4.049 -2.8198  0.4785  0.3904
 4759TIP3    H235769   4.845   3.764   4.128  0.2444  0.0815 -0.3080
 4760TIP3   OH235770   5.846   0.664  11.719  0.0008  0.2784  0.0176
 4760TIP3    H135771   5.807   0.601  11.780 -1.3059  0.7696 -0.2636
 4760TIP3    H235772   5.825   0.630  11.632  1.5566 -0.2355 -0.1883
 4761TIP3   OH235773   0.109   2.906  15.351  0.2604 -0.3977 -0.7000
 4761TIP3    H135774   0.014   2.902  15.355  0.2714  0.0684  0.2651
 4761TIP3    H235775   0.135   2.958  15.427  1.2612 -0.1307 -1.1948
 4762TIP3   OH235776   6.009   1.434   3.208 -0.6170  0.1885 -0.1600
 4762TIP3    H135777   5.979   1.524   3.223 -0.4070  0.3027 -0.4282
 4762TIP3    H235778   6.062   1.439   3.129 -0.7557 -0.2074 -0.2797
 4763TIP3   OH235779   1.893   2.218   1.403  0.0510  0.6089  0.4541
 4763TIP3    H135780   1.955   2.165   1.453 -1.1379 -2.0418 -0.6950
 4763TIP3    H235781   1.927   2.307   1.410  3.6536 -0.5908  0.4074
 4764TIP3   OH235782   3.348   4.366  12.785 -0.7257  0.5831  0.1580
 4764TIP3    H135783   3.389   4.418  12.853 -2.0016  1.6477  0.1618
 4764TIP3    H235784   3.255   4.362  12.810 -1.0205  0.0326 -0.9156
 4765TIP3   OH235785   5.971   2.450  12.320  0.2573 -0.2084 -0.0203
 4765TIP3    H135786   6.015   2.382  12.371 -1.7835 -0.5327  1.4119
 4765TIP3    H235787   5.997   2.532  12.361  0.6404 -0.2913 -0.0927
 4766TIP3   OH235788   5.798   1.309   3.055  0.5054 -0.4759 -0.5521
 4766TIP3    H135789   5.776   1.278   3.143  0.1562  0.1059 -0.4237
 4766TIP3    H235790   5.884   1.348   3.064  1.3868 -2.2325 -0.9248
 4767TIP3   OH235791   1.665   2.688  15.480 -0.3067  0.0533  0.2925
 4767TIP3    H135792   1.682   2.732  15.563 -0.3019 -1.1578  0.9453
 4767TIP3    H235793   1.602   2.745  15.435  0.5261  1.2769  0.6321
 4768TIP3   OH235794   0.689   6.270  16.879 -0.5452 -0.7467 -0.3380
 4768TIP3    H135795   0.707   6.247  16.971 -1.7551 -0.2885  0.0356
 4768TIP3    H235796   0.765   6.322  16.853  0.2800 -1.6824  0.0805
 4769TIP3   OH235797   3.168   0.788  11.442 -0.3382 -0.3585 -0.2644
 4769TIP3    H135798   3.099   0.853  11.430 -2.2556 -2.3795 -0.7947
 4769TIP3    H235799   3.223   0.797  11.364  0.1838  1.4006  0.2510
 4770TIP3   OH235800   4.505   5.351   0.002 -0.3273 -0.2468  0.7264
 4770TIP3    H135801   4.594   5.329   0.028 -1.0593 -1.5973  2.3338
 4770TIP3    H235802   4.491   5.305  -0.081  0.8724  1.1034 -0.2682
 4771TIP3   OH235803   5.573   4.954  13.507  0.1859 -1.0284  0.1936
 4771TIP3    H135804   5.665   4.935  13.489  0.1957 -0.1186 -0.8421
 4771TIP3    H235805   5.528   4.871  13.493  0.8384 -1.4556  0.6130
 4772TIP3   OH235806   6.103   0.812  13.459  0.1306 -0.0097 -0.3035
 4772TIP3    H135807   6.129   0.903  13.445 -0.1473 -0.3053 -3.4458
 4772TIP3    H235808   6.181   0.770  13.495 -0.0306  1.5962  2.1157
 4773TIP3   OH235809   4.988   5.126   4.175  0.2703 -0.2438 -0.3936
 4773TIP3    H135810   5.026   5.164   4.095 -0.9142 -1.3777 -1.5393
 4773TIP3    H235811   4.962   5.202   4.227  2.8244  0.5596 -0.1328
 4774TIP3   OH235812   2.195   2.585   0.423 -0.4083 -0.1118  0.3561
 4774TIP3    H135813   2.129   2.531   0.382 -1.1162  1.2951 -0.4288
 4774TIP3    H235814   2.146   2.641   0.484  0.4192 -0.9869  1.9075
 4775TIP3   OH235815   4.830   0.403  16.131  0.4028 -0.3270  0.7437
 4775TIP3    H135816   4.898   0.358  16.081  0.4164  0.2350  0.2298
 4775TIP3    H235817   4.792   0.336  16.187 -0.9429 -1.4638 -1.4252
 4776TIP3   OH235818   5.565   4.367   0.870  0.1171 -0.5200  0.0888
 4776TIP3    H135819   5.646   4.415   0.891 -0.0149  1.1005 -2.6846
 4776TIP3    H235820   5.497   4.434   0.867 -0.4871 -1.1591 -1.8191
 4777TIP3   OH235821   4.135   3.844   0.144  0.0385 -0.4332  0.2907
 4777TIP3    H135822   4.040   3.858   0.135  0.0398 -0.2000  0.5855
 4777TIP3    H235823   4.156   3.778   0.079 -0.4034 -0.7944  0.5072
 4778TIP3   OH235824   5.951   6.639  13.892 -0.1418 -0.5297 -0.3681
 4778TIP3    H135825   6.017   6.667  13.955  0.1637  0.3852 -1.0731
 4778TIP3    H235826   5.868   6.664  13.932  0.1220  1.4599 -0.9633
 4779TIP3   OH235827   0.748   2.222  16.485  0.3521 -0.3194  0.1110
 4779TIP3    H135828   0.763   2.190  16.396  0.1655 -0.7605  0.2338
 4779TIP3    H235829   0.803   2.300  16.492 -0.3555  0.2640 -0.6968
 4780TIP3   OH235830   6.802   3.356   2.236 -0.4619 -0.0327  0.2259
 4780TIP3    H135831   6.775   3.273   2.276 -0.0310 -0.5614 -0.5555
 4780TIP3    H235832   6.770   3.423   2.296  0.1229 -0.7966  1.4276
 4781TIP3   OH235833   2.861   0.895   0.719 -0.8412  0.1716  0.5604
 4781TIP3    H135834   2.782   0.948   0.733 -0.6284  0.8575 -0.6999
 4781TIP3    H235835   2.933   0.956   0.730 -0.6050  0.3144 -1.4085
 4782TIP3   OH235836   3.262   2.037  12.861 -0.1109  0.6573  0.1839
 4782TIP3    H135837   3.168   2.020  12.864  0.3289 -2.4317 -0.0087
 4782TIP3    H235838   3.292   2.021  12.951  0.6017 -1.6901 -0.3984
 4783TIP3   OH235839   0.812   3.145   4.074 -0.3845 -0.5626 -0.1895
 4783TIP3    H135840   0.887   3.195   4.108 -1.1989  0.6572 -0.1023
 4783TIP3    H235841   0.833   3.054   4.093  0.6751 -0.1684  0.6489
 4784TIP3   OH235842   0.210   2.911  11.626  0.3963 -0.0628  0.7275
 4784TIP3    H135843   0.120   2.945  11.625  0.6420  0.5999 -0.5794
 4784TIP3    H235844   0.227   2.891  11.718 -1.3445 -0.9062  0.9060
 4785TIP3   OH235845   5.505   5.950  15.478 -0.2918 -0.8228 -0.1153
 4785TIP3    H135846   5.522   5.899  15.557  0.0844  0.0407  0.3784
 4785TIP3    H235847   5.463   6.030  15.509  1.6745  0.4515 -0.5378
 4786TIP3   OH235848   2.883   1.561  14.459  0.4332  0.2458  0.7417
 4786TIP3    H135849   2.875   1.636  14.518  1.3156  0.7798  0.2044
 4786TIP3    H235850   2.799   1.557  14.413 -0.0431  0.1833  1.6010
 4787TIP3   OH235851   3.298   1.593   0.429  0.0582  0.5619 -0.5737
 4787TIP3    H135852   3.214   1.583   0.383 -0.4952  2.9393 -0.2491
 4787TIP3    H235853   3.357   1.627   0.363  0.5355 -0.2926 -0.5910
 4788TIP3   OH235854   0.696   6.426  14.434  0.0905  0.0276  0.1405
 4788TIP3    H135855   0.653   6.346  14.405 -0.8704  0.1571  1.1431
 4788TIP3    H235856   0.777   6.429  14.384 -0.1644 -1.2307 -0.3865
 4789TIP3   OH235857   5.490   3.624   2.963 -0.1593  0.4485 -0.0965
 4789TIP3    H135858   5.398   3.647   2.972 -0.6372 -0.7288 -1.6599
 4789TIP3    H235859   5.508   3.629   2.869  1.0322 -0.5455  0.0415
 4790TIP3   OH235860   0.327   0.248  14.970  0.2833 -0.0216 -0.5822
 4790TIP3    H135861   0.352   0.248  15.063 -0.3169  0.2753 -0.4149
 4790TIP3    H235862   0.374   0.174  14.933  1.4951  0.5747 -0.3079
 4791TIP3   OH235863   4.569   1.478  13.947 -0.2416 -0.0694 -0.3975
 4791TIP3    H135864   4.577   1.383  13.955  0.3872  0.0887  1.2153
 4791TIP3    H235865   4.475   1.494  13.943 -0.4530 -0.6407  1.5451
 4792TIP3   OH235866   1.557   6.561  10.506 -0.5163  0.5043  0.0192
 4792TIP3    H135867   1.467   6.546  10.533  0.3776  0.6254  3.5106
 4792TIP3    H235868   1.598   6.474  10.507 -0.4465  0.5011 -1.1618
 4793TIP3   OH235869   6.292   3.536   0.512  0.3682 -0.1714 -0.6203
 4793TIP3    H135870   6.267   3.507   0.424  3.2051  2.7256 -2.6128
 4793TIP3    H235871   6.213   3.579   0.546 -0.4740 -0.4073 -2.1805
 4794TIP3   OH235872   4.023   0.100  13.300 -0.0880  0.5514 -0.3642
 4794TIP3    H135873   3.958   0.152  13.254  0.5444  0.3228 -1.5567
 4794TIP3    H235874   3.976   0.020  13.325 -0.6295  0.9924  0.0642
 4795TIP3   OH235875   6.494   2.585   3.011 -0.5117 -0.3450  0.6418
 4795TIP3    H135876   6.586   2.591   2.985 -0.4163  2.4382  1.3866
 4795TIP3    H235877   6.446   2.624   2.937 -0.8196  0.9107  1.4780
 4796TIP3   OH235878   3.699   2.029  13.735  0.5958  0.0658  0.0072
 4796TIP3    H135879   3.622   2.006  13.684  1.0426 -0.7313 -0.3219
 4796TIP3    H235880   3.746   2.092  13.679  0.4051  0.2295  0.0285
 4797TIP3   OH235881   0.807   4.288  14.418 -0.1144  0.4231 -0.2695
 4797TIP3    H135882   0.762   4.206  14.395 -1.5239  1.3185 -0.8290
 4797TIP3    H235883   0.900   4.265  14.420 -0.1661 -0.5231 -3.5659
 4798TIP3   OH235884   3.709   5.446  17.243 -0.0584  0.5526 -0.0053
 4798TIP3    H135885   3.713   5.372  17.182  2.5906  1.9968 -1.8004
 4798TIP3    H235886   3.627   5.433  17.291 -0.4248 -2.7044 -1.2377
 4799TIP3   OH235887   6.123   5.394   2.125 -0.6938  0.1999  0.0501
 4799TIP3    H135888   6.033   5.379   2.155  0.3865 -0.6399  3.2428
 4799TIP3    H235889   6.172   5.318   2.157  0.9308 -0.2449 -3.1259
 4800TIP3   OH235890   4.664   0.026   2.630 -0.1509  0.2039  0.0854
 4800TIP3    H135891   4.725  -0.014   2.568  0.0434 -0.3629  0.6358
 4800TIP3    H235892   4.658   0.118   2.602 -1.1332 -0.3241 -1.6103
 4801TIP3   OH235893   0.065   4.719  10.561 -0.2202 -0.1488  0.5020
 4801TIP3    H135894   0.043   4.634  10.600 -1.0611 -0.1401  0.0690
 4801TIP3    H235895  -0.015   4.770  10.568  0.4028  0.7707  1.1405
 4802TIP3   OH235896   5.598   5.507  15.428 -0.5079  0.5128 -0.4624
 4802TIP3    H135897   5.560   5.536  15.511 -1.3585  0.2637 -0.7633
 4802TIP3    H235898   5.541   5.544  15.361  0.5835  1.3284 -0.9767
 4803TIP3   OH235899   1.328   5.025  14.550  0.1206 -0.2433  0.4592
 4803TIP3    H135900   1.284   5.043  14.633  1.6859 -0.3537  1.3673
 4803TIP3    H235901   1.407   4.977  14.576 -0.0727 -1.5457 -1.2394
 4804TIP3   OH235902   5.253   2.743   2.735 -0.0131  0.4314  0.2003
 4804TIP3    H135903   5.198   2.758   2.658  0.7702  0.3991 -0.3727
 4804TIP3    H235904   5.233   2.815   2.794 -0.4877  0.5510 -0.1028
 4805TIP3   OH235905   0.873   4.625   2.426  0.5399 -0.0094 -0.2356
 4805TIP3    H135906   0.869   4.530   2.419 -2.2226  0.0028  0.1614
 4805TIP3    H235907   0.809   4.657   2.361 -2.2539  1.2959  2.8599
 4806TIP3   OH235908   5.024   5.035   2.135 -0.1811  0.2025  0.1660
 4806TIP3    H135909   5.062   5.041   2.047 -0.0537 -1.7625  0.0502
 4806TIP3    H235910   5.095   5.063   2.193  0.5125 -0.6788 -0.2339
 4807TIP3   OH235911   0.461   0.021  14.803 -0.0848 -0.4931  0.0898
 4807TIP3    H135912   0.552  -0.007  14.803  0.3828  0.9680 -0.2048
 4807TIP3    H235913   0.432   0.011  14.712 -0.4588 -1.6304  0.3142
 4808TIP3   OH235914   0.332   5.344   4.078  0.1930 -0.9770  0.7050
 4808TIP3    H135915   0.326   5.316   3.987  1.1290 -1.2002  0.6957
 4808TIP3    H235916   0.253   5.310   4.120 -1.1039  0.5618 -0.3665
 4809TIP3   OH235917   6.202   2.220   2.530  0.6329 -0.0416 -0.1885
 4809TIP3    H135918   6.276   2.213   2.470  1.9022  1.5342  1.0899
 4809TIP3    H235919   6.222   2.158   2.600  0.0786 -0.5389 -0.4596
 4810TIP3   OH235920   1.214   0.785   0.852 -0.2309 -0.5529  0.1608
 4810TIP3    H135921   1.159   0.853   0.813 -1.3386 -0.5319  1.6768
 4810TIP3    H235922   1.291   0.781   0.795  0.1648  2.4008  0.3043
 4811TIP3   OH235923   2.480   2.691   3.863 -0.1225 -0.6204  0.0988
 4811TIP3    H135924   2.416   2.762   3.864 -2.4513 -2.5906  1.5765
 4811TIP3    H235925   2.495   2.672   3.956  1.2526 -1.4036 -0.2589
 4812TIP3   OH235926   5.195   1.458  13.299  0.2795  0.3113 -0.3941
 4812TIP3    H135927   5.264   1.511  13.259  0.1278 -0.7351 -2.1578
 4812TIP3    H235928   5.121   1.465  13.239 -0.4501 -0.2284  0.4168
 4813TIP3   OH235929   0.031   0.586   0.496 -0.1323  0.2225 -0.3196
 4813TIP3    H135930   0.118   0.565   0.530  0.3583  1.5659 -0.6749
 4813TIP3    H235931   0.040   0.675   0.463 -1.6091  0.3090 -0.5201
 4814TIP3   OH235932   0.421   4.730  15.943 -0.3763 -0.5827 -0.5451
 4814TIP3    H135933   0.362   4.735  16.018 -0.8738 -0.1935 -0.9558
 4814TIP3    H235934   0.379   4.783  15.876  0.6797  0.0970 -0.6885
 4815TIP3   OH235935   5.919   4.174   1.448 -0.1748 -0.0206  0.0692
 4815TIP3    H135936   5.851   4.237   1.471 -1.2112 -0.7754 -0.8136
 4815TIP3    H235937   5.985   4.184   1.517 -1.3187  0.5180  1.1298
 4816TIP3   OH235938   1.694   3.836   2.513 -0.6383  0.8146 -0.0446
 4816TIP3    H135939   1.701   3.844   2.418 -1.7276 -2.4819 -0.5389
 4816TIP3    H235940   1.600   3.827   2.530 -0.3949  0.4423  1.2189
 4817TIP3   OH235941   2.653   3.545   5.158  0.0508 -0.0751  0.4881
 4817TIP3    H135942   2.718   3.553   5.088  0.4591 -0.8146  0.7756
 4817TIP3    H235943   2.682   3.470   5.209 -1.2725 -0.6897  0.3708
 4818TIP3   OH235944   0.800   0.297   4.438  0.5072 -0.2798 -0.0695
 4818TIP3    H135945   0.808   0.366   4.371  0.5415 -1.1642 -0.9980
 4818TIP3    H235946   0.722   0.321   4.488 -0.3138 -0.3313 -1.2923
 4819TIP3   OH235947   4.726   3.508   3.766  0.1875 -0.0009  0.3920
 4819TIP3    H135948   4.733   3.422   3.808  0.8981  0.3402  0.9886
 4819TIP3    H235949   4.707   3.569   3.837  1.0639  0.5330  0.1786
 4820TIP3   OH235950   4.476   4.423   5.542 -0.2484  0.4636 -0.8711
 4820TIP3    H135951   4.429   4.403   5.623 -0.2820  1.8231 -0.5276
 4820TIP3    H235952   4.552   4.365   5.543  0.1861  1.0161  0.5593
 4821TIP3   OH235953   4.403   5.528  13.042 -0.2705  0.4356 -0.1641
 4821TIP3    H135954   4.315   5.562  13.052 -0.9855 -1.2141 -0.5295
 4821TIP3    H235955   4.450   5.559  13.120 -1.7456 -0.3523  1.0847
 4822TIP3   OH235956   5.651   2.972   4.788 -0.0884 -0.0322 -0.2678
 4822TIP3    H135957   5.683   3.060   4.768  0.4467 -0.4044 -1.1200
 4822TIP3    H235958   5.618   2.978   4.877  0.0004  1.0171 -0.2896
 4823TIP3   OH235959   4.892   2.166  15.154  0.4625  0.5919 -0.2194
 4823TIP3    H135960   4.971   2.220  15.148  0.6880  0.3946  0.8363
 4823TIP3    H235961   4.844   2.203  15.228  1.0061 -1.1306  1.0535
 4824TIP3   OH235962   3.201   2.917  14.954 -0.5865 -0.1040  0.1098
 4824TIP3    H135963   3.261   2.989  14.972  0.7622 -0.8967 -0.9907
 4824TIP3    H235964   3.166   2.893  15.040  1.2485 -0.0993  0.8995
 4825TIP3   OH235965   4.925   1.740   4.675 -0.3386  0.0849 -0.4224
 4825TIP3    H135966   4.920   1.670   4.740 -0.2230 -1.9611 -2.4795
 4825TIP3    H235967   5.002   1.791   4.699  0.4263 -1.3978  0.3254
 4826TIP3   OH235968   4.584   6.120   1.995 -0.6264 -0.3596  0.0983
 4826TIP3    H135969   4.517   6.068   2.039 -0.1709 -1.1662 -0.1432
 4826TIP3    H235970   4.661   6.063   1.992 -1.4777 -1.7378 -4.5779
 4827TIP3   OH235971   6.135   2.739  11.254  0.0932  0.1351 -0.0145
 4827TIP3    H135972   6.179   2.738  11.338 -0.4544 -0.4861  0.2758
 4827TIP3    H235973   6.191   2.686  11.197 -0.0075 -0.2351  0.2214
 4828TIP3   OH235974   3.353   0.026  10.474 -0.2274 -0.4101  0.2184
 4828TIP3    H135975   3.439   0.054  10.445 -1.6172  1.5763 -2.4491
 4828TIP3    H235976   3.346   0.059  10.563  0.6186  2.4434 -0.6389
 4829TIP3   OH235977   4.763   3.705   0.271  0.1640  0.0760 -0.2010
 4829TIP3    H135978   4.760   3.621   0.317 -2.8040  0.3206  0.2062
 4829TIP3    H235979   4.767   3.770   0.341 -0.4963  0.3369 -0.3973
 4830TIP3   OH235980   6.369   0.117   1.445 -0.2374 -0.1884  0.2662
 4830TIP3    H135981   6.321   0.094   1.524 -1.0913  0.5447 -0.0177
 4830TIP3    H235982   6.370   0.036   1.394 -3.3854  0.3083 -0.8192
 4831TIP3   OH235983   0.029   2.071   4.722 -0.0327  0.3079 -0.7331
 4831TIP3    H135984   0.040   2.153   4.675  1.2343  0.4969 -0.1529
 4831TIP3    H235985  -0.020   2.015   4.662 -1.2084  1.5774 -1.0080
 4832TIP3   OH235986   1.763   4.057  15.504 -0.2927 -0.0322 -0.0690
 4832TIP3    H135987   1.806   4.038  15.421 -0.8659  0.6568 -0.5364
 4832TIP3    H235988   1.680   4.010  15.499 -1.7404  2.4784 -1.2479
 4833TIP3   OH235989   5.584   5.044  16.980  0.4172 -0.5462  0.1262
 4833TIP3    H135990   5.496   5.037  16.943  0.0309  0.0194  0.9203
 4833TIP3    H235991   5.584   4.984  17.055  1.1179 -1.4946 -0.6003
 4834TIP3   OH235992   4.606   2.002   2.763  0.0201  0.0163 -0.5543
 4834TIP3    H135993   4.638   2.088   2.790 -1.5129  0.6576 -0.6739
 4834TIP3    H235994   4.685   1.952   2.743  0.9295  1.5249 -0.9016
 4835TIP3   OH235995   0.013   2.435  16.115 -0.1496  0.1145 -0.4327
 4835TIP3    H135996   0.072   2.500  16.152 -1.5282  1.7667 -0.9917
 4835TIP3    H235997  -0.063   2.435  16.173 -1.3527  1.0770 -1.9172
 4836TIP3   OH235998   3.019   0.361  13.047  0.5123  0.3392 -0.2413
 4836TIP3    H135999   2.995   0.270  13.028  3.7788 -0.7195 -0.0045
 4836TIP3    H236000   3.114   0.358  13.059  0.5675  3.5949  1.1047
 4837TIP3   OH236001   4.133   4.498   4.484  0.0653  0.5482  0.2091
 4837TIP3    H136002   4.192   4.493   4.560 -0.1888  3.4364  0.7247
 4837TIP3    H236003   4.191   4.519   4.410 -0.1926  4.1174  0.8415
 4838TIP3   OH236004   0.101   4.172   2.320  0.4033  0.2079  0.4183
 4838TIP3    H136005   0.143   4.111   2.259  0.7463 -0.2512  1.0904
 4838TIP3    H236006   0.103   4.126   2.404 -0.9205  0.4264  0.5956
 4839TIP3   OH236007   3.139   0.217   1.790 -0.1162 -0.2730 -0.2933
 4839TIP3    H136008   3.205   0.285   1.775 -1.7856  0.9847 -2.3702
 4839TIP3    H236009   3.075   0.229   1.720 -2.9866 -0.9232  2.0254
 4840TIP3   OH236010   3.709   1.484  16.111  0.0359 -0.3370 -0.4121
 4840TIP3    H136011   3.631   1.532  16.081 -1.2046 -1.7132  0.5033
 4840TIP3    H236012   3.708   1.404  16.060 -1.6941 -2.3883  2.5401
 4841TIP3   OH236013   4.498   5.829  10.218 -0.4666 -0.4522 -0.6536
 4841TIP3    H136014   4.558   5.786  10.158  0.5920  0.5327 -0.3534
 4841TIP3    H236015   4.555   5.883  10.274 -1.6488  0.8016 -0.5935
 4842TIP3   OH236016   5.218   3.146   5.501  0.3627  0.1076 -0.6301
 4842TIP3    H136017   5.269   3.209   5.450  1.3151  0.9267  1.2270
 4842TIP3    H236018   5.130   3.183   5.504  0.9419  1.4580  0.5510
 4843TIP3   OH236019   0.604   5.411   5.614  0.5259 -0.2612 -0.2335
 4843TIP3    H136020   0.666   5.483   5.626 -2.0524  1.6464  4.5641
 4843TIP3    H236021   0.644   5.336   5.657  0.5285  0.2548  0.6717
 4844TIP3   OH236022   4.682   4.078   5.005  0.1123 -0.1274 -0.0034
 4844TIP3    H136023   4.763   4.037   4.975 -0.5992 -0.8900 -0.9393
 4844TIP3    H236024   4.616   4.009   5.000 -0.4742  0.2907  1.4083
 4845TIP3   OH236025   4.715   0.178  16.648  0.2654 -0.0564  0.2226
 4845TIP3    H136026   4.766   0.099  16.664  0.1894 -0.1133  0.1886
 4845TIP3    H236027   4.624   0.151  16.665  0.4210  0.6123  2.4705
 4846TIP3   OH236028   5.937   4.948   2.219  0.0374 -0.1664  0.0286
 4846TIP3    H136029   5.934   5.036   2.181  1.8289 -0.7880 -1.7016
 4846TIP3    H236030   5.931   4.889   2.144  0.3050 -1.5060  1.0224
 4847TIP3   OH236031   3.293   5.844  14.962 -0.2003  0.0496 -0.0231
 4847TIP3    H136032   3.357   5.908  14.933  0.8421 -1.1721 -0.5272
 4847TIP3    H236033   3.308   5.834  15.056  0.0373  0.1079 -0.0567
 4848TIP3   OH236034   2.897   4.946  14.282 -1.0134 -0.8191  0.6074
 4848TIP3    H136035   2.839   4.995  14.223  1.8578  3.0853  0.6013
 4848TIP3    H236036   2.938   4.880  14.226 -0.3264  1.0291 -1.2075
 4849TIP3   OH236037   1.665   2.031   6.001  0.2154 -0.3273  0.1130
 4849TIP3    H136038   1.666   2.030   6.097 -1.4556  0.6191  0.1702
 4849TIP3    H236039   1.738   2.088   5.977  0.1999  0.0027  0.8276
 4850TIP3   OH236040   5.780   0.760   1.015  0.3824 -0.3081 -0.1860
 4850TIP3    H136041   5.814   0.813   1.087 -0.2014 -0.7569  0.4418
 4850TIP3    H236042   5.717   0.701   1.057  1.5455 -2.0109 -0.7346
 4851TIP3   OH236043   2.535   3.527  13.102 -0.2416 -0.2775 -0.0907
 4851TIP3    H136044   2.575   3.611  13.078 -0.1935 -0.2847 -0.0352
 4851TIP3    H236045   2.579   3.463  13.047 -0.1978 -0.2815 -0.0501
 4852TIP3   OH236046   4.080   1.336  14.041  0.6820  0.3211 -0.0244
 4852TIP3    H136047   4.035   1.298  13.965 -0.3917  1.1709  0.1660
 4852TIP3    H236048   4.072   1.269  14.109 -0.6338  0.5914  0.1162
 4853TIP3   OH236049   5.958   2.233   6.583 -0.5227 -0.3870 -0.3048
 4853TIP3    H136050   5.895   2.299   6.554  0.8245  2.0868  2.0365
 4853TIP3    H236051   5.904   2.163   6.621 -1.9231 -0.0932 -1.6373
 4854TIP3   OH236052   0.638   2.765   2.013  0.3583 -0.2858  0.8050
 4854TIP3    H136053   0.671   2.829   1.949 -0.1740  0.3695  1.1751
 4854TIP3    H236054   0.551   2.797   2.035  0.8374 -0.0494  2.4666
 4855TIP3   OH236055   3.547   2.446  14.850 -0.4111 -0.3201 -0.5298
 4855TIP3    H136056   3.569   2.426  14.941  0.2367 -0.2667 -0.6674
 4855TIP3    H236057   3.629   2.480  14.813 -1.3052  2.0741 -0.4709
 4856TIP3   OH236058   5.161   5.076   5.708  0.5469  0.1633  0.1436
 4856TIP3    H136059   5.253   5.100   5.691  1.3176 -1.4973  1.6764
 4856TIP3    H236060   5.148   4.995   5.658 -0.4270  0.9019 -0.8464
 4857TIP3   OH236061   6.233   2.092   3.122  0.0766 -0.7012 -0.3210
 4857TIP3    H136062   6.260   2.183   3.133  0.7069 -0.7956 -1.0044
 4857TIP3    H236063   6.152   2.085   3.172  0.7661 -0.1397  0.9289
 4858TIP3   OH236064   0.843   6.625   1.221  0.4170  0.1265  0.2967
 4858TIP3    H136065   0.898   6.559   1.180  0.0428  0.0025 -0.0163
 4858TIP3    H236066   0.761   6.622   1.172  0.6096  1.2533 -0.1257
 4859TIP3   OH236067   1.371   5.811   0.255 -0.5204 -0.1312 -0.6850
 4859TIP3    H136068   1.285   5.852   0.267 -0.9275 -1.2281  0.2902
 4859TIP3    H236069   1.351   5.719   0.238  0.4948 -0.6486  0.7875
 4860TIP3   OH236070   2.567   0.838   6.464  0.1086  0.5308 -0.2186
 4860TIP3    H136071   2.548   0.788   6.543 -1.1629  0.6606 -0.4258
 4860TIP3    H236072   2.517   0.795   6.395 -0.4085  1.6282 -0.5503
 4861TIP3   OH236073   1.543   3.961  15.649  0.2204  0.0625  0.3414
 4861TIP3    H136074   1.556   3.879  15.602  0.3653  0.0463  0.4062
 4861TIP3    H236075   1.479   3.940  15.717  2.5787 -0.8633  2.4309
 4862TIP3   OH236076   3.765   1.963   5.520  0.5231  0.9645  0.2603
 4862TIP3    H136077   3.739   1.879   5.483  1.3117  1.3404 -1.2300
 4862TIP3    H236078   3.716   2.028   5.469  0.8237  1.4561  0.5857
 4863TIP3   OH236079   3.270   1.179   4.546 -0.1856 -0.2758 -0.2926
 4863TIP3    H136080   3.272   1.240   4.472 -1.3330 -0.3598 -0.4060
 4863TIP3    H236081   3.223   1.227   4.615 -0.4535 -0.7590 -0.1378
 4864TIP3   OH236082   1.083   4.601  11.380  0.5893 -0.2203  0.3233
 4864TIP3    H136083   1.024   4.530  11.408  0.6539 -0.3546  0.1220
 4864TIP3    H236084   1.165   4.557  11.361  0.9263  0.0380  1.1208
 4865TIP3   OH236085   2.550   0.093  11.689  0.2671 -0.2817  1.0053
 4865TIP3    H136086   2.479   0.149  11.720 -0.6172 -1.1221  0.5373
 4865TIP3    H236087   2.626   0.152  11.684 -1.2790  1.7189 -2.4451
 4866TIP3   OH236088   2.385   1.142   3.986  0.4123  0.1209 -0.0490
 4866TIP3    H136089   2.296   1.128   3.954 -0.3387  0.1566  1.8785
 4866TIP3    H236090   2.433   1.063   3.960 -0.5814 -0.5850  0.2018
 4867TIP3   OH236091   3.731   3.895  15.888  0.4955 -0.1200  0.3264
 4867TIP3    H136092   3.773   3.904  15.802 -1.2384  0.9661 -0.4593
 4867TIP3    H236093   3.730   3.984  15.923 -1.0442 -0.1224  0.3514
 4868TIP3   OH236094   5.092   5.800  17.128 -0.1998 -0.0857  0.2332
 4868TIP3    H136095   5.171   5.846  17.100  0.2975 -0.8654  0.3296
 4868TIP3    H236096   5.034   5.870  17.160  0.0264  0.5983 -0.7926
 4869TIP3   OH236097   1.803   3.082   5.691 -0.1733  0.3159  0.1472
 4869TIP3    H136098   1.777   3.172   5.670  0.7769  0.9857  1.6121
 4869TIP3    H236099   1.749   3.027   5.635 -1.3346  1.7756 -0.2284
 4870TIP3   OH236100   5.363   0.743   1.513  0.0913  0.0946  0.0568
 4870TIP3    H136101   5.341   0.656   1.545  1.1090 -0.7907 -1.5167
 4870TIP3    H236102   5.429   0.775   1.575 -0.8709  0.1272  1.1107
 4871TIP3   OH236103   3.084   1.891   4.376 -0.0630  0.0475  0.5932
 4871TIP3    H136104   3.089   1.817   4.436  1.0165 -0.4968 -0.1291
 4871TIP3    H236105   3.030   1.859   4.303  1.0127 -0.2959 -0.0647
 4872TIP3   OH236106   5.366   2.942  17.133  0.0928 -0.0701 -0.0072
 4872TIP3    H136107   5.456   2.954  17.163  1.1148 -1.4763 -2.2604
 4872TIP3    H236108   5.373   2.932  17.038 -2.1328 -2.5795 -0.0387
 4873TIP3   OH236109   0.008   3.641   5.085 -0.3210 -0.5483 -0.3706
 4873TIP3    H136110   0.097   3.662   5.056 -0.5687  3.4090  1.0913
 4873TIP3    H236111  -0.048   3.678   5.017 -0.8026  1.1144  0.8701
 4874TIP3   OH236112   3.403   4.324  12.089  0.3065  0.6736  0.7643
 4874TIP3    H136113   3.338   4.366  12.032 -1.1333 -2.9528 -0.5866
 4874TIP3    H236114   3.487   4.354  12.056 -0.6025  2.0129 -0.4577
 4875TIP3   OH236115   2.597   1.513  11.836 -0.2003 -0.0194 -0.6941
 4875TIP3    H136116   2.689   1.494  11.820  0.1278  1.6858 -1.0707
 4875TIP3    H236117   2.567   1.557  11.756 -0.8986  0.8360  0.0103
 4876TIP3   OH236118   3.030   5.519   3.568 -0.3165  0.0786 -0.2685
 4876TIP3    H136119   3.106   5.508   3.624 -0.6043 -0.2513  0.0677
 4876TIP3    H236120   2.979   5.439   3.581 -0.5316  0.1323 -0.7731
 4877TIP3   OH236121   6.459   5.936  12.168  0.6354  0.2720 -0.4294
 4877TIP3    H136122   6.393   5.867  12.157 -0.0150  0.9808 -1.1445
 4877TIP3    H236123   6.522   5.919  12.099  0.5561  0.3053 -0.5100
 4878TIP3   OH236124   2.968   5.950   3.104  0.1840  0.3713 -0.1392
 4878TIP3    H136125   2.990   6.028   3.156  0.0829 -0.5889  1.3916
 4878TIP3    H236126   2.998   5.972   3.016 -0.6681  2.5101  0.0418
 4879TIP3   OH236127   4.792   5.450  11.556 -0.2647  0.9387 -0.1750
 4879TIP3    H136128   4.750   5.435  11.641 -0.3298 -1.9991 -0.6342
 4879TIP3    H236129   4.738   5.403  11.493  0.7184  1.6595 -1.6173
 4880TIP3   OH236130   0.638   3.122  13.738  0.3828 -0.0486 -0.1344
 4880TIP3    H136131   0.571   3.161  13.682  1.0971  2.0685  0.4134
 4880TIP3    H236132   0.594   3.111  13.823  0.4092  0.3589 -0.0646
 4881TIP3   OH236133   6.608   1.390  13.126 -0.2295 -0.4536  0.4796
 4881TIP3    H136134   6.646   1.398  13.039 -0.9214 -0.0239  0.2062
 4881TIP3    H236135   6.669   1.335  13.175  1.0603  0.7413  0.2543
 4882TIP3   OH236136   2.388   2.987   2.714  0.1743  0.5215  0.3163
 4882TIP3    H136137   2.460   2.958   2.771 -0.3696 -0.9533  0.2984
 4882TIP3    H236138   2.427   3.053   2.657  1.2479  0.4929  0.9894
 4883TIP3   OH236139   3.821   3.510  15.524 -0.2960  0.1289  0.1723
 4883TIP3    H136140   3.764   3.488  15.450  1.7023 -0.9009 -1.1356
 4883TIP3    H236141   3.890   3.564  15.486  0.0700  0.6601  1.5564
 4884TIP3   OH236142   2.194   2.991  11.089  0.1301 -0.1319  0.1919
 4884TIP3    H136143   2.109   2.959  11.060 -0.1406 -0.1896  1.0362
 4884TIP3    H236144   2.207   3.071  11.038 -0.7100  0.2049  0.4779
 4885TIP3   OH236145   0.949   4.758   1.798 -0.5179  0.0173  0.4403
 4885TIP3    H136146   0.912   4.684   1.750 -0.4483 -0.3742  0.9682
 4885TIP3    H236147   1.042   4.738   1.805 -0.7383 -0.6577  1.9495
 4886TIP3   OH236148   6.269   2.588   2.036 -0.5027  0.8859  0.7301
 4886TIP3    H136149   6.244   2.498   2.057  1.6258 -0.0255 -0.3670
 4886TIP3    H236150   6.237   2.601   1.947  3.5557 -0.7422 -1.2056
 4887TIP3   OH236151   1.778   6.120   0.191  0.2091  0.0469  0.4366
 4887TIP3    H136152   1.769   6.214   0.211  1.9173  0.4361 -0.4741
 4887TIP3    H236153   1.690   6.093   0.166 -0.3915  1.3256  1.0572
 4888TIP3   OH236154   0.804   5.110   3.147 -0.5721 -0.0097 -0.4538
 4888TIP3    H136155   0.725   5.164   3.153 -0.5128 -0.0508  1.2094
 4888TIP3    H236156   0.812   5.088   3.054 -2.1157  0.5755 -0.7455
 4889TIP3   OH236157   3.903   3.148  15.015 -0.1229 -0.2128 -0.0383
 4889TIP3    H136158   3.862   3.195  14.943  0.6727 -1.7759 -1.6100
 4889TIP3    H236159   3.985   3.194  15.031 -0.2357  0.0545 -0.2242
 4890TIP3   OH236160   2.355   6.232   2.377 -0.5397  0.2818  0.2616
 4890TIP3    H136161   2.291   6.231   2.306 -1.1671  0.5228  0.8111
 4890TIP3    H236162   2.438   6.257   2.335 -0.5702 -1.0072 -0.6313
 4891TIP3   OH236163   2.274   3.596   0.529 -0.1350 -0.3492 -0.2494
 4891TIP3    H136164   2.199   3.625   0.478 -0.0795  1.1544  0.4749
 4891TIP3    H236165   2.340   3.664   0.515  0.9874 -1.4730 -0.6015
 4892TIP3   OH236166   0.128   5.901  11.739 -0.1879  0.2592  0.0442
 4892TIP3    H136167   0.132   5.806  11.729 -2.2344  0.2841 -1.5695
 4892TIP3    H236168   0.211   5.924  11.782  0.4253 -2.2089  0.3179
 4893TIP3   OH236169   1.299   0.750   2.819  0.0632 -0.1512 -0.1868
 4893TIP3    H136170   1.290   0.676   2.879 -1.0235 -0.4630 -0.7021
 4893TIP3    H236171   1.365   0.722   2.756  1.3708  0.2588  0.9491
 4894TIP3   OH236172   5.213   4.216  11.079  0.4092 -0.3024 -1.0988
 4894TIP3    H136173   5.223   4.141  11.020  0.2107 -0.2873 -1.1493
 4894TIP3    H236174   5.190   4.289  11.022  0.1793 -0.2959 -1.0004
 4895TIP3   OH236175   2.633   5.627  13.274  0.1203 -0.1164  0.3811
 4895TIP3    H136176   2.701   5.693  13.291  2.4390 -2.1390 -0.4160
 4895TIP3    H236177   2.553   5.667  13.306  1.5321  2.7246  0.7408
 4896TIP3   OH236178   0.319   3.225  12.735 -0.2213  0.0243  0.2237
 4896TIP3    H136179   0.343   3.185  12.819 -1.0333 -1.6356 -0.2889
 4896TIP3    H236180   0.240   3.275  12.755 -0.7110 -0.7846  0.3607
 4897TIP3   OH236181   3.825   1.353  14.918  0.5169 -0.2683 -0.0279
 4897TIP3    H136182   3.873   1.384  14.841  2.3342 -0.1419  1.0934
 4897TIP3    H236183   3.890   1.353  14.989 -1.3761  0.8746  1.8504
 4898TIP3   OH236184   0.478   1.291  15.983  0.3118  0.3602  0.9521
 4898TIP3    H136185   0.479   1.202  15.948  0.1926 -0.3443  2.6549
 4898TIP3    H236186   0.503   1.346  15.908  0.1140 -1.0566 -0.2053
 4899TIP3   OH236187   1.517   5.149   1.439 -0.1739 -0.0186  0.2677
 4899TIP3    H136188   1.491   5.152   1.347 -0.7640  1.2304  0.4571
 4899TIP3    H236189   1.446   5.104   1.483  0.5742 -1.5468 -0.0038
 4900TIP3   OH236190   4.832   3.469   5.360  0.6988 -0.1910 -0.2997
 4900TIP3    H136191   4.828   3.564   5.373  2.5046  0.0397 -1.1815
 4900TIP3    H236192   4.757   3.450   5.304  0.9968  0.9084 -1.1043
 4901TIP3   OH236193   5.838   6.143  17.051 -0.5476  0.5556  0.2399
 4901TIP3    H136194   5.913   6.186  17.091 -0.6295  2.1179 -1.1806
 4901TIP3    H236195   5.848   6.050  17.074  0.6941  1.0213  1.7513
 4902TIP3   OH236196   0.862   0.487  16.034 -0.3598  0.4254  0.4294
 4902TIP3    H136197   0.777   0.486  16.076 -2.1445 -0.5194 -2.8592
 4902TIP3    H236198   0.906   0.565  16.069 -1.4761 -0.4147  4.0452
 4903TIP3   OH236199   1.359   6.106   5.869 -0.1843  0.0194  0.3038
 4903TIP3    H136200   1.402   6.032   5.827  0.5189  0.6399 -0.0867
 4903TIP3    H236201   1.364   6.086   5.963 -2.6834 -1.8848  0.1516
 4904TIP3   OH236202   3.527   3.714   2.446 -0.2853  0.1519  0.0227
 4904TIP3    H136203   3.570   3.759   2.374  1.1241  0.2137  0.8722
 4904TIP3    H236204   3.575   3.741   2.524  0.4337 -2.5213  0.6102
 4905TIP3   OH236205   3.775   2.418  13.210  0.3750  0.1083  0.4569
 4905TIP3    H136206   3.727   2.345  13.250  1.7328 -0.8913  0.3606
 4905TIP3    H236207   3.708   2.483  13.191 -0.5856 -0.1402  2.6571
 4906TIP3   OH236208   4.527   0.033   4.814  0.1330 -0.1842 -0.2340
 4906TIP3    H136209   4.563   0.085   4.742  0.0293  0.6995  0.3455
 4906TIP3    H236210   4.517   0.095   4.886 -0.5018 -0.8913  0.2997
 4907TIP3   OH236211   1.195   3.111  12.485  0.1386  1.3824 -0.4465
 4907TIP3    H136212   1.143   3.047  12.532  2.5147 -1.6685 -1.5894
 4907TIP3    H236213   1.171   3.195  12.523 -1.7824 -0.3377  2.5068
 4908TIP3   OH236214   3.857   6.517   2.384 -0.5857 -0.4408  0.2135
 4908TIP3    H136215   3.826   6.605   2.402 -1.3355 -0.6116 -0.2144
 4908TIP3    H236216   3.926   6.502   2.449 -1.2413  0.0295  1.0336
 4909TIP3   OH236217   2.858   2.074   2.630  0.2593  0.0598 -0.0408
 4909TIP3    H136218   2.916   2.068   2.554  0.0669 -0.5505 -0.1537
 4909TIP3    H236219   2.856   1.985   2.665 -0.1851  0.1907  0.2785
 4910TIP3   OH236220   0.349   1.824   3.542 -0.2999 -0.4197 -0.4334
 4910TIP3    H136221   0.263   1.848   3.509 -0.8130 -2.4844 -0.7134
 4910TIP3    H236222   0.333   1.753   3.604  1.2251 -1.4554 -1.1389
 4911TIP3   OH236223   0.984   3.930  12.259  0.6741  0.2116 -0.1452
 4911TIP3    H136224   0.947   3.970  12.181  0.4733  1.0344  0.3638
 4911TIP3    H236225   0.941   3.974  12.332 -0.7709 -2.0373  0.4647
 4912TIP3   OH236226   2.448   5.307  12.358  0.2095 -0.2405  0.5469
 4912TIP3    H136227   2.381   5.304  12.425 -0.8139  1.1615 -0.3510
 4912TIP3    H236228   2.399   5.315  12.276  1.4612  0.2706 -0.1735
 4913TIP3   OH236229   2.034   4.653   4.781  0.7503  0.3382 -0.8490
 4913TIP3    H136230   2.020   4.612   4.866  1.6497 -0.3494 -1.0213
 4913TIP3    H236231   2.074   4.737   4.802 -1.8054  1.5772 -0.4500
 4914TIP3   OH236232   5.152   6.511  12.754  0.3676 -0.2548 -0.4807
 4914TIP3    H136233   5.065   6.480  12.776  0.7860 -0.7130  0.6148
 4914TIP3    H236234   5.141   6.605  12.740 -0.0451 -0.0125  1.2529
 4915TIP3   OH236235   1.634   0.269  12.269 -0.1919  0.2206  0.3488
 4915TIP3    H136236   1.674   0.280  12.183 -2.6497 -0.6021 -0.9953
 4915TIP3    H236237   1.550   0.227  12.251  0.0435 -1.8258  3.3506
 4916TIP3   OH236238   0.921   6.093  14.270 -0.2464  0.1862  0.1010
 4916TIP3    H136239   0.996   6.073  14.326  0.9171  3.3324 -0.0993
 4916TIP3    H236240   0.849   6.110  14.332 -0.2875 -0.9044  0.3749
 4917TIP3   OH236241   2.239   2.939  15.120 -0.1215 -0.3739  0.2044
 4917TIP3    H136242   2.170   2.874  15.135  0.5480 -0.7109  2.0911
 4917TIP3    H236243   2.316   2.903  15.165  2.2629 -1.4805 -4.1660
 4918TIP3   OH236244   0.835   5.756   3.138  0.2066  0.0184  0.0504
 4918TIP3    H136245   0.777   5.794   3.072 -0.6062  2.9024  2.2045
 4918TIP3    H236246   0.907   5.818   3.146  1.9220 -1.8540 -0.2447
 4919TIP3   OH236247   3.942   0.847   3.530 -0.7479 -0.0852  0.0024
 4919TIP3    H136248   3.849   0.865   3.543 -1.0126 -1.4905  0.1459
 4919TIP3    H236249   3.946   0.801   3.447  0.0398  1.5246 -0.8943
 4920TIP3   OH236250   6.155   0.483   0.771  0.2242 -0.5352 -0.1806
 4920TIP3    H136251   6.232   0.509   0.822 -0.5742 -1.4769  1.6247
 4920TIP3    H236252   6.188   0.417   0.711  1.1547  0.4088 -0.7377
 4921TIP3   OH236253   4.558   0.724   4.087  0.1527 -0.0793 -0.0299
 4921TIP3    H136254   4.545   0.782   4.012  0.6029 -0.7755 -0.6599
 4921TIP3    H236255   4.523   0.640   4.060 -0.0023 -0.2548  0.6792
 4922TIP3   OH236256   1.906   3.178   4.467  0.4026  0.3666  0.0219
 4922TIP3    H136257   1.885   3.132   4.548  1.4011 -2.7143 -1.3401
 4922TIP3    H236258   1.845   3.143   4.402  1.2032  0.9559 -1.0861
 4923TIP3   OH236259   6.400   4.816   5.590  0.9392  0.0237 -0.3213
 4923TIP3    H136260   6.464   4.885   5.610  2.2972 -0.4866 -2.5604
 4923TIP3    H236261   6.352   4.849   5.515 -0.0860 -0.4725  0.0970
 4924TIP3   OH236262   5.955   4.046  12.912  0.0653 -0.7712 -0.2944
 4924TIP3    H136263   5.933   4.023  13.003  0.8375 -2.5777 -0.5214
 4924TIP3    H236264   5.885   4.006  12.860  0.9399 -1.9307 -0.6324
 4925TIP3   OH236265   0.732   1.068   1.694  0.1950 -0.0163  0.0498
 4925TIP3    H136266   0.683   1.033   1.768  1.2581  1.2441  1.4166
 4925TIP3    H236267   0.813   1.102   1.732  0.4561  1.3454 -1.5709
 4926TIP3   OH236268   1.334   2.049  15.976  0.5241  0.1054  0.7756
 4926TIP3    H136269   1.295   1.963  15.987  3.6081 -1.3063  1.7058
 4926TIP3    H236270   1.368   2.049  15.886 -0.4685  0.8679  0.3743
 4927TIP3   OH236271   5.854   6.485   6.065 -0.4595 -0.6821  0.0089
 4927TIP3    H136272   5.868   6.476   6.159 -1.2779 -0.8153  0.1234
 4927TIP3    H236273   5.760   6.473   6.053 -0.3254 -0.9353 -0.8606
 4928TIP3   OH236274   2.501   4.160  12.281  0.4536  0.3105 -0.2756
 4928TIP3    H136275   2.419   4.185  12.324 -0.4599 -1.9600 -0.5956
 4928TIP3    H236276   2.525   4.237  12.229 -2.3573  0.4641 -1.4854
 4929TIP3   OH236277   1.302   1.760  11.487  0.2252 -0.4216 -0.5325
 4929TIP3    H136278   1.322   1.683  11.433 -0.5212 -2.9037  2.4116
 4929TIP3    H236279   1.384   1.778  11.533 -0.4526 -1.7021  1.2724
 4930TIP3   OH236280   5.924   0.162   5.368  0.1343 -0.1172  0.1436
 4930TIP3    H136281   5.974   0.244   5.361  1.0874 -0.7263 -0.5068
 4930TIP3    H236282   5.975   0.108   5.429  0.0284 -0.5711 -0.1598
 4931TIP3   OH236283   4.458   4.773  15.825  0.8899  0.4201  0.4038
 4931TIP3    H136284   4.510   4.816  15.893  2.6911 -1.0768  0.0663
 4931TIP3    H236285   4.367   4.791  15.849  1.5253  2.5214  1.4472
 4932TIP3   OH236286   2.709   5.838   6.402  0.0105  0.1765  0.4647
 4932TIP3    H136287   2.804   5.831   6.395 -0.0222 -0.1414  0.3073
 4932TIP3    H236288   2.677   5.814   6.315 -0.4247 -4.1493  1.5803
 4933TIP3   OH236289   0.552   0.809  17.222 -0.4259 -0.6298 -0.1239
 4933TIP3    H136290   0.566   0.759  17.141  0.0192 -1.7311  0.6164
 4933TIP3    H236291   0.461   0.791  17.245  0.1987 -2.5241  1.0500
 4934TIP3   OH236292   5.331   3.827  16.046 -0.5249  0.0718  0.4114
 4934TIP3    H136293   5.275   3.822  15.968 -1.3124  0.5452  0.9359
 4934TIP3    H236294   5.275   3.867  16.112  0.7269  1.3786  0.6989
 4935TIP3   OH236295   0.739   2.015  14.848  0.2386 -0.5707 -0.2988
 4935TIP3    H136296   0.791   2.095  14.855 -0.0099 -0.5383  3.1344
 4935TIP3    H236297   0.651   2.046  14.823  0.8141 -0.1731 -1.9535
 4936TIP3   OH236298   0.482   6.672   5.300  0.5996  0.1086 -0.4587
 4936TIP3    H136299   0.522   6.589   5.275 -1.2189 -0.8401 -0.4027
 4936TIP3    H236300   0.403   6.648   5.348 -1.5330  1.7627 -2.8327
 4937TIP3   OH236301   5.581   0.434   2.972  0.4774 -0.6857 -0.2463
 4937TIP3    H136302   5.633   0.501   2.928  0.0045  0.5073  0.9672
 4937TIP3    H236303   5.517   0.482   3.023 -0.6452 -2.0968 -0.2565
 4938TIP3   OH236304   1.195   4.874  12.701 -0.1751 -0.4117 -0.2582
 4938TIP3    H136305   1.118   4.899  12.650  0.4035 -0.1768 -1.0325
 4938TIP3    H236306   1.205   4.780  12.684  0.0085 -0.3367 -0.5759
 4939TIP3   OH236307   1.353   3.237   5.667 -0.0995  0.1491  0.3072
 4939TIP3    H136308   1.446   3.252   5.684  0.2727 -2.9487  1.5727
 4939TIP3    H236309   1.346   3.234   5.572  1.2811 -0.5143  0.2074
 4940TIP3   OH236310   2.426   5.115   5.521  0.1946  0.0618  0.5734
 4940TIP3    H136311   2.452   5.100   5.430 -0.0959 -1.1250  0.6592
 4940TIP3    H236312   2.400   5.028   5.553  0.5558  0.4082  1.8780
 4941TIP3   OH236313   3.984   2.276  14.062 -0.2325  0.4152  0.3056
 4941TIP3    H136314   3.991   2.344  13.995  1.2104  0.4407  0.4358
 4941TIP3    H236315   4.048   2.210  14.035  1.2942  0.9963  2.2699
 4942TIP3   OH236316   3.388   0.299   2.808 -0.5277  0.3309 -0.1063
 4942TIP3    H136317   3.334   0.234   2.854 -0.5376  0.4722  0.0803
 4942TIP3    H236318   3.432   0.348   2.878  0.3937 -0.2460 -0.2554
 4943TIP3   OH236319   1.254   5.681  16.784  0.0848  1.0022  0.5682
 4943TIP3    H136320   1.181   5.707  16.841  0.4088  3.5769 -0.0520
 4943TIP3    H236321   1.260   5.752  16.720  1.3493 -0.5570 -1.1476
 4944TIP3   OH236322   3.557   1.729   1.409  0.2758  0.1721 -0.2602
 4944TIP3    H136323   3.591   1.641   1.423  0.8743  0.2001 -1.4428
 4944TIP3    H236324   3.565   1.743   1.315 -2.3289  0.4682 -0.5110
 4945TIP3   OH236325   3.100   6.483   4.215 -0.3197 -0.0234  0.0179
 4945TIP3    H136326   3.154   6.488   4.293  1.8676  0.8643 -1.4372
 4945TIP3    H236327   3.014   6.516   4.242  0.7692  1.5994  1.7063
 4946TIP3   OH236328   1.359   3.557  15.646 -0.2179  0.5976  0.0247
 4946TIP3    H136329   1.310   3.478  15.670 -1.5220  1.0462 -1.0650
 4946TIP3    H236330   1.445   3.525  15.620 -0.4440 -0.3767  0.4413
 4947TIP3   OH236331   5.982   4.992  11.962  0.4767  0.2267 -0.6260
 4947TIP3    H136332   6.058   4.969  11.908  0.9500  0.8392 -0.2413
 4947TIP3    H236333   5.975   5.087  11.954  0.4040  0.3016  0.1727
 4948TIP3   OH236334   1.130   4.996  12.010  0.0140 -0.0255  0.1859
 4948TIP3    H136335   1.182   5.026  12.085  0.0595 -0.1665  0.2115
 4948TIP3    H236336   1.046   4.970  12.047  1.2239 -3.6476  0.8155
 4949TIP3   OH236337   6.561   5.303   3.436  0.1387 -0.3191 -0.1079
 4949TIP3    H136338   6.529   5.213   3.427 -1.4294  0.0769  1.0127
 4949TIP3    H236339   6.518   5.350   3.365  1.0501 -0.4482 -0.7664
 4950TIP3   OH236340   0.708   6.741  12.979 -0.1018  0.1983  0.7966
 4950TIP3    H136341   0.736   6.832  12.976  2.3990 -0.4916  0.9501
 4950TIP3    H236342   0.719   6.715  13.070  2.4956 -1.1104  0.2006
 4951TIP3   OH236343   2.447   4.636   4.150 -0.2865  0.0573 -0.0192
 4951TIP3    H136344   2.469   4.545   4.173 -0.8078 -0.1075 -0.1592
 4951TIP3    H236345   2.423   4.677   4.233  1.5273  0.5311  0.3015
 4952TIP3   OH236346   2.110   2.354   1.754 -0.0593 -0.1689  0.1842
 4952TIP3    H136347   2.122   2.330   1.846  1.2195 -1.1911 -0.2116
 4952TIP3    H236348   2.060   2.435   1.756  0.7218  0.3022  1.8128
 4953TIP3   OH236349   5.601   3.668   4.476  0.1067  0.8758 -0.1988
 4953TIP3    H136350   5.534   3.674   4.544  1.0960 -2.0828  1.2297
 4953TIP3    H236351   5.675   3.718   4.511  0.8835 -1.2473  1.4125
 4954TIP3   OH236352   3.120   1.590   5.167 -0.6436  0.0319  0.3489
 4954TIP3    H136353   3.210   1.589   5.202  0.6563  0.6504 -2.6857
 4954TIP3    H236354   3.076   1.518   5.213  1.2667 -0.0504  2.1939
 4955TIP3   OH236355   0.005   1.222  13.744  0.3370 -0.0962  0.0608
 4955TIP3    H136356  -0.000   1.267  13.659 -1.2382 -1.4502 -0.6090
 4955TIP3    H236357  -0.008   1.129  13.723  1.1500 -0.6116  1.6694
 4956TIP3   OH236358   1.266   3.795   5.105  0.0944 -0.1430  0.4267
 4956TIP3    H136359   1.317   3.759   5.033 -1.5263 -0.5022 -0.5991
 4956TIP3    H236360   1.235   3.879   5.072  1.6116  1.0082  1.7886
 4957TIP3   OH236361   5.388   5.819   1.922 -0.4454  0.0148 -0.3833
 4957TIP3    H136362   5.417   5.848   2.008 -0.4214  1.5666 -0.8883
 4957TIP3    H236363   5.329   5.888   1.892 -2.7337 -1.8142 -0.4538
 4958TIP3   OH236364   3.594   3.003   0.147 -0.3374 -0.4576 -0.4317
 4958TIP3    H136365   3.550   2.978   0.066 -2.7312  0.6796  0.4078
 4958TIP3    H236366   3.623   3.092   0.132  2.4157 -1.3929 -1.1910
 4959TIP3   OH236367   6.628   2.486  17.052 -0.0730  0.5550  0.0782
 4959TIP3    H136368   6.613   2.413  17.111 -3.4990  2.1226  1.4254
 4959TIP3    H236369   6.608   2.452  16.965  2.0893 -0.9834  0.1044
 4960TIP3   OH236370   4.502   0.740   2.935 -0.3492 -0.4785 -0.2627
 4960TIP3    H136371   4.489   0.832   2.959  0.6748 -0.6620  1.1150
 4960TIP3    H236372   4.435   0.693   2.984  0.5924 -0.6768  0.8620
 4961TIP3   OH236373   6.429   2.789   4.651  0.4254  0.0298 -0.2313
 4961TIP3    H136374   6.415   2.704   4.693  0.0482  0.2563  0.1095
 4961TIP3    H236375   6.440   2.850   4.724  0.5872  0.2939 -0.4733
 4962TIP3   OH236376   2.979   1.500  13.619  0.4084  0.3904  0.1499
 4962TIP3    H136377   2.904   1.447  13.592 -1.5147  2.9762  0.0045
 4962TIP3    H236378   3.051   1.470  13.564 -0.9344 -1.0556 -0.9119
 4963TIP3   OH236379   5.354   6.814  16.327 -0.0992  0.7832  0.2426
 4963TIP3    H136380   5.374   6.725  16.298 -0.4879  0.7211  0.1597
 4963TIP3    H236381   5.352   6.808  16.422 -1.1516  0.4656  0.2198
 4964TIP3   OH236382   5.642   2.904  10.312 -0.5345 -0.3252  0.2345
 4964TIP3    H136383   5.556   2.882  10.277 -0.5212  1.3377 -0.9741
 4964TIP3    H236384   5.698   2.830  10.288 -1.5317 -1.2715  0.7477
 4965TIP3   OH236385   2.958   6.251  14.040 -0.5940  0.3619 -0.1299
 4965TIP3    H136386   2.879   6.244  13.986  0.9526 -0.9956 -2.4275
 4965TIP3    H236387   2.991   6.161  14.046  0.6603  0.8653  0.9436
 4966TIP3   OH236388   0.947   1.477  14.926  0.9734  0.1613  0.3336
 4966TIP3    H136389   0.865   1.428  14.935  0.6251  0.5639 -0.5943
 4966TIP3    H236390   1.010   1.412  14.895  0.8409  0.0067  0.3835
 4967TIP3   OH236391   4.131   1.991  17.017 -0.1792 -0.8518 -0.1575
 4967TIP3    H136392   4.151   2.035  17.100  1.8253 -0.0102 -1.0345
 4967TIP3    H236393   4.094   1.907  17.044  3.3835 -2.0309  1.7456
 4968TIP3   OH236394   3.427   6.088   0.342  0.2783  0.2304  0.6442
 4968TIP3    H136395   3.411   6.131   0.426  0.8854  0.3097  0.7291
 4968TIP3    H236396   3.522   6.074   0.341  0.7361  2.6773 -1.1938
 4969TIP3   OH236397   2.436   3.615  14.851  0.1172  1.0478 -0.2582
 4969TIP3    H136398   2.465   3.556  14.782 -1.0359 -1.7550  1.4839
 4969TIP3    H236399   2.516   3.659  14.880  1.9348 -2.7769  1.1122
 4970TIP3   OH236400   6.297   2.222  11.392  0.7484  0.3098 -0.0692
 4970TIP3    H136401   6.363   2.155  11.377  1.0846  0.7091 -0.3992
 4970TIP3    H236402   6.214   2.175  11.391  1.1374 -0.6744  3.0546
 4971TIP3   OH236403   2.646   4.561  15.408 -0.7727  0.3614  0.3916
 4971TIP3    H136404   2.641   4.517  15.493 -1.4235  0.2458  0.3011
 4971TIP3    H236405   2.725   4.614  15.412  1.7628 -2.9922 -0.5410
 4972TIP3   OH236406   0.279   3.830   1.299 -0.2799  0.1326  0.4190
 4972TIP3    H136407   0.253   3.834   1.207 -0.1422  0.8527  0.4014
 4972TIP3    H236408   0.216   3.886   1.344  0.8706  1.4705  0.4462
 4973TIP3   OH236409   1.560   1.399  16.318 -1.1378  0.5838  0.1684
 4973TIP3    H136410   1.619   1.458  16.272 -0.4587  0.2853  0.6375
 4973TIP3    H236411   1.474   1.439  16.309 -0.9373  0.8108 -0.8839
 4974TIP3   OH236412   6.034   4.200  16.747  0.4941 -0.7438 -0.3043
 4974TIP3    H136413   5.990   4.281  16.721  2.7664  0.7130  0.1165
 4974TIP3    H236414   6.077   4.221  16.830  1.6948 -2.1581 -0.5165
 4975TIP3   OH236415   6.515   4.160  16.075 -0.0976 -0.4842 -0.7861
 4975TIP3    H136416   6.542   4.143  15.985 -1.8183  0.9520 -1.6306
 4975TIP3    H236417   6.469   4.244  16.071 -0.0177 -0.2626  1.4823
 4976TIP3   OH236418   3.834   3.403   3.575  0.3008  0.0099  0.1051
 4976TIP3    H136419   3.903   3.457   3.537  0.8043 -0.5142  0.2700
 4976TIP3    H236420   3.822   3.439   3.664  0.6028 -0.1194  0.1989
 4977TIP3   OH236421   5.044   5.472  14.489  0.4603  0.0220  0.0647
 4977TIP3    H136422   5.091   5.425  14.419 -1.9820 -2.4728 -0.1168
 4977TIP3    H236423   4.957   5.488  14.452  0.2036  1.8249  1.3515
 4978TIP3   OH236424   3.318   1.421  15.229 -0.1847  0.4339 -0.8471
 4978TIP3    H136425   3.310   1.331  15.197 -0.9335  0.1446  0.0913
 4978TIP3    H236426   3.411   1.432  15.246 -0.1448 -0.3452 -0.5014
 4979TIP3   OH236427   2.955   4.574  12.114  0.1288  0.0288 -0.3129
 4979TIP3    H136428   3.034   4.614  12.153 -0.5528  1.5684 -0.4397
 4979TIP3    H236429   2.953   4.607  12.025 -0.4462 -0.3288 -0.4345
 4980TIP3   OH236430   2.379   0.286   6.717 -0.1904 -0.0288 -0.3535
 4980TIP3    H136431   2.355   0.200   6.681  1.7165 -0.4315 -0.7443
 4980TIP3    H236432   2.474   0.287   6.715 -0.0775  1.0768  2.1200
 4981TIP3   OH236433   5.716   5.587   0.689  0.2195  0.2336 -0.3999
 4981TIP3    H136434   5.771   5.651   0.645 -0.0290  1.3100  0.7871
 4981TIP3    H236435   5.626   5.619   0.677 -0.0129 -0.5583 -0.8374
 4982TIP3   OH236436   4.327   4.876   0.360 -0.6818  0.2734  0.0937
 4982TIP3    H136437   4.310   4.966   0.384  0.7171  0.6617 -0.2606
 4982TIP3    H236438   4.270   4.824   0.416 -1.2503  1.3621  0.5371
 4983TIP3   OH236439   0.604   4.406  16.211  0.0273  0.1407  0.2966
 4983TIP3    H136440   0.521   4.419  16.256 -0.7172 -0.9860 -0.7214
 4983TIP3    H236441   0.610   4.479  16.149  0.6856  1.2476  1.5939
 4984TIP3   OH236442   5.641   1.872  16.969 -0.1641 -0.2179 -0.4422
 4984TIP3    H136443   5.685   1.950  17.001  0.5032 -0.5909 -0.4265
 4984TIP3    H236444   5.695   1.799  17.000 -0.6101 -0.6717 -0.7064
 4985TIP3   OH236445   0.670   5.573  17.002  0.0393 -0.4967  0.3292
 4985TIP3    H136446   0.578   5.577  17.030 -0.1025  0.0947 -0.2022
 4985TIP3    H236447   0.667   5.520  16.922  0.1277 -0.2575  0.1685
 4986TIP3   OH236448   2.520   0.170  10.796 -0.0121 -0.6481  0.8228
 4986TIP3    H136449   2.434   0.127  10.789 -1.3647  2.0585 -1.0720
 4986TIP3    H236450   2.575   0.124  10.732 -0.4397 -1.5546  1.0851
 4987TIP3   OH236451   0.212   5.165   2.988 -0.0459  0.3425  0.5970
 4987TIP3    H136452   0.232   5.071   2.983 -1.4813  0.0601 -0.3976
 4987TIP3    H236453   0.290   5.207   2.950 -1.0754 -0.7235 -3.1518
 4988TIP3   OH236454   4.731   0.483   4.900  0.4695  0.0434 -0.0329
 4988TIP3    H136455   4.786   0.555   4.930  2.2404 -1.0856 -0.4043
 4988TIP3    H236456   4.719   0.499   4.806  1.0509 -0.2389 -0.1618
 4989TIP3   OH236457   1.808   3.646  15.306 -0.0951  0.2859  0.2086
 4989TIP3    H136458   1.740   3.580  15.296  0.6308 -0.4419 -0.0718
 4989TIP3    H236459   1.761   3.727  15.327 -1.0441 -0.1633 -0.1480
 4990TIP3   OH236460   1.421   0.219  14.609 -0.0736 -0.2144 -0.1462
 4990TIP3    H136461   1.493   0.222  14.672 -0.4588 -0.1250  0.2945
 4990TIP3    H236462   1.426   0.302  14.562 -0.7909  0.4352  0.8998
 4991TIP3   OH236463   4.351   3.028   4.979  0.4882  0.2287 -0.2454
 4991TIP3    H136464   4.409   3.014   4.905 -0.1205  0.7290 -0.8343
 4991TIP3    H236465   4.317   2.941   5.000  1.5895 -0.0971  0.2413
 4992TIP3   OH236466   2.604   0.287   2.237 -0.5996 -0.2010 -0.6127
 4992TIP3    H136467   2.641   0.342   2.168  1.8438  1.1645  1.6088
 4992TIP3    H236468   2.527   0.335   2.268  0.3045  0.9550 -0.1039
 4993TIP3   OH236469   3.166   1.286   6.140 -0.2516  0.3269  0.0416
 4993TIP3    H136470   3.107   1.361   6.136 -0.3937  0.1636 -2.0738
 4993TIP3    H236471   3.251   1.323   6.166 -0.8970  0.7766  1.6424
 4994TIP3   OH236472   4.992   6.153   4.219 -0.2059 -0.4204 -0.0894
 4994TIP3    H136473   4.933   6.199   4.278 -1.8086 -1.8240 -0.5004
 4994TIP3    H236474   5.002   6.211   4.144  0.0264  0.4024  0.5670
 4995TIP3   OH236475   4.631   2.668   2.019  0.3148  0.5328  0.5314
 4995TIP3    H136476   4.549   2.689   1.975  1.5099  0.4861 -1.9173
 4995TIP3    H236477   4.605   2.630   2.103 -2.2071 -0.8011 -0.7456
 4996TIP3   OH236478   3.901   0.825  12.230  0.5966  0.2850  0.2154
 4996TIP3    H136479   3.941   0.804  12.314  0.5036 -1.0214 -0.0389
 4996TIP3    H236480   3.826   0.765  12.224 -0.9589  2.1026  0.3291
 4997TIP3   OH236481   2.508   2.234  12.980  0.3072  0.4244  0.2073
 4997TIP3    H136482   2.502   2.324  13.012  0.1752  0.9134 -1.1113
 4997TIP3    H236483   2.452   2.232  12.903 -0.1425 -0.9544  0.5352
 4998TIP3   OH236484   5.282   3.474   3.998  0.4798 -0.1117  0.1640
 4998TIP3    H136485   5.259   3.384   4.024  0.6956 -0.4085 -0.6261
 4998TIP3    H236486   5.355   3.498   4.054  1.0575 -0.8019 -0.2755
 4999TIP3   OH236487   0.408   1.376  15.059  0.0426 -0.5137 -0.4131
 4999TIP3    H136488   0.413   1.385  15.155  0.1022 -1.1340 -0.3491
 4999TIP3    H236489   0.403   1.465  15.026  0.5203 -0.2740  0.1493
 5000TIP3   OH236490   6.634   1.367   4.548  0.4408 -0.0654 -0.4451
 5000TIP3    H136491   6.671   1.282   4.569 -0.8171 -1.0209 -1.9079
 5000TIP3    H236492   6.540   1.354   4.552  0.2220  1.3917 -0.2562
 5001TIP3   OH236493   4.394   4.492   0.904  0.1223  0.0838  0.3571
 5001TIP3    H136494   4.464   4.426   0.897 -0.2870 -0.8894  3.5960
 5001TIP3    H236495   4.440   4.576   0.903  1.4775 -0.5367  2.6397
 5002TIP3   OH236496   1.385   5.885  15.593  0.1252  0.4617  0.6871
 5002TIP3    H136497   1.473   5.923  15.592  0.7810 -0.9833 -0.7667
 5002TIP3    H236498   1.339   5.929  15.521  0.4395 -0.4351 -0.0836
 5003TIP3   OH236499   1.730   5.190  12.347  0.1693 -0.1954 -0.2434
 5003TIP3    H136500   1.753   5.098  12.359 -0.7598 -0.3442  0.4831
 5003TIP3    H236501   1.814   5.236  12.356  0.7521 -1.0066 -1.3127
 5004TIP3   OH236502   1.857   5.683   3.947 -0.1910 -0.3767 -0.1254
 5004TIP3    H136503   1.779   5.705   3.895  0.9007 -0.0055 -1.6554
 5004TIP3    H236504   1.862   5.753   4.012 -1.3708 -0.6371  0.2711
 5005TIP3   OH236505   0.429   0.410   5.950  0.3608  0.1135  1.0313
 5005TIP3    H136506   0.394   0.499   5.954  0.3575  0.2022 -0.4846
 5005TIP3    H236507   0.369   0.363   5.893  0.4360 -0.8424  1.7136
 5006TIP3   OH236508   3.307   0.305   2.552 -0.1514  0.3654 -0.0694
 5006TIP3    H136509   3.323   0.305   2.647  0.9355  0.6786 -0.2401
 5006TIP3    H236510   3.264   0.389   2.536 -0.9810  0.0134  0.2331
 5007TIP3   OH236511   4.360   1.192  11.178 -0.3463 -0.6484 -0.0482
 5007TIP3    H136512   4.447   1.156  11.158 -1.2081 -1.9268 -1.7565
 5007TIP3    H236513   4.351   1.266  11.118 -0.3275 -0.3235  0.3477
 5008TIP3   OH236514   1.566   4.891   3.199  0.1657  0.0518  0.0733
 5008TIP3    H136515   1.613   4.902   3.282 -1.3864 -0.0815  1.0219
 5008TIP3    H236516   1.632   4.904   3.131  0.9955  2.8499  1.2723
 5009TIP3   OH236517   1.990   6.159  13.221 -0.2700 -0.4803 -0.4671
 5009TIP3    H136518   2.060   6.188  13.163 -0.2315 -1.2838 -0.8486
 5009TIP3    H236519   1.909   6.189  13.179 -0.2367 -0.9737 -0.9004
 5010TIP3   OH236520   2.700   1.655  16.199 -0.1022 -0.4872 -0.4157
 5010TIP3    H136521   2.688   1.575  16.249 -0.7745 -1.0725 -1.4918
 5010TIP3    H236522   2.752   1.629  16.123  2.0682  0.6455  0.5811
 5011TIP3   OH236523   1.242   5.792   3.605  0.3490  0.2013  0.2812
 5011TIP3    H136524   1.173   5.848   3.639  1.2759  0.6454  1.5374
 5011TIP3    H236525   1.196   5.722   3.558 -0.9590  0.2854  1.3744
 5012TIP3   OH236526   6.401   1.318   5.679 -0.1078  0.4595 -0.0239
 5012TIP3    H136527   6.458   1.354   5.747 -0.8839  0.8654  0.4189
 5012TIP3    H236528   6.431   1.359   5.598  1.0899 -0.3350 -0.0052
 5013TIP3   OH236529   0.244   1.418  11.226  0.5398  0.2836  0.1334
 5013TIP3    H136530   0.206   1.386  11.308  0.5672 -2.2138 -0.7325
 5013TIP3    H236531   0.269   1.509  11.244 -1.9626  0.6857  2.0147
 5014TIP3   OH236532   5.681   6.649  12.547 -0.1301  0.2509 -1.2239
 5014TIP3    H136533   5.679   6.703  12.626  0.0627 -1.2687 -0.1473
 5014TIP3    H236534   5.729   6.703  12.483 -1.6901  2.1774 -0.8711
 5015TIP3   OH236535   3.731   4.577   5.400  0.4417  0.0763 -0.0867
 5015TIP3    H136536   3.704   4.631   5.325  1.5633  0.8464  0.0430
 5015TIP3    H236537   3.688   4.617   5.475 -0.8449 -0.8148 -0.3137
 5016TIP3   OH236538   0.008   5.327  14.200  0.2840 -0.2487 -0.6356
 5016TIP3    H136539  -0.024   5.314  14.111  0.4767 -0.9239 -0.6180
 5016TIP3    H236540  -0.039   5.261  14.251 -1.5517  1.5981  0.2082
 5017TIP3   OH236541   6.053   4.032  16.977 -0.4043  0.7610  0.1424
 5017TIP3    H136542   6.037   4.123  17.003  2.4017  1.5697 -0.5532
 5017TIP3    H236543   6.040   4.032  16.882 -1.4312  0.1626  0.2799
 5018TIP3   OH236544   2.257   2.637  16.062 -0.4016  0.4271  0.7824
 5018TIP3    H136545   2.268   2.695  15.987  0.0830  0.3001  0.7495
 5018TIP3    H236546   2.297   2.554  16.034 -0.8396  0.1602  0.9262
 5019TIP3   OH236547   2.331   4.452   3.655  0.3147 -0.3845 -0.7575
 5019TIP3    H136548   2.247   4.494   3.639 -0.7597 -0.5037  3.4284
 5019TIP3    H236549   2.334   4.380   3.592 -2.2834  0.1817 -1.6332
 5020TIP3   OH236550   5.587   5.493   4.015  0.4852 -0.4241  0.0218
 5020TIP3    H136551   5.652   5.553   4.054 -0.5403 -0.3521  1.7180
 5020TIP3    H236552   5.507   5.510   4.063 -0.1944 -2.2140 -0.3908
 5021TIP3   OH236553   4.878   5.784  15.258  0.3134 -0.1794  0.2924
 5021TIP3    H136554   4.903   5.757  15.170 -1.3406 -1.7641  0.2386
 5021TIP3    H236555   4.951   5.757  15.313  0.7838 -0.4003 -0.4294
 5022TIP3   OH236556   2.531   0.907   5.224 -0.1580  0.5171 -0.2037
 5022TIP3    H136557   2.578   0.883   5.304 -1.4795 -0.6119  0.2756
 5022TIP3    H236558   2.555   0.998   5.208  0.8915  0.4655  0.9198
 5023TIP3   OH236559   2.676   1.840   0.691 -0.0931 -0.4154  0.0621
 5023TIP3    H136560   2.708   1.751   0.683  0.4845 -0.4751  2.4866
 5023TIP3    H236561   2.639   1.845   0.779  2.4628  2.4922  1.1329
 5024TIP3   OH236562   6.746   6.667  12.908  0.1693 -0.3140 -0.3792
 5024TIP3    H136563   6.654   6.652  12.886 -0.9243  0.9232  2.6869
 5024TIP3    H236564   6.777   6.583  12.940 -0.9211 -0.0856  1.4401
 5025TIP3   OH236565   4.323   0.308  11.653 -0.3063 -0.5512 -0.4433
 5025TIP3    H136566   4.408   0.316  11.610  1.4435 -1.3916  2.5622
 5025TIP3    H236567   4.298   0.216  11.642  0.6157 -1.0099  1.0057
 5026TIP3   OH236568   0.862   6.446   4.083 -0.3865  0.2972 -0.5199
 5026TIP3    H136569   0.860   6.486   4.170 -1.5930 -0.3887 -0.2114
 5026TIP3    H236570   0.851   6.520   4.023  0.5988  0.7934 -0.1171
 5027TIP3   OH236571   5.936   1.803   5.242  0.1346 -0.5095  0.3250
 5027TIP3    H136572   5.926   1.800   5.337  1.5385 -2.1276  0.4785
 5027TIP3    H236573   5.854   1.839   5.210  0.3097  1.7978  2.2405
 5028TIP3   OH236574   0.060   5.422  14.911 -0.0086  0.0700 -0.1308
 5028TIP3    H136575  -0.017   5.414  14.967 -1.3627  0.5507 -1.8390
 5028TIP3    H236576   0.028   5.402  14.823  2.0749 -0.8107 -0.7586
 5029TIP3   OH236577   1.642   0.654   0.632 -0.3369 -0.3758 -0.0007
 5029TIP3    H136578   1.676   0.743   0.639  1.4462 -1.0963  1.1193
 5029TIP3    H236579   1.612   0.646   0.542  0.3042  1.0728 -0.3660
 5030TIP3   OH236580   4.189   1.064  15.441 -0.3336 -0.5736  0.4140
 5030TIP3    H136581   4.173   1.158  15.447 -0.1462 -0.5279  0.2086
 5030TIP3    H236582   4.167   1.042  15.351 -1.1458 -0.8735  0.6745
 5031TIP3   OH236583   0.440   1.846  14.172 -0.1040  0.1055  0.2907
 5031TIP3    H136584   0.374   1.901  14.213 -1.3981  1.1033 -2.9005
 5031TIP3    H236585   0.520   1.899  14.173 -0.1414  0.1558  1.3311
 5032TIP3   OH236586   4.951   0.972  13.036 -0.4782 -0.2533 -0.1231
 5032TIP3    H136587   5.008   1.008  13.104 -0.1438 -0.5640 -0.2365
 5032TIP3    H236588   5.007   0.915  12.985 -0.2636  1.3606 -1.7992
 5033TIP3   OH236589   6.560   0.176  16.699  0.7176  0.0241  0.0050
 5033TIP3    H136590   6.513   0.253  16.730  0.2056  0.7185 -2.2685
 5033TIP3    H236591   6.619   0.209  16.632  1.4578 -1.4040 -0.0960
 5034TIP3   OH236592   6.815   0.948  13.763  0.0441  0.6159 -0.2830
 5034TIP3    H136593   6.858   0.900  13.693 -0.6859 -0.1789 -0.1982
 5034TIP3    H236594   6.883   0.957  13.831 -0.0588 -1.1317  0.0941
 5035TIP3   OH236595   6.115   0.462  14.150 -0.0390 -0.3232 -0.3471
 5035TIP3    H136596   6.127   0.541  14.098  2.4373 -0.1358  0.3801
 5035TIP3    H236597   6.038   0.420  14.113 -0.2367  1.4261 -2.0413
 5036TIP3   OH236598   3.893   6.571   2.070  0.6045  0.3462 -0.4985
 5036TIP3    H136599   3.857   6.639   2.127 -1.1144  1.7438 -3.0363
 5036TIP3    H236600   3.981   6.602   2.048  1.1733 -0.0657  1.0518
 5037TIP3   OH236601   4.996   3.276   5.423 -0.4155 -0.0505  0.2675
 5037TIP3    H136602   5.019   3.215   5.353 -1.5166 -2.5451  1.8896
 5037TIP3    H236603   4.923   3.327   5.389 -0.3421 -0.5818 -0.7072
 5038TIP3   OH236604   0.250   1.107  12.148 -0.9107  0.0634  0.6953
 5038TIP3    H136605   0.198   1.187  12.157  1.0014  1.2476  1.8288
 5038TIP3    H236606   0.335   1.137  12.115  0.7138 -1.0863  3.4682
 5039TIP3   OH236607   2.907   4.209   2.408 -0.0262  0.1306 -0.1138
 5039TIP3    H136608   2.996   4.204   2.441 -0.7869  0.2419  2.1504
 5039TIP3    H236609   2.856   4.242   2.482 -2.1119 -0.9190 -1.0011
 5040TIP3   OH236610   2.735   5.205  12.798  0.6096  0.1839 -0.2633
 5040TIP3    H136611   2.770   5.234  12.713 -1.4351  2.1096 -0.5409
 5040TIP3    H236612   2.765   5.272  12.859  0.4415 -0.1401  0.1739
 5041TIP3   OH236613   0.626   6.523  10.885 -0.5078  0.5946  0.1292
 5041TIP3    H136614   0.664   6.474  10.812  0.6926 -0.0316  1.1429
 5041TIP3    H236615   0.561   6.463  10.922  1.1041 -0.4096  1.4976
 5042TIP3   OH236616   6.057   4.576  15.794  0.3239  0.0082  0.0821
 5042TIP3    H136617   6.024   4.488  15.774 -1.4888  1.1931 -2.7724
 5042TIP3    H236618   5.978   4.631  15.797  1.2476  1.4079  3.2664
 5043TIP3   OH236619   2.878   2.700  13.915  0.0646 -0.0013 -0.4407
 5043TIP3    H136620   2.800   2.689  13.971  0.0853  4.1991  0.7225
 5043TIP3    H236621   2.845   2.742  13.836  0.7794 -1.1646 -1.3845
 5044TIP3   OH236622   3.940   5.891  12.088  0.5966  0.5912 -0.2729
 5044TIP3    H136623   4.003   5.882  12.160  0.3733  2.3539  0.1852
 5044TIP3    H236624   3.881   5.817  12.099  0.8469  0.5635  1.0853
 5045TIP3   OH236625   0.707   2.621  16.718  0.0942 -0.2444  0.4772
 5045TIP3    H136626   0.726   2.545  16.772 -0.5508 -0.5341  0.3093
 5045TIP3    H236627   0.635   2.593  16.661 -0.1191  0.4740  0.3793
 5046TIP3   OH236628   4.812   1.481  13.514  0.4132 -0.4284  0.2606
 5046TIP3    H136629   4.740   1.438  13.561 -1.3276  0.9695 -0.9894
 5046TIP3    H236630   4.837   1.418  13.446 -1.1315 -0.1267 -0.6406
 5047TIP3   OH236631   4.787   2.335  10.846 -0.2017  0.3561 -0.2274
 5047TIP3    H136632   4.708   2.366  10.890 -0.8045 -1.1386 -0.2025
 5047TIP3    H236633   4.768   2.346  10.753  0.6048  2.4000 -0.1908
 5048TIP3   OH236634   2.356   1.497   0.234  0.1262 -0.3148  0.4572
 5048TIP3    H136635   2.349   1.592   0.218  1.2295 -0.3040 -0.0033
 5048TIP3    H236636   2.282   1.460   0.186  0.3612  0.2146 -0.3435
 5049TIP3   OH236637   0.777   2.838   4.669  0.1550 -0.1102  0.2053
 5049TIP3    H136638   0.814   2.904   4.727  0.5109 -0.0940 -0.0381
 5049TIP3    H236639   0.850   2.813   4.612 -0.0680 -0.4662  0.0756
 5050TIP3   OH236640   5.939   0.484  16.493  0.1293  0.9382  0.5232
 5050TIP3    H136641   5.885   0.562  16.476  1.6699  1.8906 -0.2033
 5050TIP3    H236642   5.939   0.437  16.410  2.9480  2.6187 -0.5797
 5051TIP3   OH236643   6.794   6.321  15.341 -0.2031  0.0992  0.6372
 5051TIP3    H136644   6.787   6.273  15.259 -2.7520  1.6956 -0.1842
 5051TIP3    H236645   6.728   6.282  15.398  0.2246  0.2710  1.2748
 5052TIP3   OH236646   4.533   3.009   5.356 -0.1010 -0.2684 -0.2840
 5052TIP3    H136647   4.607   3.008   5.418 -0.2919  1.0796 -0.0070
 5052TIP3    H236648   4.526   3.101   5.329 -1.4400 -0.4573 -0.6100
 5053TIP3   OH236649   3.946   1.938  12.073 -0.0314 -0.0065 -0.0238
 5053TIP3    H136650   3.990   1.945  12.157  1.4088  0.9045 -0.8209
 5053TIP3    H236651   3.941   1.844  12.056 -1.7114 -0.3135  1.7238
 5054TIP3   OH236652   6.097   0.238   1.645  0.3280 -0.5481  0.4836
 5054TIP3    H136653   6.043   0.242   1.724 -0.3513  3.2907  0.0080
 5054TIP3    H236654   6.035   0.231   1.573  0.4314  2.1475  0.0355
 5055TIP3   OH236655   2.182   5.725   5.477 -0.3449  0.5746  0.0582
 5055TIP3    H136656   2.173   5.770   5.561  1.0358 -2.2517  1.8952
 5055TIP3    H236657   2.276   5.725   5.459 -0.3718 -0.8947 -0.2233
 5056TIP3   OH236658   6.313   6.338   4.396  0.3472 -0.3384  0.0204
 5056TIP3    H136659   6.226   6.375   4.389  1.0361  1.0193 -2.0014
 5056TIP3    H236660   6.358   6.364   4.316  2.1612 -2.2493  0.3074
 5057TIP3   OH236661   3.432   1.468  11.136  0.6118  0.5345  0.6530
 5057TIP3    H136662   3.364   1.414  11.175  0.2115 -0.5663 -1.4249
 5057TIP3    H236663   3.404   1.481  11.045  1.5278  2.8640  0.6121
 5058TIP3   OH236664   4.224   5.290   0.628 -0.2867 -0.0159 -0.4947
 5058TIP3    H136665   4.200   5.370   0.581  0.9718 -0.6304 -2.2497
 5058TIP3    H236666   4.244   5.321   0.717 -1.6718  1.3226 -0.5919
 5059TIP3   OH236667   5.324   6.350   1.336 -0.6024  0.2019 -0.3962
 5059TIP3    H136668   5.376   6.403   1.275 -1.2799 -0.5850 -1.6960
 5059TIP3    H236669   5.330   6.261   1.302 -0.7419 -0.3186  0.8833
 5060TIP3   OH236670   5.239   5.998   4.286  0.4065 -0.1783 -0.0675
 5060TIP3    H136671   5.148   6.027   4.284 -0.5020 -2.5020  2.0123
 5060TIP3    H236672   5.290   6.079   4.291 -1.7904  1.2248  2.9353
 5061TIP3   OH236673   3.384   0.467   5.897  0.0802  0.4272  0.4094
 5061TIP3    H136674   3.331   0.437   5.970  2.2037 -1.4471  1.3049
 5061TIP3    H236675   3.405   0.558   5.918 -1.0340  0.5456  1.0660
 5062TIP3   OH236676   0.671   6.452   4.819 -0.2756  0.1061 -0.5892
 5062TIP3    H136677   0.693   6.540   4.848 -2.3634  0.1349  1.1731
 5062TIP3    H236678   0.604   6.464   4.752 -0.5399 -0.1477 -0.3732
 5063TIP3   OH236679   4.101   3.647   5.913 -0.1450 -0.3684 -0.0762
 5063TIP3    H136680   4.021   3.626   5.961 -0.9122 -0.4165 -1.3215
 5063TIP3    H236681   4.151   3.565   5.914 -1.1109 -1.0173 -1.1118
 5064TIP3   OH236682   2.791   5.085   0.043 -0.7672 -0.2002 -0.6624
 5064TIP3    H136683   2.822   5.054  -0.042  0.4840 -0.6533 -0.0657
 5064TIP3    H236684   2.759   5.174   0.027 -0.4191 -0.2302 -1.5671
 5065TIP3   OH236685   2.251   1.523   3.586  0.0958  0.4146 -0.3809
 5065TIP3    H136686   2.293   1.572   3.515  0.2528  1.0179  0.1202
 5065TIP3    H236687   2.241   1.587   3.656 -1.1584  0.1258 -0.2863
 5066TIP3   OH236688   3.864   1.373   3.701 -0.1084 -0.3976  0.5078
 5066TIP3    H136689   3.794   1.325   3.746 -0.7590  2.8813  3.4259
 5066TIP3    H236690   3.940   1.364   3.758  0.4900 -0.0801 -0.2219
 5067TIP3   OH236691   6.413   3.011  17.012 -0.2814  0.0861 -0.1056
 5067TIP3    H136692   6.377   2.927  17.038  2.8483 -2.4425 -2.9207
 5067TIP3    H236693   6.387   3.021  16.921  2.5377  0.0676 -1.0156
 5068TIP3   OH236694   2.286   4.826  15.688 -0.1814 -0.5975  0.2813
 5068TIP3    H136695   2.216   4.825  15.622 -0.2162 -2.2258  0.3042
 5068TIP3    H236696   2.353   4.769  15.652  1.4049  1.3289  0.0370
 5069TIP3   OH236697   5.819   4.542   0.832 -0.4218  0.1054  0.4585
 5069TIP3    H136698   5.744   4.591   0.864 -1.4619 -1.2179  0.1165
 5069TIP3    H236699   5.888   4.560   0.896 -1.9645 -1.1651  2.5793
 5070TIP3   OH236700   6.072   5.196   6.138 -0.8782  0.1612 -0.1973
 5070TIP3    H136701   6.152   5.245   6.153 -1.0471  0.0022  1.3849
 5070TIP3    H236702   6.002   5.250   6.176 -1.2100 -0.7496  0.5294
 5071TIP3   OH236703   3.826   3.922   1.891  0.0235  1.0003 -0.1623
 5071TIP3    H136704   3.845   3.932   1.985 -0.8102 -1.7562  0.3787
 5071TIP3    H236705   3.731   3.934   1.885 -0.1778 -0.5582 -0.3394
 5072TIP3   OH236706   6.752   1.463   0.961  0.0217 -0.3797  0.0984
 5072TIP3    H136707   6.736   1.557   0.953  0.6558 -0.2898 -0.2063
 5072TIP3    H236708   6.717   1.426   0.880  1.9329 -0.0906 -0.9244
 5073TIP3   OH236709   5.992   5.115  16.940  0.4941  0.4198 -0.0282
 5073TIP3    H136710   6.056   5.086  16.875  0.4568 -0.6305  0.3889
 5073TIP3    H236711   5.908   5.115  16.893  0.6617  0.9546 -0.3364
 5074TIP3   OH236712   0.231   4.358   2.557 -0.3790  0.2112  0.2990
 5074TIP3    H136713   0.212   4.265   2.545  0.4330  0.2765 -1.9685
 5074TIP3    H236714   0.165   4.403   2.504  1.4894  0.7058 -1.7526
 5075TIP3   OH236715   1.202   5.977   0.137 -0.5274  0.2023 -0.2248
 5075TIP3    H136716   1.188   5.894   0.091  1.6568  0.3393 -1.2784
 5075TIP3    H236717   1.125   6.029   0.115 -0.1495 -0.1837 -2.7932
 5076TIP3   OH236718   2.707   3.684  17.105  0.2489 -0.6624 -0.7757
 5076TIP3    H136719   2.658   3.683  17.188 -1.1977 -1.4339 -1.5868
 5076TIP3    H236720   2.762   3.606  17.109  0.3418 -0.5812 -0.4532
 5077TIP3   OH236721   4.671   2.597   5.315 -0.1419 -0.4027  0.2907
 5077TIP3    H136722   4.705   2.533   5.253  1.6948  0.8335 -0.0965
 5077TIP3    H236723   4.726   2.674   5.301 -1.1370  0.6667  1.9264
 5078TIP3   OH236724   1.827   3.724   4.438  0.2849 -0.2405  0.2443
 5078TIP3    H136725   1.732   3.725   4.425  0.5700  0.1014 -2.6942
 5078TIP3    H236726   1.852   3.633   4.424  0.4391 -0.2020  0.2659
 5079TIP3   OH236727   5.749   5.394  13.481  0.1678  0.5461  0.1933
 5079TIP3    H136728   5.783   5.408  13.570  0.0313 -1.6165  0.6470
 5079TIP3    H236729   5.826   5.366  13.431 -0.0889 -0.0530  0.1213
 5080TIP3   OH236730   5.572   0.807  15.714 -0.3932 -0.1494 -0.4632
 5080TIP3    H136731   5.509   0.878  15.701  1.0171  1.3998  0.8001
 5080TIP3    H236732   5.605   0.820  15.802 -0.5380 -2.7962  0.0687
 5081TIP3   OH236733   0.532   6.674  10.608  0.2077  0.3039  0.0065
 5081TIP3    H136734   0.453   6.702  10.562  1.3341  4.0823  0.0149
 5081TIP3    H236735   0.543   6.582  10.583 -4.2772 -0.5239  0.2906
 5082TIP3   OH236736   0.164   2.152  15.944  0.1754 -0.5999 -0.2595
 5082TIP3    H136737   0.152   2.141  15.850  1.1992 -2.2945 -0.2332
 5082TIP3    H236738   0.217   2.231  15.953  0.5015 -0.7135 -1.1413
 5083TIP3   OH236739   3.137   0.453  13.629 -0.7353  0.2495  0.5123
 5083TIP3    H136740   3.078   0.419  13.697 -0.4854 -0.6876  0.2715
 5083TIP3    H236741   3.223   0.454  13.670 -0.1399 -2.5548 -0.4552
 5084TIP3   OH236742   0.705   0.050   2.186  0.0335  0.3954  0.1390
 5084TIP3    H136743   0.747   0.019   2.106  0.1203 -0.6740  0.5947
 5084TIP3    H236744   0.657   0.129   2.158  0.4783  0.3303 -0.8507
 5085TIP3   OH236745   0.657   4.021   3.372 -0.4316 -0.3442  0.5259
 5085TIP3    H136746   0.667   4.012   3.277  0.8572  0.2445  0.5904
 5085TIP3    H236747   0.623   4.109   3.385  2.4804  0.8830  0.7205
 5086TIP3   OH236748   2.078   1.277  13.246  0.3099  0.1023 -0.2921
 5086TIP3    H136749   2.123   1.193  13.237 -0.3906 -0.4865  1.3254
 5086TIP3    H236750   2.081   1.296  13.340 -1.2373  0.9347 -0.3777
 5087TIP3   OH236751   1.819   2.507  12.428 -0.0244  0.5638 -0.3195
 5087TIP3    H136752   1.837   2.593  12.466  0.9253  0.4798 -0.5430
 5087TIP3    H236753   1.726   2.493  12.443 -0.5146  2.2316 -1.4713
 5088TIP3   OH236754   0.326   6.214  15.023 -0.0815  0.8481  0.0181
 5088TIP3    H136755   0.353   6.143  14.964 -1.3753 -0.7664  1.2559
 5088TIP3    H236756   0.255   6.176  15.075 -0.0083  2.6864  1.5748
 5089TIP3   OH236757   6.554   4.559  15.982  0.3820 -0.0160  0.5682
 5089TIP3    H136758   6.612   4.483  15.971  0.5363  0.3202 -1.1170
 5089TIP3    H236759   6.466   4.521  15.988  0.3460 -0.3071 -1.2946
 5090TIP3   OH236760   4.731   0.505  11.789 -0.4011  0.1965 -0.4437
 5090TIP3    H136761   4.637   0.520  11.800 -0.2311 -0.5285  3.3384
 5090TIP3    H236762   4.771   0.591  11.801 -0.4754  0.0530  0.9985
 5091TIP3   OH236763   0.059   1.417   3.521 -0.0500 -0.0486  0.4523
 5091TIP3    H136764   0.126   1.475   3.483 -1.0826 -0.0413 -1.4155
 5091TIP3    H236765   0.108   1.365   3.586  1.6874  0.2648 -0.5249
 5092TIP3   OH236766   6.656   0.065   2.964  0.2648 -0.4654 -0.3348
 5092TIP3    H136767   6.686   0.134   3.023  0.7630 -0.7004 -0.3068
 5092TIP3    H236768   6.640  -0.011   3.021 -0.9035 -0.1856 -0.2805
 5093TIP3   OH236769   2.126   1.149  15.994  0.2037 -0.4185  0.6985
 5093TIP3    H136770   2.095   1.080  15.936  2.6177 -2.8660  2.0493
 5093TIP3    H236771   2.102   1.120  16.082  0.8405  0.7205  1.2850
 5094TIP3   OH236772   2.161   3.094   2.012 -0.5656  0.2441 -0.6727
 5094TIP3    H136773   2.200   3.104   1.925 -0.3308  4.4577 -0.3164
 5094TIP3    H236774   2.066   3.095   1.996 -0.5461 -1.0897 -0.9615
 5095TIP3   OH236775   1.245   3.699   4.013 -0.0901 -0.3636  0.2579
 5095TIP3    H136776   1.176   3.639   3.984  0.8818 -0.6955 -1.5418
 5095TIP3    H236777   1.326   3.655   3.988  0.7869  0.2903  1.7892
 5096TIP3   OH236778   2.700   1.934   3.845 -0.1311 -0.4469 -0.2744
 5096TIP3    H136779   2.648   2.013   3.859 -0.2597 -0.2234 -1.8474
 5096TIP3    H236780   2.767   1.937   3.913 -1.7207 -0.3864  1.3693
 5097TIP3   OH236781   3.691   2.240   6.263  0.4351 -0.1990  0.3608
 5097TIP3    H136782   3.707   2.253   6.357  0.2518  0.1985  0.3407
 5097TIP3    H236783   3.760   2.289   6.220 -0.7164  1.4335  0.2759
 5098TIP3   OH236784   2.848   2.810  12.873 -0.6209  0.0021  0.5700
 5098TIP3    H136785   2.841   2.717  12.893 -1.3102  0.0274  0.4964
 5098TIP3    H236786   2.801   2.853  12.945 -0.0845  0.3095  0.7416
 5099TIP3   OH236787   6.432   0.503  13.269  0.2085  0.2534 -0.2111
 5099TIP3    H136788   6.499   0.541  13.326 -0.2301  0.9191 -0.1250
 5099TIP3    H236789   6.434   0.410  13.288  0.0697  0.4613  0.8996
 5100TIP3   OH236790   0.035   0.712  14.968  0.4058  0.1747 -0.3461
 5100TIP3    H136791  -0.044   0.714  15.022  0.7651 -1.2150  0.2657
 5100TIP3    H236792   0.075   0.628  14.988  1.5281  0.4436 -1.3989
 5101TIP3   OH236793   5.053   0.524   5.516 -0.2234  0.8281  0.0854
 5101TIP3    H136794   5.138   0.519   5.471 -1.1794  2.8987 -2.2258
 5101TIP3    H236795   4.989   0.507   5.447 -1.7481  1.7769  1.2162
 5102TIP3   OH236796   4.722   4.806   3.693  0.4192 -0.3422 -0.0484
 5102TIP3    H136797   4.817   4.817   3.683  0.4387 -0.8947 -0.5133
 5102TIP3    H236798   4.687   4.822   3.605 -0.0863  1.4368  0.4352
 5103TIP3   OH236799   4.227   4.310   1.390 -0.5446 -0.1225  0.2303
 5103TIP3    H136800   4.249   4.312   1.297  0.4868  0.7073  0.4739
 5103TIP3    H236801   4.150   4.367   1.397 -0.9405 -0.6047 -0.1885
 5104TIP3   OH236802   3.908   6.355   1.837  0.5246 -0.3010  0.1010
 5104TIP3    H136803   3.870   6.373   1.751  1.7247 -1.6867 -0.7478
 5104TIP3    H236804   3.869   6.422   1.894 -2.1303 -0.7935 -0.9662
 5105TIP3   OH236805   3.968   6.547  17.191  0.0461  0.1717  0.0012
 5105TIP3    H136806   3.876   6.574  17.188 -0.5951 -1.8249  0.2517
 5105TIP3    H236807   3.972   6.483  17.262  1.4545 -0.3671 -0.5320
 5106TIP3   OH236808   2.187   3.603  10.470 -0.6669 -0.3061  0.1751
 5106TIP3    H136809   2.170   3.593  10.377  1.0537 -1.6242 -0.0551
 5106TIP3    H236810   2.184   3.697  10.486  1.5109  0.1652 -1.7721
 5107TIP3   OH236811   1.319   4.155  16.742 -0.3872 -0.6108  0.2119
 5107TIP3    H136812   1.323   4.205  16.661 -3.0335  1.2731  1.0814
 5107TIP3    H236813   1.323   4.064  16.715  0.2716 -0.0069 -1.8795
 5108TIP3   OH236814   3.521   3.867   2.937  0.4049  0.0539  0.2266
 5108TIP3    H136815   3.601   3.881   2.888 -0.1975  1.6608 -0.3437
 5108TIP3    H236816   3.510   3.945   2.991 -1.1638  0.2263 -0.2815
 5109TIP3   OH236817   3.918   6.688  16.583  0.2310 -0.0613  0.0087
 5109TIP3    H136818   3.935   6.751  16.654 -0.0882 -0.5992  0.5766
 5109TIP3    H236819   3.839   6.722  16.540  0.1462  0.0094  0.2172
 5110TIP3   OH236820   5.864   0.459   6.005 -0.3960  0.3324 -0.0571
 5110TIP3    H136821   5.817   0.467   6.088  1.4505 -0.2686  1.1018
 5110TIP3    H236822   5.953   0.486   6.025  0.5365 -1.5119 -1.4045
 5111TIP3   OH236823   0.476   2.025  12.116  0.1020 -0.4030  0.5761
 5111TIP3    H136824   0.471   1.942  12.069 -0.2925 -0.8428  1.3672
 5111TIP3    H236825   0.569   2.034  12.139  0.1115 -0.7401  0.6802
 5112TIP3   OH236826   3.618   3.031  13.960  0.3813 -0.1811  0.3312
 5112TIP3    H136827   3.688   2.975  13.993  0.3590  0.4160  1.4609
 5112TIP3    H236828   3.582   3.072  14.039 -1.8998 -1.2074 -0.0819
 5113TIP3   OH236829   6.477   0.025   5.575 -0.0961  0.6592 -0.3219
 5113TIP3    H136830   6.447   0.078   5.501  0.4426  1.4618  0.0231
 5113TIP3    H236831   6.542   0.080   5.619  0.7757 -0.4427 -0.1811
 5114TIP3   OH236832   0.904   2.327  15.870  0.0160  0.3033  0.1790
 5114TIP3    H136833   0.988   2.322  15.915 -0.5968  0.1111  1.3419
 5114TIP3    H236834   0.877   2.418  15.880 -0.6445  0.0144  1.2262
 5115TIP3   OH236835   5.106   2.745   0.954 -0.2275 -0.1135 -0.5894
 5115TIP3    H136836   5.117   2.715   1.044  2.2468 -0.4414 -0.9173
 5115TIP3    H236837   5.039   2.688   0.917  0.6440 -1.8112  0.3140
 5116TIP3   OH236838   1.526   1.027   3.981 -0.5049  0.1669  0.2404
 5116TIP3    H136839   1.566   0.950   3.939 -0.9230  1.4331 -2.7011
 5116TIP3    H236840   1.595   1.061   4.038  1.3797  0.1735 -1.8887
 5117TIP3   OH236841   4.500   1.224   1.473 -0.3888  0.4337 -1.0312
 5117TIP3    H136842   4.590   1.193   1.458 -0.5990 -0.3189 -0.7671
 5117TIP3    H236843   4.509   1.319   1.487  0.3605  0.3631 -1.0113
 5118TIP3   OH236844   4.479   2.202   5.107  0.4070 -0.1902 -0.0653
 5118TIP3    H136845   4.448   2.128   5.055 -0.1099 -0.4783  0.6324
 5118TIP3    H236846   4.472   2.277   5.048  2.0384 -0.8380 -1.1767
 5119TIP3   OH236847   5.017   1.346   5.148  0.1375  0.5978  0.3354
 5119TIP3    H136848   4.949   1.345   5.081  0.0564  1.4798  0.3871
 5119TIP3    H236849   5.095   1.375   5.102  1.4066 -3.4971 -0.4985
 5120TIP3   OH236850   2.275   5.878  10.853 -0.5443 -0.3162 -0.0817
 5120TIP3    H136851   2.328   5.798  10.845 -1.3217 -0.7566 -1.0784
 5120TIP3    H236852   2.243   5.895  10.764 -2.8090 -0.5906  0.6097
 5121TIP3   OH236853   2.614   3.526  16.297 -0.4919 -0.0871  0.8830
 5121TIP3    H136854   2.642   3.499  16.385  1.5215 -0.1865  0.2527
 5121TIP3    H236855   2.609   3.444  16.247 -2.1203 -0.0905  0.9757
 5122TIP3   OH236856   1.952   2.213   3.045 -0.0320 -0.2921  0.5567
 5122TIP3    H136857   1.959   2.186   2.953 -1.3053 -1.7713  0.8528
 5122TIP3    H236858   1.864   2.252   3.050 -0.0791 -0.4842  1.2043
 5123TIP3   OH236859   0.887   6.782   3.861 -0.1045 -0.1957  0.0310
 5123TIP3    H136860   0.835   6.704   3.840 -1.7413  1.3354 -1.9495
 5123TIP3    H236861   0.824   6.854   3.858  1.9367  1.6319 -1.5869
 5124TIP3   OH236862   1.836   4.971  17.205  0.0473 -0.0310 -0.0657
 5124TIP3    H136863   1.765   4.908  17.194  1.6672 -1.9262 -0.2066
 5124TIP3    H236864   1.877   4.976  17.119 -0.2638  1.5436 -0.1541
 5125TIP3   OH236865   6.035   1.849   2.620 -0.2328  0.0904 -0.1214
 5125TIP3    H136866   5.948   1.817   2.643  0.3700 -0.1331  2.0630
 5125TIP3    H236867   6.025   1.943   2.611 -1.1042 -0.1444 -2.1097
 5126TIP3   OH236868   2.493   3.360  17.227  0.4861 -0.2034  0.1951
 5126TIP3    H136869   2.472   3.347  17.320  1.3787  2.9292  0.9640
 5126TIP3    H236870   2.589   3.357  17.225  0.4837  0.2575 -0.5379
 5127TIP3   OH236871   6.710   0.951   5.667 -0.0483 -0.0906  0.5978
 5127TIP3    H136872   6.689   1.024   5.724 -2.3933 -0.2014 -0.0338
 5127TIP3    H236873   6.708   0.874   5.724  0.1326  0.0740  0.8265
 5128TIP3   OH236874   0.533   6.051   0.948  0.0033  0.2114  0.0472
 5128TIP3    H136875   0.617   6.077   0.986 -0.4884  1.3004  0.4288
 5128TIP3    H236876   0.467   6.086   1.008 -0.7324 -0.4661 -0.3419
 5129TIP3   OH236877   5.844   4.328   3.969  0.1729 -0.0206  0.3564
 5129TIP3    H136878   5.861   4.408   3.919  1.8365 -0.1546  0.6415
 5129TIP3    H236879   5.807   4.360   4.052  0.4081  0.4297  0.2914
 5130TIP3   OH236880   1.184   6.337  12.385  0.0820  0.1791  0.0467
 5130TIP3    H136881   1.203   6.246  12.408 -0.5984 -0.4353 -1.6379
 5130TIP3    H236882   1.251   6.360  12.322 -1.0623  0.0470 -1.2717
 5131TIP3   OH236883   5.826   4.961  11.314  0.2544  0.3164  0.0001
 5131TIP3    H136884   5.867   5.008  11.386 -2.0587 -0.0090  1.6197
 5131TIP3    H236885   5.739   5.000  11.305 -0.2799 -1.0329 -1.2458
 5132TIP3   OH236886   0.344   3.143   0.162 -0.0343  0.3406  0.3249
 5132TIP3    H136887   0.253   3.158   0.187  0.3948  0.3680  1.9816
 5132TIP3    H236888   0.379   3.231   0.145 -0.5767  0.2600 -1.4415
 5133TIP3   OH236889   6.322   1.485  16.359  0.4135  0.1531  0.2126
 5133TIP3    H136890   6.268   1.411  16.332  0.0593 -0.2464  1.8755
 5133TIP3    H236891   6.396   1.484  16.299  0.0342 -1.0942 -0.2606
 5134TIP3   OH236892   0.024   3.796   6.387 -0.0253 -0.3295  0.0301
 5134TIP3    H136893   0.115   3.772   6.369 -0.2856 -1.8549  0.5560
 5134TIP3    H236894   0.027   3.837   6.473  0.4790  1.9862 -1.0290
 5135TIP3   OH236895   0.167   0.917   1.684  0.3850  0.1502  0.1786
 5135TIP3    H136896   0.109   0.976   1.638  0.2849 -0.0748  0.0143
 5135TIP3    H236897   0.188   0.962   1.766  1.1030  0.8481 -0.3804
 5136TIP3   OH236898   4.283   2.306  12.194 -0.3041 -0.1190  0.1126
 5136TIP3    H136899   4.287   2.297  12.289  0.7400  1.0794  0.2001
 5136TIP3    H236900   4.241   2.391  12.180  1.3513  0.6362 -0.4464
 5137TIP3   OH236901   0.345   6.149   6.261  0.5399  0.5416  0.2340
 5137TIP3    H136902   0.430   6.189   6.278  1.3036 -0.2669 -1.4830
 5137TIP3    H236903   0.362   6.055   6.257 -0.8048  0.1751  1.7959
 5138TIP3   OH236904   1.281   6.565  16.303  0.1179 -0.2180 -0.1709
 5138TIP3    H136905   1.302   6.499  16.237 -3.4729 -0.3597 -1.3441
 5138TIP3    H236906   1.297   6.649  16.259  1.7361 -0.2325  0.3002
 5139TIP3   OH236907   0.047   0.295   1.817 -0.3099  0.4534  0.0622
 5139TIP3    H136908   0.142   0.309   1.827  0.0603  0.2172 -2.5172
 5139TIP3    H236909   0.037   0.201   1.808 -0.9358  0.3879  1.2396
 5140TIP3   OH236910   0.126   3.099   2.550  0.1291 -0.5043 -0.1288
 5140TIP3    H136911   0.133   3.042   2.474 -0.1358 -0.6969 -0.0117
 5140TIP3    H236912   0.207   3.150   2.550 -0.2953  0.2007 -1.1097
 5141TIP3   OH236913   0.855   0.333   1.848 -0.2619 -0.3644  0.2802
 5141TIP3    H136914   0.884   0.406   1.792 -0.7276 -1.2715 -1.1993
 5141TIP3    H236915   0.817   0.375   1.925  0.3463  0.9316 -0.1033
 5142TIP3   OH236916   5.762   5.692   4.128  0.1887  0.9595 -0.1205
 5142TIP3    H136917   5.722   5.711   4.213  1.3469 -0.9161  0.9215
 5142TIP3    H236918   5.824   5.763   4.114 -1.8205  2.7009 -0.7002
 5143TIP3   OH236919   6.540   0.871   4.519  0.5187 -0.2742 -0.7138
 5143TIP3    H136920   6.479   0.807   4.558  0.2957  0.6867  0.5783
 5143TIP3    H236921   6.623   0.855   4.564  0.2192  0.9489  0.3240
 5144TIP3   OH236922   4.157   0.786   4.915  0.4743 -0.0550  0.4731
 5144TIP3    H136923   4.091   0.852   4.938 -0.9509 -1.1349 -0.3038
 5144TIP3    H236924   4.190   0.755   4.999 -0.8801 -0.3198  0.9255
 5145TIP3   OH236925   4.881   6.279   5.659  0.2308 -0.2756  0.7375
 5145TIP3    H136926   4.941   6.338   5.705  0.5469  0.1830 -0.2425
 5145TIP3    H236927   4.882   6.199   5.711  0.2279  0.3874  1.7793
 5146TIP3   OH236928   4.652   3.795  12.774  0.5957 -0.2017  0.3786
 5146TIP3    H136929   4.685   3.775  12.861 -0.8293  0.5637  1.1263
 5146TIP3    H236930   4.575   3.850  12.789 -0.6492 -1.3841 -1.2983
 5147TIP3   OH236931   5.793   4.089   2.122 -0.2878  0.2322  0.8091
 5147TIP3    H136932   5.758   4.173   2.092  1.2314  0.6374  0.1181
 5147TIP3    H236933   5.887   4.095   2.109 -0.1295 -1.5551  0.8315
 5148TIP3   OH236934   5.526   1.188   1.302 -0.2806 -0.1928  0.1555
 5148TIP3    H136935   5.597   1.252   1.298 -0.1870 -0.2331  1.0054
 5148TIP3    H236936   5.455   1.233   1.346 -0.6860 -0.2431 -0.4491
 5149TIP3   OH236937   0.960   2.789  13.810  0.3483 -0.4932  0.2724
 5149TIP3    H136938   0.927   2.713  13.859 -1.1788 -0.8153 -1.1785
 5149TIP3    H236939   0.914   2.863  13.849 -2.9016 -0.9962 -2.1532
 5150TIP3   OH236940   1.204   0.639   1.630  0.5673 -0.2592 -0.0126
 5150TIP3    H136941   1.192   0.676   1.718  0.4057  0.3244 -0.2790
 5150TIP3    H236942   1.185   0.711   1.571  1.5946 -0.3835 -0.5204
 5151TIP3   OH236943   5.142   1.000   4.760  0.1910 -0.0741  0.3732
 5151TIP3    H136944   5.105   0.974   4.844  0.8497 -0.0981  0.6555
 5151TIP3    H236945   5.161   1.093   4.770 -2.1361  0.6030 -0.6242
 5152TIP3   OH236946   1.422   1.064   1.926  0.1787 -0.3591  0.4165
 5152TIP3    H136947   1.458   1.124   1.861 -3.3267  1.7786  0.1825
 5152TIP3    H236948   1.354   1.016   1.879 -0.4732 -0.8462  1.7935
 5153TIP3   OH236949   0.014   5.963   5.552 -0.0624  0.5474  0.2962
 5153TIP3    H136950  -0.025   5.886   5.510 -0.0474 -0.3423  1.8459
 5153TIP3    H236951   0.108   5.947   5.550  0.0135  1.0565 -0.3626
 5154TIP3   OH236952   3.463   5.839  12.700 -0.3443  0.1306  0.1332
 5154TIP3    H136953   3.499   5.926  12.683 -1.0278  0.6336  1.1824
 5154TIP3    H236954   3.481   5.790  12.619  1.6062  0.6916  0.1702
 5155TIP3   OH236955   6.039   2.093  16.380  0.3065 -0.3976  0.7796
 5155TIP3    H136956   5.998   2.156  16.439  2.0870 -0.6882  2.4220
 5155TIP3    H236957   6.024   2.129  16.293  0.1998  1.6476  1.5931
 5156TIP3   OH236958   3.419   5.277  11.045 -0.3809 -0.2761 -0.6947
 5156TIP3    H136959   3.434   5.191  11.005 -0.0021 -0.3648 -0.3694
 5156TIP3    H236960   3.499   5.295  11.095 -1.1034 -0.4982  0.5993
 5157TIP3   OH236961   1.680   4.142   3.130  0.4998 -0.0025 -0.1424
 5157TIP3    H136962   1.744   4.075   3.106  1.4363  0.7363  0.2000
 5157TIP3    H236963   1.732   4.211   3.171 -0.5566  0.5184  0.3786
 5158TIP3   OH236964   6.634   1.800   0.441  0.1683 -0.5716  0.4552
 5158TIP3    H136965   6.708   1.861   0.443 -1.1951  1.2685 -0.9933
 5158TIP3    H236966   6.614   1.783   0.533  1.3673  0.2233  0.8808
 5159TIP3   OH236967   3.644   4.988   1.816 -0.7438 -0.0283  0.6149
 5159TIP3    H136968   3.719   4.943   1.778  0.9434  1.3487  2.1517
 5159TIP3    H236969   3.626   5.059   1.755 -0.3962  0.0045  0.5489
 5160TIP3   OH236970   2.859   4.465  15.229 -0.0494  0.0985  0.2801
 5160TIP3    H136971   2.846   4.392  15.169  1.9305 -0.2638  0.2293
 5160TIP3    H236972   2.773   4.478  15.271 -0.2960 -2.6807  0.7947
 5161TIP3   OH236973   5.272   2.070  11.469  0.5668 -0.3455  0.2445
 5161TIP3    H136974   5.204   2.064  11.403  0.9422  0.1920 -0.2014
 5161TIP3    H236975   5.252   2.150  11.517  0.9518 -0.1181  0.0299
 5162TIP3   OH236976   6.006   0.858   1.474  0.0036  0.7914  0.2445
 5162TIP3    H136977   6.090   0.844   1.517  0.2753  0.6417 -0.3218
 5162TIP3    H236978   5.948   0.792   1.512  0.7760 -0.6961 -1.0471
 5163TIP3   OH236979   5.651   0.232  12.892  0.3606  0.1262  0.0468
 5163TIP3    H136980   5.658   0.139  12.914  0.9343 -0.0967 -0.9980
 5163TIP3    H236981   5.705   0.276  12.959  1.5150 -0.4628 -0.4596
 5164TIP3   OH236982   1.574   2.507   2.207  0.5230  0.1805 -0.4173
 5164TIP3    H136983   1.542   2.420   2.231  0.0687  0.2895 -0.6280
 5164TIP3    H236984   1.537   2.565   2.273 -0.8085  0.4958 -1.4004
 5165TIP3   OH236985   5.696   6.530  16.991  0.2707  0.6631 -0.1768
 5165TIP3    H136986   5.612   6.545  17.035  0.2435  0.4255 -0.1429
 5165TIP3    H236987   5.760   6.578  17.044  0.3045  0.0082  0.3942
 5166TIP3   OH236988   2.746   1.658   4.031  0.4305  0.6465  0.0011
 5166TIP3    H136989   2.709   1.594   4.092 -0.4993  0.6332 -0.5629
 5166TIP3    H236990   2.747   1.740   4.080  2.0790  0.1522  0.8971
 5167TIP3   OH236991   3.937   2.837   0.513 -0.0783  0.1449  0.4459
 5167TIP3    H136992   3.986   2.844   0.430 -0.7110 -1.5534 -0.1097
 5167TIP3    H236993   3.846   2.852   0.488 -0.3623 -1.0926  0.6977
 5168TIP3   OH236994   5.096   0.090   3.445  0.3107 -0.7445  0.6066
 5168TIP3    H136995   5.072   0.113   3.535 -0.3691  0.9153  0.0300
 5168TIP3    H236996   5.189   0.109   3.440  0.1386  0.1766  0.6833
 5169TIP3   OH236997   4.979   0.757   2.924 -0.5979 -0.1277 -0.3235
 5169TIP3    H136998   4.953   0.808   3.001  0.1091  2.0861 -1.4549
 5169TIP3    H236999   4.934   0.800   2.851  1.3501 -0.0298 -1.5466
 5170TIP3   OH237000   0.717   2.880  16.796 -0.0501 -0.4834 -0.3781
 5170TIP3    H137001   0.749   2.790  16.781  0.4486 -0.3709 -0.0278
 5170TIP3    H237002   0.622   2.872  16.794 -0.1371 -1.5772  2.5615
 5171TIP3   OH237003   2.493   5.728  15.579 -0.3765 -0.2470  0.1063
 5171TIP3    H137004   2.519   5.638  15.599  0.3759 -0.2717 -0.9241
 5171TIP3    H237005   2.575   5.776  15.571 -0.7194  0.2240 -0.7142
 5172TIP3   OH237006   4.990   3.715   3.469 -0.3038 -0.1952 -0.2513
 5172TIP3    H137007   5.023   3.724   3.380  0.4137  0.0779  0.0284
 5172TIP3    H237008   4.895   3.724   3.462 -0.3546 -1.2792 -1.1252
 5173TIP3   OH237009   6.004   3.175  11.118 -0.1111 -0.1435 -0.2857
 5173TIP3    H137010   6.024   3.081  11.116 -1.8003 -0.5113 -0.6973
 5173TIP3    H237011   5.910   3.180  11.129 -0.1722  1.5100 -1.2441
 5174TIP3   OH237012   5.081   0.902  15.781  0.2641  0.0711 -0.5164
 5174TIP3    H137013   5.077   0.914  15.686 -1.2068 -0.5615 -0.5590
 5174TIP3    H237014   5.146   0.832  15.794 -0.5273 -0.8085 -1.1731
 5175TIP3   OH237015   0.050   2.667   3.738 -0.1464 -0.4997  0.4940
 5175TIP3    H137016   0.007   2.753   3.742  0.1430 -0.3924  1.3171
 5175TIP3    H237017   0.046   2.643   3.645  0.4616  0.7464  0.1365
 5176TIP3   OH237018   1.715   1.455   2.196 -0.1396 -0.0138 -0.4893
 5176TIP3    H137019   1.686   1.365   2.180  1.1249 -0.0963 -2.6925
 5176TIP3    H237020   1.786   1.446   2.259  0.0054 -0.5710 -0.7222
 5177TIP3   OH237021   1.502   0.701   2.636 -0.4327  0.3727 -0.3462
 5177TIP3    H137022   1.513   0.607   2.621 -1.2983  0.4936 -2.0669
 5177TIP3    H237023   1.523   0.740   2.551 -1.3052  1.6177 -0.0050
 5178TIP3   OH237024   5.810   2.971  16.224  0.0111  0.0369  0.3068
 5178TIP3    H137025   5.722   3.003  16.244 -0.4918 -1.2156  0.1536
 5178TIP3    H237026   5.815   2.885  16.264  1.0863 -0.0221  0.0932
 5179TIP3   OH237027   0.215   2.626   5.390 -0.0193  0.0946 -0.2569
 5179TIP3    H137028   0.150   2.579   5.443  0.1293 -0.0430 -0.1986
 5179TIP3    H237029   0.164   2.662   5.317 -0.1099 -0.2637 -0.3693
 5180TIP3   OH237030   4.586   6.194   1.682 -0.0568  0.5244  0.0929
 5180TIP3    H137031   4.540   6.177   1.764 -1.3555  2.6120 -0.1280
 5180TIP3    H237032   4.614   6.108   1.652 -0.0660 -0.3618  2.4093
 5181TIP3   OH237033   5.649   5.866  11.789 -0.2745  0.0449  0.4345
 5181TIP3    H137034   5.651   5.929  11.718  0.1884  1.5305  1.7145
 5181TIP3    H237035   5.575   5.808  11.768 -1.1597  1.4341 -0.4289
 5182TIP3   OH237036   4.563   5.894  11.645  0.5565 -0.0694 -0.2642
 5182TIP3    H137037   4.523   5.978  11.668  1.8022  0.4962 -0.1193
 5182TIP3    H237038   4.488   5.836  11.629 -0.3195  1.1295 -0.6414
 5183TIP3   OH237039   4.476   2.913  10.809  0.7605  0.4827 -0.1278
 5183TIP3    H137040   4.478   2.866  10.726 -0.1838 -0.3967  0.3266
 5183TIP3    H237041   4.530   2.991  10.794  1.6401 -0.2963 -1.1662
 5184TIP3   OH237042   2.407   1.219  14.361 -0.2984  0.4847  0.5800
 5184TIP3    H137043   2.501   1.226  14.377 -0.4683 -1.8439  3.4257
 5184TIP3    H237044   2.373   1.306  14.382  1.0866  1.0503  0.6074
 5185TIP3   OH237045   4.194   2.564  12.825 -0.1097  0.3384  0.1244
 5185TIP3    H137046   4.272   2.613  12.796 -1.3211  1.9495 -0.5878
 5185TIP3    H237047   4.137   2.563  12.748 -0.9004 -0.6278  0.7027
 5186TIP3   OH237048   6.762   2.519   1.833 -0.6171 -0.0902  0.4370
 5186TIP3    H137049   6.765   2.522   1.737 -0.4761  0.3493  0.4528
 5186TIP3    H237050   6.674   2.486   1.853 -0.3960 -0.8643  0.1497
 5187TIP3   OH237051   1.465   2.728  11.547  0.3964  0.1474  0.6064
 5187TIP3    H137052   1.434   2.818  11.538  0.2890 -0.0965 -2.2147
 5187TIP3    H237053   1.402   2.686  11.606 -1.2683  1.1697 -0.3735
 5188TIP3   OH237054   2.561   6.511   3.676 -0.0738  0.6050  0.0825
 5188TIP3    H137055   2.624   6.581   3.692 -0.7922  0.8882  1.9131
 5188TIP3    H237056   2.578   6.447   3.745 -1.0185  0.1090 -0.1286
 5189TIP3   OH237057   4.555   1.488  16.464 -0.3197 -0.2268  0.4378
 5189TIP3    H137058   4.645   1.520  16.455 -0.6494  1.2310  1.8617
 5189TIP3    H237059   4.544   1.473  16.558 -0.8303 -2.7595  0.0490
 5190TIP3   OH237060   0.543   6.422   4.578  0.4656 -0.5047 -0.7669
 5190TIP3    H137061   0.496   6.496   4.539 -0.3446  0.1899  1.3785
 5190TIP3    H237062   0.536   6.352   4.513 -0.9472  0.5195 -1.7809
 5191TIP3   OH237063   5.288   3.101   3.833  0.5634  0.2874  0.4449
 5191TIP3    H137064   5.271   3.112   3.926  0.3767  2.0569  0.2332
 5191TIP3    H237065   5.221   3.153   3.790 -0.2216 -1.6081 -0.7654
 5192TIP3   OH237066   3.287   3.392  15.485  0.1439  0.3498  0.5863
 5192TIP3    H137067   3.327   3.429  15.407 -0.1128  0.0799  0.3255
 5192TIP3    H237068   3.202   3.360  15.456  1.0150 -1.9924  0.3923
 5193TIP3   OH237069   2.384   1.294  16.146 -0.1185  0.2587 -0.3893
 5193TIP3    H137070   2.332   1.321  16.071 -0.3080  0.8731 -0.0425
 5193TIP3    H237071   2.442   1.225  16.112 -1.8109 -1.1429 -0.5485
 5194TIP3   OH237072   2.195   5.080  11.571  0.1908 -0.1347 -0.3083
 5194TIP3    H137073   2.103   5.104  11.585  0.9373  2.0495  1.4523
 5194TIP3    H237074   2.202   4.990  11.602 -1.7366 -1.1536 -2.4884
 5195TIP3   OH237075   5.431   1.961   4.611  0.1475  0.1828 -0.0712
 5195TIP3    H137076   5.410   1.869   4.626  1.0690  0.2144  1.8633
 5195TIP3    H237077   5.348   2.003   4.591 -0.1916 -1.1527 -1.6572
 5196TIP3   OH237078   5.809   5.594   1.079  0.1732 -0.0134  0.1662
 5196TIP3    H137079   5.745   5.595   1.007  1.2329  0.1468 -0.8075
 5196TIP3    H237080   5.893   5.610   1.036  0.9554 -0.8401  1.3488
 5197TIP3   OH237081   3.155   6.800   4.522  0.1396  0.1316 -0.4930
 5197TIP3    H137082   3.080   6.853   4.497  0.6168  0.4815 -1.2415
 5197TIP3    H237083   3.120   6.733   4.580 -0.4170  1.4834  0.7803
 5198TIP3   OH237084   3.156   1.414  15.457  0.1238 -0.4428 -0.0738
 5198TIP3    H137085   3.115   1.498  15.436  1.8791  0.5291  0.1524
 5198TIP3    H237086   3.236   1.413  15.403 -0.3464 -2.4320 -0.8099
 5199TIP3   OH237087   4.897   6.241   0.833 -0.3466 -0.2669 -0.7969
 5199TIP3    H137088   4.937   6.309   0.887 -0.0009 -1.2208  0.2001
 5199TIP3    H237089   4.810   6.228   0.871 -1.0246  0.7007 -1.9719
 5200TIP3   OH237090   0.652   3.640  17.156 -0.5130  0.2408 -0.3794
 5200TIP3    H137091   0.702   3.707  17.109 -0.6382 -0.3374 -1.3740
 5200TIP3    H237092   0.692   3.636  17.243  1.9795 -1.0042 -1.4740
 5201TIP3   OH237093   6.149   2.416  12.056  0.4118  0.2988 -0.1533
 5201TIP3    H137094   6.144   2.448  11.966 -1.1053 -0.2712 -0.2891
 5201TIP3    H237095   6.068   2.446  12.096 -0.6998 -2.6327 -0.0465
 5202TIP3   OH237096   4.811   5.148   2.687 -0.8636  0.4277 -0.1130
 5202TIP3    H137097   4.828   5.143   2.781 -2.1870  0.4211  0.1517
 5202TIP3    H237098   4.897   5.141   2.646 -0.4641 -2.1322  0.9903
 5203TIP3   OH237099   4.810   4.353  15.765  0.1581 -0.2945 -0.3654
 5203TIP3    H137100   4.758   4.315  15.695  0.4072  1.6199 -1.6469
 5203TIP3    H237101   4.745   4.392  15.824 -0.2906 -4.1664  2.1185
 5204TIP3   OH237102   3.317   1.350   3.644  0.0429 -0.6839  0.0014
 5204TIP3    H137103   3.348   1.378   3.557 -1.8524  0.9656 -0.2314
 5204TIP3    H237104   3.270   1.268   3.627  0.2872 -0.7466 -0.3964
 5205TIP3   OH237105   0.787   6.061   1.224  0.0654 -0.2502  0.0748
 5205TIP3    H137106   0.710   6.005   1.236  0.4276 -0.5697  0.9647
 5205TIP3    H237107   0.758   6.148   1.249 -0.2441 -0.1964 -0.4414
 5206TIP3   OH237108   5.203   6.804   2.386 -0.0574  0.1107 -0.1379
 5206TIP3    H137109   5.173   6.777   2.472  1.4200 -0.1172  0.3208
 5206TIP3    H237110   5.267   6.874   2.403 -0.1000  0.3940 -1.0702
 5207TIP3   OH237111   6.135   3.450   2.652 -0.6853 -0.1578 -0.4610
 5207TIP3    H137112   6.071   3.379   2.660  0.4571 -1.0779  1.0283
 5207TIP3    H237113   6.149   3.458   2.558 -1.7870 -1.0324 -0.7315
 5208TIP3   OH237114   5.435   6.277   2.300 -0.6421 -0.1173 -0.4351
 5208TIP3    H137115   5.374   6.346   2.276  0.1679  0.4079 -1.0119
 5208TIP3    H237116   5.504   6.321   2.349 -0.7948 -0.7363  0.3797
 5209TIP3   OH237117   1.852   0.872   3.719  0.4351 -0.3682  0.3061
 5209TIP3    H137118   1.935   0.873   3.766  0.9410  0.5181 -0.5856
 5209TIP3    H237119   1.790   0.835   3.782  1.1993  0.3030  1.4936
 5210TIP3   OH237120   6.546   0.512  16.037  0.6923  0.4670 -0.3747
 5210TIP3    H137121   6.548   0.600  16.073  0.4970  0.8476 -1.2625
 5210TIP3    H237122   6.627   0.471  16.067  0.5392  0.7685  0.4703
 5211TIP3   OH237123   6.221   0.582  14.422 -0.1707  0.3794 -0.1847
 5211TIP3    H137124   6.144   0.623  14.460  0.9349  3.0960 -0.6312
 5211TIP3    H237125   6.205   0.583  14.327  1.5874  4.1069 -0.6507
 5212TIP3   OH237126   3.433   2.594   3.896 -0.0206  0.0755  0.1262
 5212TIP3    H137127   3.404   2.636   3.977 -0.2231 -0.2729  0.2386
 5212TIP3    H237128   3.369   2.621   3.830  0.6853  1.1337 -0.1382
 5213TIP3   OH237129   1.296   4.130   2.074 -0.3573 -0.3154 -0.0146
 5213TIP3    H137130   1.251   4.161   2.153  0.2188 -0.3660  0.3383
 5213TIP3    H237131   1.230   4.078   2.028 -0.3721 -1.2595  1.0228
 5214TIP3   OH237132   2.352   1.469  14.442  0.1773  0.1931  0.1182
 5214TIP3    H137133   2.369   1.512  14.527 -3.0002  1.0657  0.4595
 5214TIP3    H237134   2.291   1.528  14.398 -1.3308 -2.1039 -1.0819
 5215TIP3   OH237135   6.572   0.953  11.002  0.4749 -0.3810 -0.2286
 5215TIP3    H137136   6.555   1.043  11.030 -1.1080  0.6342 -3.8713
 5215TIP3    H237137   6.666   0.942  11.016  0.2979  0.8198  2.6730
 5216TIP3   OH237138   5.942   1.600   1.205  0.5763 -0.2663 -0.1668
 5216TIP3    H137139   5.884   1.575   1.133  0.1065  0.9586 -0.2226
 5216TIP3    H237140   6.017   1.640   1.162 -0.1974  1.4769  0.0389
 5217TIP3   OH237141   2.112   2.742   2.040  0.0366 -0.2399  0.0762
 5217TIP3    H137142   2.047   2.802   2.077  0.4347 -0.0244  0.4471
 5217TIP3    H237143   2.145   2.694   2.116  0.3231 -0.3291 -0.1055
 5218TIP3   OH237144   4.723   5.095   3.181  0.5842  0.0270  0.0840
 5218TIP3    H137145   4.763   5.089   3.268 -2.2683 -0.2108  1.4951
 5218TIP3    H237146   4.683   5.182   3.179  0.1150 -0.2009 -0.7570
 5219TIP3   OH237147   2.752   1.082  11.354  0.6183 -0.0760  0.3321
 5219TIP3    H137148   2.730   0.991  11.374  0.1358  0.3984  2.0851
 5219TIP3    H237149   2.674   1.132  11.378  0.4322  0.7207 -1.7114
 5220TIP3   OH237150   0.071   4.011  12.751  0.5179 -0.1022 -0.1816
 5220TIP3    H137151   0.063   4.000  12.656  1.5493  1.7282 -0.5401
 5220TIP3    H237152  -0.012   3.978  12.786 -0.0962 -0.3364 -1.7638
 5221TIP3   OH237153   3.486   5.194  16.640  0.3528  0.0822 -0.0091
 5221TIP3    H137154   3.564   5.146  16.664  0.8166  0.8278  0.0138
 5221TIP3    H237155   3.519   5.274  16.598 -0.3922  0.3512 -0.1002
 5222TIP3   OH237156   4.862   5.328   5.939 -0.3591  0.3300 -0.0965
 5222TIP3    H137157   4.896   5.418   5.947 -0.6234  0.4932 -0.7579
 5222TIP3    H237158   4.824   5.310   6.025  0.2253  0.6287  0.2367
 5223TIP3   OH237159   3.892   4.178  13.736 -0.0298 -0.1165 -0.2731
 5223TIP3    H137160   3.861   4.118  13.667  0.0328  0.6318 -0.9679
 5223TIP3    H237161   3.822   4.177  13.801 -0.1031 -0.8216 -0.3510
 5224TIP3   OH237162   5.453   0.164  14.415 -0.1144  0.3705  0.2021
 5224TIP3    H137163   5.425   0.220  14.487  0.8246  0.4325  0.5386
 5224TIP3    H237164   5.430   0.076  14.442  0.2522  0.3928  0.5920
 5225TIP3   OH237165   1.448   0.068   2.148 -0.2339 -0.0501 -0.2480
 5225TIP3    H137166   1.371   0.045   2.095 -0.1222 -2.1137  0.4379
 5225TIP3    H237167   1.514   0.094   2.083 -0.5356 -1.2226 -1.0565
 5226TIP3   OH237168   4.079   3.090   1.164 -0.7644  0.8739  0.0997
 5226TIP3    H137169   4.152   3.029   1.160 -0.0280  1.6499  1.2388
 5226TIP3    H237170   4.035   3.081   1.079  0.1532 -0.2010 -0.2751
 5227TIP3   OH237171   4.571   5.762  16.020  0.3562  0.1137 -0.0769
 5227TIP3    H137172   4.595   5.750  15.928 -1.0032 -2.1479 -0.1987
 5227TIP3    H237173   4.512   5.838  16.019  1.2489  0.8118 -0.8858
 5228TIP3   OH237174   1.316   3.826   3.002 -0.1354 -0.2587 -0.1614
 5228TIP3    H137175   1.402   3.858   3.029 -0.6303  0.4940  0.5735
 5228TIP3    H237176   1.266   3.905   2.981 -1.1457 -0.5494  0.9838
 5229TIP3   OH237177   6.538   4.817   6.050  0.4561  0.4739 -0.1880
 5229TIP3    H137178   6.548   4.895   6.105 -1.3134 -0.7126  2.0078
 5229TIP3    H237179   6.468   4.840   5.989 -1.2320  0.1526  1.5320
 5230TIP3   OH237180   1.027   4.197   1.840 -0.0976 -0.2426  0.3377
 5230TIP3    H137181   0.996   4.237   1.759  1.7902 -1.7062 -1.2227
 5230TIP3    H237182   1.106   4.246   1.863  0.0547 -0.5970  0.5953
 5231TIP3   OH237183   1.854   5.747  13.244 -0.6763 -0.8343  0.2054
 5231TIP3    H137184   1.763   5.770  13.264  0.1264  2.0127  1.0958
 5231TIP3    H237185   1.858   5.652  13.252 -3.3475 -0.9401  1.0379
 5232TIP3   OH237186   0.606   0.296   2.118 -0.6144  0.3770  0.2395
 5232TIP3    H137187   0.569   0.360   2.057 -0.9731 -0.0978 -0.0396
 5232TIP3    H237188   0.616   0.345   2.200  0.2173  1.1303 -0.2859
 5233TIP3   OH237189   0.032   5.563  11.423 -0.0828  0.6349 -0.3936
 5233TIP3    H137190   0.027   5.541  11.330 -1.1076  0.1522 -0.2459
 5233TIP3    H237191   0.079   5.489  11.463 -1.2566 -0.0835 -0.2794
 5234TIP3   OH237192   4.880   1.209  13.268 -0.1233 -0.5589 -1.1578
 5234TIP3    H137193   4.818   1.237  13.201  0.7398  0.6337 -1.4883
 5234TIP3    H237194   4.966   1.213  13.224  0.6637  1.7695  0.4140
 5235TIP3   OH237195   1.303   4.908  15.893 -0.2210 -0.5716 -0.0285
 5235TIP3    H137196   1.222   4.905  15.943 -0.2402 -0.1661 -0.0324
 5235TIP3    H237197   1.327   4.816  15.880  0.9802 -0.7411  2.6509
 5236TIP3   OH237198   1.742   1.362   0.136 -0.3966  0.5976 -0.1820
 5236TIP3    H137199   1.797   1.300   0.185 -0.4542  0.6425 -0.0594
 5236TIP3    H237200   1.792   1.380   0.056  0.1262  1.2154  0.2679
 5237TIP3   OH237201   3.733   0.655   0.653 -0.1644 -0.5482 -0.4492
 5237TIP3    H137202   3.642   0.666   0.680  0.2325  0.5541  0.5788
 5237TIP3    H237203   3.758   0.569   0.686 -0.7544 -0.7459 -0.5122
 5238TIP3   OH237204   5.066   2.294   3.962 -0.3063 -0.0101 -0.0674
 5238TIP3    H137205   5.022   2.276   3.880 -1.1555  1.5175  0.0263
 5238TIP3    H237206   5.039   2.383   3.986 -0.0380 -0.3854  1.8291
 5239TIP3   OH237207   3.652   3.022  15.330  0.7202 -0.3919 -0.1138
 5239TIP3    H137208   3.616   2.933  15.330  0.8831 -0.4576 -0.1647
 5239TIP3    H237209   3.742   3.012  15.359  2.9293 -1.1391 -5.9307
 5240TIP3   OH237210   2.060   4.100   5.459 -0.0029 -0.0362  0.4701
 5240TIP3    H137211   2.090   4.135   5.543  2.4239 -1.1765  0.1615
 5240TIP3    H237212   2.099   4.013   5.454 -1.2629 -0.5504 -1.2328
 5241TIP3   OH237213   0.644   4.423  16.852 -0.0418  0.0999 -0.4495
 5241TIP3    H137214   0.567   4.479  16.843  0.0478  0.0069 -2.3064
 5241TIP3    H237215   0.693   4.438  16.771  0.8362 -1.3983 -0.2261
 5242TIP3   OH237216   6.485   6.416  14.967 -0.7737 -0.4065  0.0198
 5242TIP3    H137217   6.484   6.507  14.936 -1.0365 -0.8122 -1.2204
 5242TIP3    H237218   6.568   6.380  14.935  0.5093  0.0310  2.5658
 5243TIP3   OH237219   4.494   1.799  12.850 -0.4719 -0.1409 -0.6599
 5243TIP3    H137220   4.493   1.711  12.887  1.7634 -0.3038 -0.8900
 5243TIP3    H237221   4.483   1.785  12.756 -3.0007  0.0809 -0.4810
 5244TIP3   OH237222   4.871   4.472  13.256  0.0156  0.0663  0.4271
 5244TIP3    H137223   4.868   4.545  13.194  0.2168 -0.5948 -0.3818
 5244TIP3    H237224   4.943   4.493  13.315 -0.2674  0.7736  0.5329
 5245TIP3   OH237225   4.880   5.299  12.774  0.0519  0.1075  0.3915
 5245TIP3    H137226   4.939   5.292  12.698  0.2097 -0.1496  0.5371
 5245TIP3    H237227   4.832   5.216  12.774  0.7911 -0.3392  1.1812
 5246TIP3   OH237228   2.092   5.755  13.089  0.6262 -0.1447  0.3752
 5246TIP3    H137229   2.156   5.813  13.132 -0.0359  0.7778  0.1351
 5246TIP3    H237230   2.014   5.761  13.143 -0.6105  1.9117 -1.4695
 5247TIP3   OH237231   2.710   4.384  16.987  0.3273  0.0844  0.0302
 5247TIP3    H137232   2.763   4.395  17.066  1.2907 -0.3106 -0.5374
 5247TIP3    H237233   2.679   4.293  16.991 -0.6105  0.4127  0.5287
 5248TIP3   OH237234   3.098   0.667  11.946  0.5285 -0.4135  0.3165
 5248TIP3    H137235   3.138   0.660  11.860 -0.5631 -0.4779 -0.1991
 5248TIP3    H237236   3.160   0.624  12.005  0.4738 -1.9500 -0.7028
 5249TIP3   OH237237   4.672   0.397  15.808  0.1009 -0.4416  0.4104
 5249TIP3    H137238   4.627   0.336  15.866  0.7637 -0.6742  0.6825
 5249TIP3    H237239   4.720   0.456  15.866  0.5188 -0.4821  0.1154
 5250TIP3   OH237240   3.051   0.756  13.067  0.0079  0.1982  0.4865
 5250TIP3    H137241   2.965   0.756  13.109 -0.5831  2.4622 -0.5274
 5250TIP3    H237242   3.033   0.735  12.976  0.2318  2.2058 -0.0779
 5251TIP3   OH237243   1.188   1.877   4.533 -0.1149  0.4239  0.0633
 5251TIP3    H137244   1.251   1.811   4.505  0.8616  1.6505 -0.7481
 5251TIP3    H237245   1.155   1.845   4.616  1.0375 -0.6282  0.1412
 5252TIP3   OH237246   0.785   3.691   0.167 -0.4569  0.0982 -0.0422
 5252TIP3    H137247   0.719   3.640   0.214 -0.8235 -0.1694 -0.8430
 5252TIP3    H237248   0.843   3.725   0.236  1.3334 -3.4436  0.4098
 5253TIP3   OH237249   3.274   5.770   5.987 -0.0324  0.3042  0.2740
 5253TIP3    H137250   3.195   5.778   6.041 -1.3647 -1.4028 -1.2631
 5253TIP3    H237251   3.274   5.850   5.933 -2.3769 -0.8498 -1.6493
 5254TIP3   OH237252   6.802   6.073   4.144  0.3523 -0.1797  0.5938
 5254TIP3    H137253   6.825   6.117   4.225  0.1783  2.5389 -0.7151
 5254TIP3    H237254   6.878   6.087   4.087 -0.3297 -0.2122 -0.3577
 5255TIP3   OH237255   1.463   2.629   3.546 -0.6026  0.3472 -0.3604
 5255TIP3    H137256   1.529   2.674   3.493 -0.7146 -0.5182 -1.2669
 5255TIP3    H237257   1.395   2.694   3.561  0.3358  1.1869  0.3911
 5256TIP3   OH237258   4.367   3.713  13.318  0.3178 -0.0000  0.7543
 5256TIP3    H137259   4.388   3.777  13.251 -0.7264 -0.8604 -0.4522
 5256TIP3    H237260   4.409   3.632  13.289  0.4784 -0.2074  1.5315
 5257TIP3   OH237261   4.360   5.157  15.454 -0.5015 -0.4155  0.5163
 5257TIP3    H137262   4.279   5.128  15.497 -0.3764 -1.4931  0.0707
 5257TIP3    H237263   4.369   5.249  15.477 -1.9494 -0.2378  0.4421
 5258TIP3   OH237264   0.984   2.308   1.782 -0.0347  0.1221 -0.8165
 5258TIP3    H137265   0.977   2.263   1.698 -1.9480  1.7341 -1.6062
 5258TIP3    H237266   0.979   2.401   1.759  1.4385  0.6839  0.9345
 5259TIP3   OH237267   4.803   6.693  12.225 -0.0827  0.0870 -0.0088
 5259TIP3    H137268   4.717   6.704  12.183  0.7229  1.4398 -1.4364
 5259TIP3    H237269   4.859   6.659  12.155  1.5828  3.4713 -0.4962
 5260TIP3   OH237270   2.155   2.567  13.040  0.5299  0.2684  0.4070
 5260TIP3    H137271   2.111   2.630  12.983  0.8374 -1.0837 -1.4053
 5260TIP3    H237272   2.090   2.546  13.107 -0.8089  0.0079 -0.9174
 5261TIP3   OH237273   1.905   0.455  15.465 -0.2901  0.5119  0.2171
 5261TIP3    H137274   1.968   0.488  15.402  0.1849 -0.5831  0.0996
 5261TIP3    H237275   1.950   0.459  15.549 -0.1933  0.0685  0.1872
 5262TIP3   OH237276   0.085   2.404  13.928  0.4275  0.1461 -0.7098
 5262TIP3    H137277  -0.002   2.364  13.926 -0.5245  1.8985  1.1655
 5262TIP3    H237278   0.090   2.454  13.847 -0.3627  0.0921 -0.8017
 5263TIP3   OH237279   6.614   1.148   2.957  0.2507  0.5537  0.2465
 5263TIP3    H137280   6.527   1.176   2.928  0.9888  3.1294  0.3003
 5263TIP3    H237281   6.638   1.079   2.895 -1.9432 -0.5153  0.4721
 5264TIP3   OH237282   3.490   2.840  12.567 -0.2108 -0.1314 -1.1609
 5264TIP3    H137283   3.546   2.840  12.645 -0.6616  1.2855 -0.8150
 5264TIP3    H237284   3.508   2.924  12.524 -2.9600  0.9611 -0.3520
 5265TIP3   OH237285   4.741   5.173  15.476 -0.6052 -0.0213 -0.3172
 5265TIP3    H137286   4.685   5.245  15.446  0.7455  0.7524 -1.1101
 5265TIP3    H237287   4.827   5.214  15.489 -0.5815 -0.8064  2.5622
 5266TIP3   OH237288   2.375   2.756   1.970 -0.0309  0.2022  0.9389
 5266TIP3    H137289   2.385   2.813   1.894  1.8494 -0.4530  0.6450
 5266TIP3    H237290   2.281   2.737   1.973 -0.6330  2.8398  0.7410
 5267TIP3   OH237291   3.382   0.002   4.321  0.3737  0.0974 -0.4501
 5267TIP3    H137292   3.453   0.061   4.347  0.1950  0.3279 -0.4861
 5267TIP3    H237293   3.320   0.005   4.393  0.0774  0.4169 -0.7138
 5268TIP3   OH237294   0.838   5.697   3.940  0.9472  0.5997 -0.5720
 5268TIP3    H137295   0.856   5.789   3.958 -1.4602  1.2346 -1.0011
 5268TIP3    H237296   0.823   5.658   4.026  1.9533  0.5761 -0.3908
 5269TIP3   OH237297   6.676   5.604   4.645  0.1228  0.6818 -0.2193
 5269TIP3    H137298   6.637   5.550   4.714  1.0543 -1.3517 -1.1883
 5269TIP3    H237299   6.768   5.579   4.644 -0.2466 -1.1473 -3.6457
 5270TIP3   OH237300   0.902   0.340  13.265 -0.5269 -0.0753  0.9078
 5270TIP3    H137301   0.992   0.355  13.294  0.7983  0.3136 -2.9399
 5270TIP3    H237302   0.896   0.245  13.255 -0.1844 -0.0335  0.2412
 5271TIP3   OH237303   2.993   3.493   0.963  0.0294  0.3519 -0.0384
 5271TIP3    H137304   2.944   3.523   1.040  0.0983  1.1715 -0.3065
 5271TIP3    H237305   3.037   3.571   0.931  1.2136 -0.2924 -0.0363
 5272TIP3   OH237306   4.995   4.484  14.051  0.1579 -0.1471 -0.0691
 5272TIP3    H137307   4.918   4.471  13.995 -0.8309 -1.7932  1.5380
 5272TIP3    H237308   4.964   4.543  14.120  1.2739  1.6256 -1.0136
 5273TIP3   OH237309   2.969   3.537  15.167  0.1379 -0.4278  0.4206
 5273TIP3    H137310   3.025   3.585  15.228 -1.1414 -0.1179  1.4103
 5273TIP3    H237311   2.882   3.576  15.180 -1.0404 -3.1695  1.4628
 5274TIP3   OH237312   1.616   4.299   2.377  0.1951  0.3398  0.6055
 5274TIP3    H137313   1.566   4.342   2.308 -1.6471 -2.6724 -0.1259
 5274TIP3    H237314   1.603   4.354   2.454 -1.8803  1.1941 -0.2841
 5275TIP3   OH237315   2.564   0.168  13.684  0.0060 -0.2886 -0.4248
 5275TIP3    H137316   2.609   0.252  13.674 -2.1359  1.1891  1.3495
 5275TIP3    H237317   2.576   0.146  13.777 -2.9112  0.2970  0.2059
 5276TIP3   OH237318   0.475   4.982   3.865  0.0211 -0.3035 -0.1203
 5276TIP3    H137319   0.557   4.939   3.889 -0.2069 -1.0130 -0.5953
 5276TIP3    H237320   0.503   5.067   3.829  0.4878 -0.1693  0.5291
 5277TIP3   OH237321   1.011   1.875  11.480  0.2219  0.1862 -0.4787
 5277TIP3    H137322   1.105   1.891  11.484  0.5251 -1.3131 -0.9275
 5277TIP3    H237323   0.974   1.958  11.451  1.0063  1.9234  2.8878
 5278TIP3   OH237324   0.184   2.738   3.343 -0.7731  0.6649  0.5818
 5278TIP3    H137325   0.163   2.671   3.408 -1.4155  0.3576  0.0731
 5278TIP3    H237326   0.149   2.819   3.381 -2.6889  0.2171 -0.1006
 5279TIP3   OH237327   0.181   4.281  15.911 -0.5167 -0.1062  0.3196
 5279TIP3    H137328   0.224   4.231  15.842 -0.0396  1.2307 -0.3989
 5279TIP3    H237329   0.247   4.344  15.940 -0.8021 -0.4485  1.8188
 5280TIP3   OH237330   0.338   5.255   3.767 -0.1935  0.6978 -0.0464
 5280TIP3    H137331   0.432   5.257   3.749  0.0105  1.2356  1.0097
 5280TIP3    H237332   0.298   5.230   3.683  0.9686 -0.8230 -0.1851
 5281TIP3   OH237333   0.435   0.422  15.653  0.1773 -0.1887  0.1605
 5281TIP3    H137334   0.480   0.505  15.640  3.1341 -1.5395  0.9582
 5281TIP3    H237335   0.372   0.440  15.723  0.4109  1.4532 -0.0022
 5282TIP3   OH237336   5.991   4.622  11.496  0.3495 -0.3020  0.1267
 5282TIP3    H137337   6.066   4.639  11.552  0.2834 -0.0211  0.1348
 5282TIP3    H237338   5.921   4.675  11.534  0.9705  2.0196 -1.7005
 5283TIP3   OH237339   5.656   1.512   5.477 -0.2357  0.1210  0.0963
 5283TIP3    H137340   5.571   1.550   5.455 -0.7144 -0.7417  0.4369
 5283TIP3    H237341   5.649   1.420   5.453  0.2989 -0.1569  0.9561
 5284TIP3   OH237342   4.654   2.576  10.371 -0.6139  0.0190 -0.0273
 5284TIP3    H137343   4.673   2.597  10.280 -0.9606  0.0096 -0.1035
 5284TIP3    H237344   4.724   2.516  10.397 -0.9512 -0.6055 -0.5243
 5285TIP3   OH237345   5.664   6.167   0.013  0.1242 -0.4761 -0.3696
 5285TIP3    H137346   5.570   6.180  -0.003  0.2648 -1.6898 -2.6446
 5285TIP3    H237347   5.669   6.085   0.062 -0.0278 -0.1458  0.1999
 5286TIP3   OH237348   5.775   5.304   5.995 -0.4295  0.0627  0.0476
 5286TIP3    H137349   5.766   5.263   6.081  0.1964  0.3226  0.2369
 5286TIP3    H237350   5.755   5.234   5.933  2.0923 -0.9991  0.3099
 5287TIP3   OH237351   3.325   0.238   4.863  0.2126  0.1545  0.8087
 5287TIP3    H137352   3.303   0.156   4.820 -0.9155  1.3157 -0.9270
 5287TIP3    H237353   3.357   0.212   4.949  1.7389 -2.2060 -0.3842
 5288TIP3   OH237354   3.968   0.734   1.369 -0.3325 -0.3393 -0.1244
 5288TIP3    H137355   3.917   0.810   1.396 -1.1889 -0.9600  0.0550
 5288TIP3    H237356   3.958   0.731   1.274 -2.5275 -1.7077  0.0663
 5289TIP3   OH237357   0.558   3.643  14.839 -0.8486 -0.4138 -0.5398
 5289TIP3    H137358   0.585   3.729  14.809  1.5831 -1.3117 -1.1805
 5289TIP3    H237359   0.462   3.645  14.837 -0.8597  2.2504 -0.4784
 5290TIP3   OH237360   4.537   6.543  13.014  0.0709 -0.0081  0.0654
 5290TIP3    H137361   4.513   6.547  12.922  0.9184 -0.6518 -0.1924
 5290TIP3    H237362   4.498   6.622  13.052 -1.4638 -0.4323 -0.5424
 5291TIP3   OH237363   1.398   5.011  13.047  0.6455 -0.5943 -0.7637
 5291TIP3    H137364   1.474   5.052  13.090  0.3072 -1.2914  0.5385
 5291TIP3    H237365   1.335   4.998  13.117 -0.5031 -0.4720 -1.7515
 5292TIP3   OH237366   6.716   2.556  11.594 -0.0178 -0.1338  0.2064
 5292TIP3    H137367   6.663   2.521  11.665 -0.2126  0.6922  0.4774
 5292TIP3    H237368   6.744   2.642  11.625  0.9046 -0.2733 -0.2210
 5293TIP3   OH237369   5.713   0.023  16.229 -0.2478 -0.2561 -0.1507
 5293TIP3    H137370   5.637  -0.021  16.193  0.0532  1.2167 -2.8761
 5293TIP3    H237371   5.785  -0.038  16.216 -0.0512  0.4121 -2.7683
 5294TIP3   OH237372   3.287   4.538  15.294  0.3235  0.2031  0.3340
 5294TIP3    H137373   3.375   4.499  15.297 -0.1465 -0.8671  0.7709
 5294TIP3    H237374   3.228   4.463  15.285 -0.5262  0.9476 -0.5119
 5295TIP3   OH237375   1.454   0.027   5.704  0.7024  0.4760  0.3882
 5295TIP3    H137376   1.369  -0.009   5.729  2.1546 -0.9670  3.7178
 5295TIP3    H237377   1.487  -0.034   5.638 -1.1764  1.6985 -1.8862
 5296TIP3   OH237378   0.213   1.654  15.961  0.1883  0.4428 -0.8449
 5296TIP3    H137379   0.268   1.698  16.027  1.4552  0.1802 -1.6957
 5296TIP3    H237380   0.131   1.704  15.962 -0.3132 -0.2487  1.7520
 5297TIP3   OH237381   5.778   1.080  15.671 -0.4969  0.0532 -0.4181
 5297TIP3    H137382   5.706   1.099  15.611 -0.3890 -0.4402 -0.7175
 5297TIP3    H237383   5.792   0.986  15.661  0.4288  0.2041 -0.6463
 5298TIP3   OH237384   2.043   3.370  15.089  0.0096 -0.2087 -0.0071
 5298TIP3    H137385   2.019   3.287  15.048  1.2213  0.5336 -2.4371
 5298TIP3    H237386   2.006   3.437  15.031  0.2328  0.9550  1.1503
 5299TIP3   OH237387   6.248   3.461   6.004 -0.7277 -0.0296 -0.2682
 5299TIP3    H137388   6.178   3.404   5.971 -0.9159 -2.0463  3.1759
 5299TIP3    H237389   6.322   3.402   6.020 -0.7448  0.6792  2.9749
 5300TIP3   OH237390   0.082   3.726  15.979 -0.2195 -0.3092 -0.1617
 5300TIP3    H137391  -0.011   3.744  15.971  0.1090  1.0939 -1.1716
 5300TIP3    H237392   0.089   3.631  15.967 -1.4221 -0.3149 -0.9492
 5301TIP3   OH237393   1.462   5.186   4.163  0.4434 -0.4485 -0.1995
 5301TIP3    H137394   1.458   5.162   4.071 -0.5257 -1.8455  0.1689
 5301TIP3    H237395   1.523   5.123   4.202  0.5220 -0.1368  0.1932
 5302TIP3   OH237396   2.035   1.512   6.081  0.2976 -0.0273 -0.8493
 5302TIP3    H137397   1.981   1.460   6.021  2.2733 -0.1793 -2.6422
 5302TIP3    H237398   2.006   1.602   6.068 -1.5718 -0.3765  0.5460
 5303TIP3   OH237399   0.584   2.269   6.392 -0.2263 -0.6297  0.0476
 5303TIP3    H137400   0.560   2.346   6.444 -1.1662 -0.1117 -1.1143
 5303TIP3    H237401   0.675   2.285   6.365 -0.3716  0.0130 -0.0734
 5304TIP3   OH237402   1.292   1.110   4.727 -0.0604  0.6809 -0.3093
 5304TIP3    H137403   1.381   1.098   4.759 -0.4181  1.8186  1.2218
 5304TIP3    H237404   1.302   1.163   4.648  0.5533  2.4895  0.9232
 5305TIP3   OH237405   5.038   3.290   1.550  0.2794 -0.1642  0.3067
 5305TIP3    H137406   5.048   3.373   1.504 -0.1981 -0.6485 -0.6961
 5305TIP3    H237407   5.120   3.244   1.535  0.6925  0.2705  1.1821
 5306TIP3   OH237408   2.696   1.915  13.396 -0.4914  0.5081  0.5170
 5306TIP3    H137409   2.688   1.908  13.491  2.5348 -0.0892  0.8239
 5306TIP3    H237410   2.625   1.861  13.362 -1.0454 -0.0790  2.4543
 5307TIP3   OH237411   2.992   0.696  12.784 -0.1977 -0.0704 -0.2970
 5307TIP3    H137412   2.980   0.605  12.758  2.0207 -0.7222  0.7754
 5307TIP3    H237413   2.936   0.746  12.724  1.7093 -1.7601 -3.7364
 5308TIP3   OH237414   6.144   3.997  15.130  0.0927  0.0389  0.7025
 5308TIP3    H137415   6.211   4.063  15.112 -1.0242  0.8445 -0.6558
 5308TIP3    H237416   6.066   4.047  15.152 -0.7989 -0.8087 -0.4122
 5309TIP3   OH237417   6.409   0.766   1.327  0.2499  0.4754  0.2153
 5309TIP3    H137418   6.364   0.838   1.284 -1.2384 -0.1333  0.7057
 5309TIP3    H237419   6.424   0.797   1.416  2.1958  1.2483 -0.3343
 5310TIP3   OH237420   6.509   3.511  11.542 -0.6407  0.3617  0.5304
 5310TIP3    H137421   6.458   3.464  11.475 -0.6470  1.6775 -0.4524
 5310TIP3    H237422   6.592   3.464  11.547 -0.9434 -0.2231  0.1731
 5311TIP3   OH237423   3.334   1.812  15.500 -0.0612 -0.2674  0.1059
 5311TIP3    H137424   3.281   1.797  15.421 -0.8323 -0.5535  0.6718
 5311TIP3    H237425   3.425   1.803  15.469 -0.2321  1.7384 -1.2089
 5312TIP3   OH237426   1.825   1.423  17.170  0.2751  0.4987 -0.0735
 5312TIP3    H137427   1.801   1.418  17.077  0.7251 -0.5033 -0.1457
 5312TIP3    H237428   1.888   1.495  17.173  0.1889  0.6022 -0.5300
 5313TIP3   OH237429   1.946   5.502  16.018  0.4463  0.1994 -0.3776
 5313TIP3    H137430   2.001   5.552  15.957 -2.2914  1.0697 -2.2935
 5313TIP3    H237431   1.896   5.443  15.962 -0.8583 -0.2912  1.2356
 5314TIP3   OH237432   2.279   0.042  10.762  0.6873  0.6405 -0.3392
 5314TIP3    H137433   2.220   0.098  10.713  0.1414  0.5346  0.1855
 5314TIP3    H237434   2.229   0.016  10.839  1.2811  0.2341 -0.0824
 5315TIP3   OH237435   1.661   6.367   2.066 -0.3162 -0.5426 -0.3057
 5315TIP3    H137436   1.670   6.320   2.149  1.7441  1.2341  0.5507
 5315TIP3    H237437   1.589   6.428   2.081 -1.2468 -1.5564 -0.5289
 5316TIP3   OH237438   1.870   0.353   3.740  0.6320 -0.4316  0.5172
 5316TIP3    H137439   1.825   0.295   3.801 -1.0936 -0.9181 -1.1260
 5316TIP3    H237440   1.949   0.304   3.714  0.5786 -0.8680  1.1644
 5317TIP3   OH237441   0.814   6.083  11.054  0.3560  0.5811  0.1362
 5317TIP3    H137442   0.762   6.034  11.117  0.5173  0.1416 -0.0648
 5317TIP3    H237443   0.879   6.130  11.107 -0.1227  0.9810  0.3695
 5318TIP3   OH237444   5.988   1.987  13.239  0.0870  0.5102 -0.3240
 5318TIP3    H137445   6.080   2.005  13.258 -0.2553  1.3420  0.6536
 5318TIP3    H237446   5.943   2.008  13.320 -0.8385 -1.0915 -0.3739
 5319TIP3   OH237447   6.257   1.003   3.898 -0.5985 -0.0517  0.4302
 5319TIP3    H137448   6.347   0.982   3.923 -0.2902  2.1269  1.3710
 5319TIP3    H237449   6.263   1.028   3.806 -0.7334 -2.3738 -0.2725
 5320TIP3   OH237450   4.877   5.739  15.861 -0.0253 -0.0593  0.1820
 5320TIP3    H137451   4.923   5.782  15.788 -0.1130  0.2619  0.3163
 5320TIP3    H237452   4.824   5.808  15.900 -0.1021 -0.2710  0.4522
 5321TIP3   OH237453   5.282   0.839   0.173  0.7297 -0.6399  0.6773
 5321TIP3    H137454   5.282   0.849   0.268 -0.2162 -0.8841  0.7096
 5321TIP3    H237455   5.189   0.838   0.149  0.8274 -3.5621  0.0750
 5322TIP3   OH237456   4.876   5.967  12.616  0.3740  0.0824  0.0987
 5322TIP3    H137457   4.783   5.982  12.601  0.3298 -0.8135 -0.6661
 5322TIP3    H237458   4.892   5.879  12.580  1.2738 -0.2552  1.2589
 5323TIP3   OH237459   5.011   1.699  11.070  0.3002  0.5749 -0.0981
 5323TIP3    H137460   4.916   1.714  11.073  0.5199  1.9879  0.8734
 5323TIP3    H237461   5.023   1.633  11.002 -1.4774 -0.5161  0.5960
 5324TIP3   OH237462   3.293   0.282  15.736  0.2435  0.0331  0.0746
 5324TIP3    H137463   3.238   0.226  15.791  1.7483 -0.3105  1.3026
 5324TIP3    H237464   3.285   0.369  15.775  1.1315 -0.1656  0.7267
 5325TIP3   OH237465   1.718   5.222  14.374 -0.6072 -0.2158  0.1305
 5325TIP3    H137466   1.650   5.242  14.439 -0.7305  0.7568 -0.2823
 5325TIP3    H237467   1.672   5.223  14.290  0.2833  2.7674 -0.4101
 5326TIP3   OH237468   3.594   4.542   2.831 -0.4009  0.1365 -0.4340
 5326TIP3    H137469   3.518   4.517   2.884 -1.1991  0.3876 -1.4391
 5326TIP3    H237470   3.648   4.463   2.829 -1.4588 -0.5972 -1.0975
 5327TIP3   OH237471   1.236   2.075   1.772 -0.4151 -0.1416  0.1699
 5327TIP3    H137472   1.222   2.118   1.856 -1.5173 -0.8974  0.3948
 5327TIP3    H237473   1.331   2.062   1.767 -0.5210 -2.8813  2.7592
 5328TIP3   OH237474   2.540   1.201   2.295  0.4483 -0.4942  0.1211
 5328TIP3    H137475   2.610   1.188   2.231 -2.1188 -2.0017 -2.6943
 5328TIP3    H237476   2.509   1.290   2.279  0.1087 -0.7115 -0.4846
 5329TIP3   OH237477   6.144   5.022  15.224  0.2337  0.0007  0.0641
 5329TIP3    H137478   6.169   4.975  15.144 -1.0309 -0.3520 -0.1515
 5329TIP3    H237479   6.054   5.050  15.208  0.6408  1.7328  0.5554
 5330TIP3   OH237480   1.791   5.904  16.231  0.1980 -0.7255  0.6257
 5330TIP3    H137481   1.770   5.923  16.323  1.5432 -0.6997  0.9430
 5330TIP3    H237482   1.839   5.981  16.201  1.3513 -1.4897  0.4468
 5331TIP3   OH237483   2.339   3.904  15.892  0.4685  0.2701  0.2521
 5331TIP3    H137484   2.346   3.996  15.868  3.3760 -0.1800 -1.0218
 5331TIP3    H237485   2.410   3.891  15.956 -1.5350 -0.5823  2.4650
 5332TIP3   OH237486   0.369   5.454  17.089  0.4474  0.2256  0.0830
 5332TIP3    H137487   0.369   5.391  17.017  0.1791 -0.3891  0.6045
 5332TIP3    H237488   0.287   5.436  17.136  1.0948 -0.0705  1.1253
 5333TIP3   OH237489   3.041   0.484   1.650  0.2619 -0.1870 -0.3349
 5333TIP3    H137490   3.137   0.485   1.651  0.2593  0.3518 -0.1202
 5333TIP3    H237491   3.017   0.515   1.563  0.2785 -0.6599 -0.5134
 5334TIP3   OH237492   0.521   6.404  13.155 -0.1997  0.2737 -0.0345
 5334TIP3    H137493   0.457   6.380  13.088 -2.7008  3.3101  1.0145
 5334TIP3    H237494   0.493   6.357  13.233  0.0487  0.1228 -0.0353
 5335TIP3   OH237495   4.112   5.462  11.337  0.0399  0.0567  0.0471
 5335TIP3    H137496   4.199   5.487  11.369  0.8789  0.5868 -2.4728
 5335TIP3    H237497   4.129   5.393  11.273 -1.7050 -2.1050  1.7395
 5336TIP3   OH237498   2.946   2.475  15.818 -0.0810 -0.0324 -0.2058
 5336TIP3    H137499   3.030   2.502  15.855 -0.2501 -0.9545  0.9309
 5336TIP3    H237500   2.967   2.438  15.733  0.5133  0.7960 -0.4247
 5337TIP3   OH237501   0.821   0.808   5.347  0.7757 -0.0690 -0.5698
 5337TIP3    H137502   0.891   0.810   5.412  0.2991 -0.7923 -0.0083
 5337TIP3    H237503   0.783   0.720   5.357  1.0219 -0.3831 -2.1788
 5338TIP3   OH237504   1.581   3.066  16.531  0.2669  0.5041  0.3863
 5338TIP3    H137505   1.669   3.093  16.559  0.2320 -0.3282  1.3296
 5338TIP3    H237506   1.594   3.036  16.441  0.7611  1.2976  0.1835
 5339TIP3   OH237507   2.186   0.744  13.295  0.2736  0.0310  0.3366
 5339TIP3    H137508   2.127   0.672  13.315 -0.2297  0.5575  0.8102
 5339TIP3    H237509   2.272   0.715  13.328 -0.2506  0.2977  2.0676
 5340TIP3   OH237510   3.782   0.079   2.279  0.3309 -0.4691 -0.2204
 5340TIP3    H137511   3.693   0.052   2.258  0.0173  0.7132 -0.4813
 5340TIP3    H237512   3.788   0.067   2.374 -0.9224  1.6388  0.1796
 5341TIP3   OH237513   4.451   1.304  15.814  0.5953  0.2012  0.4082
 5341TIP3    H137514   4.379   1.339  15.866  0.2007 -0.6947  0.4948
 5341TIP3    H237515   4.530   1.332  15.859  0.2670  0.0195  1.0998
 5342TIP3   OH237516   1.126   6.640  14.447  0.2944 -0.2310  0.1702
 5342TIP3    H137517   1.149   6.609  14.360  0.7209  0.1369  0.1489
 5342TIP3    H237518   1.183   6.591  14.506 -0.6958 -1.2161  0.3297
 5343TIP3   OH237519   3.800   6.757   3.179  0.3307  0.0230 -0.3352
 5343TIP3    H137520   3.828   6.709   3.256  1.3914  1.3699  0.1752
 5343TIP3    H237521   3.874   6.749   3.117  0.8072  1.4489  0.0052
 5344TIP3   OH237522   1.759   6.635   5.231  0.3044  0.4589  0.0475
 5344TIP3    H137523   1.764   6.712   5.175 -2.6915 -0.8373 -2.2881
 5344TIP3    H237524   1.780   6.562   5.172  0.1481 -0.7533  1.4376
 5345TIP3   OH237525   2.437   5.785  13.013 -0.8529  0.3865  0.1397
 5345TIP3    H137526   2.389   5.804  13.093 -1.5546 -0.7910  0.0345
 5345TIP3    H237527   2.514   5.736  13.042 -0.3469  1.2144  0.2071
 5346TIP3   OH237528   6.172   3.213   4.193  0.1384  0.1518 -0.4719
 5346TIP3    H137529   6.215   3.271   4.130 -0.9037  0.3762 -1.0035
 5346TIP3    H237530   6.129   3.147   4.139  1.8638 -1.5724  0.1451
 5347TIP3   OH237531   4.520   0.558  15.603 -0.2012 -0.9616 -0.1677
 5347TIP3    H137532   4.472   0.476  15.619  0.9218 -1.6278 -0.0952
 5347TIP3    H237533   4.602   0.546  15.651  1.2826 -1.0658 -2.6045
 5348TIP3   OH237534   5.289   5.720  13.809 -0.5022  0.0175 -0.0851
 5348TIP3    H137535   5.223   5.783  13.780 -0.7377  0.1906  0.7850
 5348TIP3    H237536   5.359   5.774  13.846  0.1569 -0.1644 -1.0344
 5349TIP3   OH237537   3.714   4.828   2.416 -0.5066  0.2077 -0.2372
 5349TIP3    H137538   3.668   4.816   2.499  0.5430  2.8724  0.8228
 5349TIP3    H237539   3.798   4.784   2.428 -1.2731 -1.5168 -0.8505
 5350TIP3   OH237540   4.614   0.631   0.918 -0.3820 -0.8981  0.3806
 5350TIP3    H137541   4.601   0.665   0.830 -0.2036 -2.1302 -0.1381
 5350TIP3    H237542   4.648   0.543   0.905 -1.0545 -1.3716  1.6763
 5351TIP3   OH237543   3.157   3.944  17.007 -0.4460 -0.1487 -0.4163
 5351TIP3    H137544   3.143   3.873  16.944  2.0255 -0.8469 -0.2651
 5351TIP3    H237545   3.088   4.007  16.987 -1.3938 -1.5961 -1.9875
 5352TIP3   OH237546   0.263   4.549  12.778 -0.2381 -0.2653 -0.4479
 5352TIP3    H137547   0.229   4.538  12.689 -0.8179 -0.6259 -0.1934
 5352TIP3    H237548   0.192   4.518  12.834  0.3778 -0.6703  0.1196
 5353TIP3   OH237549   4.407   1.669   5.188  0.3804 -0.2166  0.1227
 5353TIP3    H137550   4.381   1.595   5.133  0.5505 -1.7223  1.9658
 5353TIP3    H237551   4.328   1.692   5.237  0.2746  0.9837 -0.5817
 5354TIP3   OH237552   5.419   2.995   5.661  0.1905 -0.3340 -0.7207
 5354TIP3    H137553   5.477   3.071   5.654 -0.9654  0.7792  1.1296
 5354TIP3    H237554   5.343   3.018   5.607 -0.7017  0.4068  0.7938
 5355TIP3   OH237555   6.617   5.117  15.107  0.0156 -0.4447  0.2459
 5355TIP3    H137556   6.546   5.063  15.141  0.7922 -0.7962  1.3938
 5355TIP3    H237557   6.696   5.064  15.120  0.4977 -0.0550 -0.9651
 5356TIP3   OH237558   2.434   2.382  16.055 -0.3795  0.2652 -0.3414
 5356TIP3    H137559   2.479   2.445  16.111  0.9621 -0.9180 -0.0648
 5356TIP3    H237560   2.496   2.363  15.985 -1.1204 -0.0854 -0.9205
 5357TIP3   OH237561   0.069   6.177   1.766  0.0513  0.3479 -0.1637
 5357TIP3    H137562   0.118   6.233   1.705 -0.4854  0.6835 -0.2896
 5357TIP3    H237563   0.018   6.119   1.710 -0.5218  0.7247 -0.0394
 5358TIP3   OH237564   4.275   0.588   5.512 -0.4027 -1.1236 -0.1215
 5358TIP3    H137565   4.215   0.590   5.437 -1.6488 -2.4693  0.7801
 5358TIP3    H237566   4.217   0.586   5.588  0.8317  0.8369  0.9403
 5359TIP3   OH237567   6.257   5.651  11.904  0.0205  0.0975 -0.0263
 5359TIP3    H137568   6.204   5.592  11.959  0.8201  0.3230  1.0282
 5359TIP3    H237569   6.335   5.669  11.957  2.4723 -2.2823 -2.5326
 5360TIP3   OH237570   2.789   4.519  14.399  0.1561  0.1409 -0.3016
 5360TIP3    H137571   2.849   4.594  14.389 -0.0820  0.4719  0.6925
 5360TIP3    H237572   2.796   4.495  14.491  0.3060 -1.1485 -0.6334
 5361TIP3   OH237573   6.188   0.742  16.181 -0.2708 -0.3042 -0.1116
 5361TIP3    H137574   6.155   0.700  16.261 -6.7893  2.0165 -0.9637
 5361TIP3    H237575   6.141   0.699  16.110  1.6190  0.9578 -2.2689
 5362TIP3   OH237576   4.847   4.289   6.465  1.0047 -0.4028  0.6413
 5362TIP3    H137577   4.828   4.370   6.513 -0.0673 -0.7116  0.7736
 5362TIP3    H237578   4.763   4.264   6.426  1.7540 -0.3555 -1.1136
 5363TIP3   OH237579   4.033   2.486  12.590 -0.2472  0.0263 -0.0931
 5363TIP3    H137580   4.092   2.528  12.527 -0.7755  1.6180  0.4162
 5363TIP3    H237581   3.953   2.467  12.540  0.4223 -1.5481 -0.6251
 5364TIP3   OH237582   3.542   6.201   4.147 -0.4834  0.0067 -0.2371
 5364TIP3    H137583   3.451   6.205   4.120  0.1309 -0.3733 -2.5257
 5364TIP3    H237584   3.567   6.109   4.138 -0.0665 -0.0486  1.1622
 5365TIP3   OH237585   5.880   3.735  17.050 -0.4467 -0.3698  0.1830
 5365TIP3    H137586   5.825   3.684  17.109 -1.8899  0.5037 -0.3442
 5365TIP3    H237587   5.902   3.814  17.100 -1.1649  0.0928 -0.2187
 5366TIP3   OH237588   4.564   6.278  12.125  0.0048 -0.0527 -0.0423
 5366TIP3    H137589   4.630   6.248  12.062  1.2710  1.4999  0.4816
 5366TIP3    H237590   4.517   6.347  12.079  0.4112  0.5469  0.4413
 5367TIP3   OH237591   5.648   4.016   1.841  0.0864 -0.0019  0.2440
 5367TIP3    H137592   5.673   4.094   1.891  1.1271 -1.0544  1.4599
 5367TIP3    H237593   5.560   4.034   1.808  0.1540  1.5035  0.8445
 5368TIP3   OH237594   5.878   0.558   3.588  0.5285 -0.1796 -0.6022
 5368TIP3    H137595   5.882   0.539   3.494 -0.1437 -1.5453 -0.3771
 5368TIP3    H237596   5.786   0.575   3.605  0.7655  0.8992 -0.3196
 5369TIP3   OH237597   2.850   4.422   3.603  0.2387  0.4315 -0.0241
 5369TIP3    H137598   2.883   4.410   3.693 -0.5627  3.0366  0.6918
 5369TIP3    H237599   2.794   4.345   3.588  1.2263 -0.5936  1.2739
 5370TIP3   OH237600   2.922   5.025  15.843 -0.1704 -0.0707 -0.6455
 5370TIP3    H137601   2.829   5.006  15.844 -0.4893  1.3663 -0.5056
 5370TIP3    H237602   2.927   5.121  15.851  1.3427 -0.2246  0.7329
 5371TIP3   OH237603   1.323   0.333  17.129  0.3268  0.1303 -0.6301
 5371TIP3    H137604   1.237   0.291  17.130  0.6131 -0.5064 -1.3247
 5371TIP3    H237605   1.356   0.323  17.218  1.2378 -2.9893 -1.2063
 5372TIP3   OH237606   1.896   6.671  13.024 -0.4148  0.3348 -0.1129
 5372TIP3    H137607   1.929   6.755  12.992  2.0459 -0.4729  0.0835
 5372TIP3    H237608   1.906   6.611  12.950 -1.2245 -0.0322  0.0602
 5373TIP3   OH237609   2.172   5.346  14.360  0.3793  0.4425 -0.5030
 5373TIP3    H137610   2.229   5.275  14.389  0.6603  1.3328  1.3170
 5373TIP3    H237611   2.195   5.360  14.268  1.5192 -0.6700 -0.4106
 5374TIP3   OH237612   2.912   4.254  15.902  0.0113  0.0412 -0.2090
 5374TIP3    H137613   2.921   4.253  15.806  1.2660  2.3128 -0.1906
 5374TIP3    H237614   2.930   4.164  15.928 -1.0457 -0.8031 -2.1314
 5375TIP3   OH237615   0.399   6.383   3.856 -0.4261 -0.1502 -0.3962
 5375TIP3    H137616   0.449   6.430   3.923  0.2891 -2.1380  0.5387
 5375TIP3    H237617   0.313   6.424   3.857 -0.4275 -0.0859  1.7209
 5376TIP3   OH237618   0.289   2.688  15.418 -0.4668 -0.0291 -0.3902
 5376TIP3    H137619   0.267   2.778  15.392  0.5150  0.8235  1.4875
 5376TIP3    H237620   0.345   2.656  15.348 -0.0346  1.1990 -0.6324
 5377TIP3   OH237621   4.292   1.911  16.803  0.3803 -0.1307 -0.2377
 5377TIP3    H137622   4.249   1.975  16.861  0.9630 -0.9272  1.1222
 5377TIP3    H237623   4.312   1.961  16.724 -0.4082  1.0113  0.2374
 5378TIP3   OH237624   3.305   2.580  14.796  0.3211 -0.1809 -0.0537
 5378TIP3    H137625   3.364   2.505  14.785  1.2044  0.6285 -1.0800
 5378TIP3    H237626   3.359   2.644  14.842 -0.0335  0.2643 -0.2602
 5379TIP3   OH237627   3.551   5.905   0.894  0.0267  0.3559  0.0418
 5379TIP3    H137628   3.523   5.842   0.961  0.3945 -1.2388 -1.2375
 5379TIP3    H237629   3.595   5.975   0.944 -0.8978 -0.0920  1.5528
 5380TIP3   OH237630   0.970   5.845   0.567 -0.0460  0.9914 -0.2838
 5380TIP3    H137631   0.923   5.926   0.546  0.1966  1.5181  1.1018
 5380TIP3    H237632   0.901   5.779   0.578 -0.2191  0.8692 -1.8686
 5381TIP3   OH237633   4.176   6.558  11.325  0.1494  0.0395 -0.5126
 5381TIP3    H137634   4.100   6.504  11.346  0.5581  0.1146  1.3466
 5381TIP3    H237635   4.219   6.512  11.253 -0.8831 -0.7481 -0.6482
 5382TIP3   OH237636   1.900   3.951   3.111  0.6345 -0.1147 -0.3935
 5382TIP3    H137637   1.839   3.909   3.171  3.0116 -1.1109  1.4823
 5382TIP3    H237638   1.896   3.898   3.032 -1.5590  0.4081 -0.6975
 5383TIP3   OH237639   0.199   3.882  13.578 -0.0490 -0.0913 -0.0452
 5383TIP3    H137640   0.229   3.818  13.643 -1.3949  0.8443  1.5715
 5383TIP3    H237641   0.168   3.829  13.505  0.4076 -1.2115  0.5501
 5384TIP3   OH237642   3.906   6.414  14.898 -0.5656  0.1956 -0.1668
 5384TIP3    H137643   3.922   6.485  14.836  1.3528 -0.6140 -0.6704
 5384TIP3    H237644   3.813   6.396  14.890 -1.1011  2.5949 -0.0611
 5385TIP3   OH237645   1.425   2.267  12.156 -0.0598  0.4528 -0.1613
 5385TIP3    H137646   1.393   2.179  12.175  0.7428  0.4628  1.3362
 5385TIP3    H237647   1.346   2.317  12.134 -0.5512 -0.5554 -0.7779
 5386TIP3   OH237648   5.048   3.227   4.352  0.1941 -0.4115  0.1505
 5386TIP3    H137649   5.071   3.142   4.316 -1.7619 -0.0712 -2.1129
 5386TIP3    H237650   4.953   3.233   4.343  0.4043  2.6536 -1.4659
 5387TIP3   OH237651   5.950   3.421  10.319  0.3279  0.2830 -0.4586
 5387TIP3    H137652   5.909   3.471  10.389  0.1979 -1.3654  0.7062
 5387TIP3    H237653   5.983   3.487  10.258  0.0862  1.7545  0.9438
 5388TIP3   OH237654   5.319   5.333   2.004  0.6338 -0.3943 -0.6177
 5388TIP3    H137655   5.228   5.321   2.029  0.9714 -0.0537  0.8531
 5388TIP3    H237656   5.354   5.245   1.994 -0.0634 -0.5350 -2.0984
 5389TIP3   OH237657   3.811   2.843  11.895  0.4086  0.4239 -0.5395
 5389TIP3    H137658   3.877   2.776  11.912 -0.3046 -0.0306  0.5559
 5389TIP3    H237659   3.828   2.911  11.961 -0.7026 -0.0788  0.2957
 5390TIP3   OH237660   3.857   2.472  12.220 -0.1428  0.5911 -0.0573
 5390TIP3    H137661   3.802   2.432  12.153 -0.4186 -0.6323  0.8664
 5390TIP3    H237662   3.946   2.458  12.190 -0.2669  0.1724 -0.2321
 5391TIP3   OH237663   1.948   1.535  13.871  0.0504 -0.4362 -0.6148
 5391TIP3    H137664   2.024   1.487  13.905 -0.6378 -0.5272  0.8950
 5391TIP3    H237665   1.902   1.565  13.949 -0.1089  1.8247 -1.5237
 5392TIP3   OH237666   1.808   5.166   5.217 -0.1250 -0.5548 -0.0823
 5392TIP3    H137667   1.724   5.140   5.179 -0.0865 -0.6336 -0.1140
 5392TIP3    H237668   1.823   5.102   5.286 -1.3310  0.9421  1.6698
 5393TIP3   OH237669   4.630   1.703   3.701  0.7022  0.2934 -0.0453
 5393TIP3    H137670   4.562   1.759   3.738 -0.3963 -0.2590 -1.1313
 5393TIP3    H237671   4.708   1.758   3.699  0.0603  1.2553  0.3803
 5394TIP3   OH237672   1.750   2.867  12.769  0.1788  0.3038  0.3357
 5394TIP3    H137673   1.711   2.835  12.688 -0.6349 -1.8301  1.4920
 5394TIP3    H237674   1.782   2.954  12.747  0.1529 -0.2684 -2.3149
 5395TIP3   OH237675   6.779   0.669  16.703 -0.4199  1.0324 -0.0428
 5395TIP3    H137676   6.874   0.664  16.713 -0.0051  3.2720 -1.9919
 5395TIP3    H237677   6.754   0.748  16.751 -1.3827  0.2963  0.7113
 5396TIP3   OH237678   0.436   4.830   2.506  0.0935 -0.1879  0.4487
 5396TIP3    H137679   0.496   4.894   2.469  0.4135 -0.5421  0.3475
 5396TIP3    H237680   0.351   4.851   2.466  0.1981  0.1632  0.4095
 5397TIP3   OH237681   0.895   2.025  13.396 -0.3941  0.4789  0.3715
 5397TIP3    H137682   0.918   1.963  13.326 -0.0457  3.1194 -2.0357
 5397TIP3    H237683   0.965   2.015  13.460 -0.5844 -1.8668  0.2908
 5398TIP3   OH237684   0.438   0.115  10.741  0.0409 -0.5576 -0.0818
 5398TIP3    H137685   0.481   0.134  10.658  0.0757  0.1996  0.1060
 5398TIP3    H237686   0.347   0.142  10.727 -0.1962 -1.4092 -0.2154
 5399TIP3   OH237687   4.697   2.036  13.669 -0.2093  0.4434 -0.6133
 5399TIP3    H137688   4.627   2.038  13.735  2.5509 -3.3003  2.9610
 5399TIP3    H237689   4.744   2.118  13.682 -0.7001  0.5025  0.9974
 5400TIP3   OH237690   0.345   6.295   5.494 -0.4643 -0.5596 -0.1383
 5400TIP3    H137691   0.429   6.281   5.539  0.6395  3.0801 -0.7160
 5400TIP3    H237692   0.341   6.226   5.428  1.4938 -1.5239  0.6675
 5401TIP3   OH237693   0.566   3.304  13.087  0.3071  0.2443  0.7574
 5401TIP3    H137694   0.486   3.259  13.059 -0.4176  1.0434  1.5023
 5401TIP3    H237695   0.635   3.263  13.034 -0.0188 -2.9677  2.5510
 5402TIP3   OH237696   0.803   5.468  12.229  0.0861  0.4430  0.2727
 5402TIP3    H137697   0.877   5.472  12.289  0.7350  1.3256 -0.5478
 5402TIP3    H237698   0.842   5.468  12.142 -0.8503 -0.1735 -0.1663
 5403TIP3   OH237699   4.047   2.900  16.859  0.4506 -0.0599  0.9097
 5403TIP3    H137700   3.977   2.872  16.918 -0.4629  0.2304 -0.0300
 5403TIP3    H237701   4.022   2.866  16.773  1.0585  0.7116  0.4150
 5404TIP3   OH237702   2.647   4.623   1.039  0.3215 -0.3765 -0.2258
 5404TIP3    H137703   2.580   4.599   1.103 -0.1904 -0.0262 -0.6152
 5404TIP3    H237704   2.718   4.560   1.052 -0.4462 -1.3002 -0.3801
 5405TIP3   OH237705   4.602   1.480   5.348 -0.4166 -0.0008 -0.1891
 5405TIP3    H137706   4.514   1.493   5.385 -0.0165  0.3675  0.6706
 5405TIP3    H237707   4.660   1.529   5.407  0.2908  0.3403 -1.1501
 5406TIP3   OH237708   6.813   1.694   5.544  0.4803  0.1117 -0.0564
 5406TIP3    H137709   6.724   1.674   5.572  0.6289 -0.3845  0.0716
 5406TIP3    H237710   6.840   1.767   5.599 -0.0472  0.6381 -0.4814
 5407TIP3   OH237711   4.805   2.075  16.700  0.6711 -0.1508  0.1951
 5407TIP3    H137712   4.719   2.093  16.662  0.3126 -0.8902  0.6407
 5407TIP3    H237713   4.794   2.091  16.793  0.8872 -0.6972  0.3187
 5408TIP3   OH237714   2.789   5.509  12.704  0.3310  0.0682 -0.1054
 5408TIP3    H137715   2.857   5.448  12.676  0.7209  0.1282  0.6767
 5408TIP3    H237716   2.726   5.509  12.632  0.9609 -0.2846 -0.6726
 5409TIP3   OH237717   1.277   1.863   6.434 -0.3061 -0.1414  1.1222
 5409TIP3    H137718   1.320   1.806   6.370  0.9101 -0.2047  1.9507
 5409TIP3    H237719   1.335   1.940   6.439 -0.6100  0.0461  1.8234
 5410TIP3   OH237720   4.384   4.547   0.360 -0.1666  0.3804 -0.4146
 5410TIP3    H137721   4.435   4.622   0.391  0.1303  0.4454 -1.0441
 5410TIP3    H237722   4.447   4.494   0.311 -0.3981 -0.2296 -0.0701
 5411TIP3   OH237723   2.225   5.243  16.679  0.0135 -0.2293  0.2489
 5411TIP3    H137724   2.285   5.315  16.661 -0.8251  0.4973  0.3236
 5411TIP3    H237725   2.243   5.179  16.609  0.1550  0.4314 -0.3324
 5412TIP3   OH237726   6.741   5.058   5.448 -0.1581  0.1766  0.0718
 5412TIP3    H137727   6.836   5.058   5.449 -0.1573 -0.3060  0.1242
 5412TIP3    H237728   6.715   5.116   5.520  0.0807 -1.4934  1.5528
 5413TIP3   OH237729   6.732   4.475   1.642 -0.1201  0.1214 -0.4347
 5413TIP3    H137730   6.672   4.545   1.665 -0.8533 -0.6602  0.1009
 5413TIP3    H237731   6.757   4.437   1.727  0.1042 -0.3902 -0.7283
 5414TIP3   OH237732   6.112   2.918   4.771  0.1384 -0.4334  0.2587
 5414TIP3    H137733   6.151   2.881   4.692  0.0058  1.8944 -0.9992
 5414TIP3    H237734   6.019   2.896   4.765 -0.5546  2.4243 -2.0923
 5415TIP3   OH237735   3.063   3.960   4.404  0.0604 -0.0748 -0.0148
 5415TIP3    H137736   3.157   3.943   4.401  0.0967  0.1877 -0.4785
 5415TIP3    H237737   3.050   4.016   4.480  0.5419  1.4796 -1.0474
 5416TIP3   OH237738   3.977   0.554   2.757  0.3649  0.8824 -0.0871
 5416TIP3    H137739   3.926   0.492   2.809  0.4514  0.9394  0.0667
 5416TIP3    H237740   3.916   0.582   2.688  0.2485  0.8078 -0.0165
 5417TIP3   OH237741   1.347   4.551   5.642  0.4833 -0.0331  0.0006
 5417TIP3    H137742   1.284   4.588   5.703  0.7671  0.6488 -0.1006
 5417TIP3    H237743   1.319   4.461   5.628 -0.1374  0.0995  0.3863
 5418TIP3   OH237744   4.523   3.396   1.835  0.3759 -0.3218 -0.0843
 5418TIP3    H137745   4.612   3.379   1.802  0.9050  0.6674  0.7658
 5418TIP3    H237746   4.507   3.488   1.813 -0.2856 -0.3833  0.1238
 5419TIP3   OH237747   4.493   2.939  16.418  0.1558 -0.7802  0.9107
 5419TIP3    H137748   4.456   2.851  16.425  0.9386 -1.0030  3.1028
 5419TIP3    H237749   4.586   2.928  16.435  0.6663  0.2438 -0.9069
 5420TIP3   OH237750   2.445   5.998   0.833 -0.2123  1.0492  0.6432
 5420TIP3    H137751   2.469   6.013   0.925 -0.3489  2.1611  0.5013
 5420TIP3    H237752   2.367   5.942   0.839  0.7319 -0.2821  1.1504
 5421TIP3   OH237753   0.397   5.190   1.143 -0.4002 -0.4179  0.8068
 5421TIP3    H137754   0.489   5.186   1.170 -0.1729  1.3052  0.4154
 5421TIP3    H237755   0.393   5.263   1.082 -1.7833 -1.3627 -0.3110
 5422TIP3   OH237756   1.177   2.220  16.394 -0.1794  0.1604 -0.1267
 5422TIP3    H137757   1.249   2.221  16.331  1.7985  0.9745  1.9705
 5422TIP3    H237758   1.123   2.296  16.370  0.0205 -0.0575 -1.3329
 5423TIP3   OH237759   2.832   0.559  13.127  0.0711 -0.2528 -0.3139
 5423TIP3    H137760   2.758   0.519  13.081  0.5182 -0.3563 -0.9633
 5423TIP3    H237761   2.904   0.496  13.116  0.8490  0.8034 -1.5547
 5424TIP3   OH237762   2.485   5.549  12.738  0.2457  0.7481 -0.3045
 5424TIP3    H137763   2.464   5.495  12.815 -0.7547  1.2755 -0.1884
 5424TIP3    H237764   2.580   5.556  12.739  0.4014 -1.0564 -0.3566
 5425TIP3   OH237765   6.784   6.800  11.937 -0.7834  0.2018  0.2934
 5425TIP3    H137766   6.821   6.737  11.999 -1.5139  0.6449  1.2252
 5425TIP3    H237767   6.845   6.874  11.938  0.6366 -0.8551 -1.5973
 5426TIP3   OH237768   6.183   1.892   2.237 -0.4108  0.1438  0.3218
 5426TIP3    H137769   6.172   1.802   2.205 -0.4743 -0.5396  2.1756
 5426TIP3    H237770   6.224   1.882   2.323  1.1973  1.9884 -0.1669
 5427TIP3   OH237771   4.300   3.061   5.932 -0.1754  0.9521 -0.3303
 5427TIP3    H137772   4.231   3.098   5.877  0.3061  0.2094 -1.4821
 5427TIP3    H237773   4.315   3.126   6.000 -3.2439  0.3942  1.0342
 5428TIP3   OH237774   1.820   2.200   0.799  0.1488 -0.6844  0.1630
 5428TIP3    H137775   1.910   2.202   0.830  0.4828  0.8451 -0.7885
 5428TIP3    H237776   1.772   2.255   0.862  0.0207 -0.9260  0.2760
 5429TIP3   OH237777   6.799   0.008  14.863  0.7232 -0.9203 -0.3356
 5429TIP3    H137778   6.774   0.057  14.941  3.2593  0.7134 -0.4262
 5429TIP3    H237779   6.856  -0.061  14.896  1.7285 -0.2814 -0.7011
 5430TIP3   OH237780   3.101   2.274   3.760  0.3500  0.3053 -0.0962
 5430TIP3    H137781   3.014   2.250   3.726  0.2433 -0.7320  0.8519
 5430TIP3    H237782   3.084   2.314   3.844  0.8198 -0.8267  0.5667
 5431TIP3   OH237783   1.925   1.531   2.925 -0.7486 -0.3283  0.3005
 5431TIP3    H137784   1.882   1.571   2.850  1.1717  0.0688 -0.6507
 5431TIP3    H237785   1.995   1.477   2.887  1.6826  1.5553  1.7867
 5432TIP3   OH237786   6.382   6.644  14.582 -0.1007  0.5013 -0.3736
 5432TIP3    H137787   6.412   6.700  14.511  0.8302  1.4759  0.7407
 5432TIP3    H237788   6.401   6.693  14.662 -0.2253 -0.9540  0.6068
 5433TIP3   OH237789   5.112   0.710   4.775  0.1392  0.1278  0.0674
 5433TIP3    H137790   5.118   0.766   4.853 -0.2949  2.1742 -1.2713
 5433TIP3    H237791   5.046   0.753   4.720  1.3205 -0.5057 -1.9690
 5434TIP3   OH237792   6.054   5.056  12.941  0.2569 -0.0041 -0.5136
 5434TIP3    H137793   6.032   5.135  12.990  0.6310 -0.4739  0.4418
 5434TIP3    H237794   5.988   5.051  12.872 -0.3731  0.5927  0.0302
 5435TIP3   OH237795   6.170   1.232  16.413 -0.0705 -0.1469 -0.5664
 5435TIP3    H137796   6.157   1.233  16.319  0.2861  0.0401 -0.6140
 5435TIP3    H237797   6.204   1.144  16.432 -0.9224 -0.4712 -0.5024
 5436TIP3   OH237798   5.177   0.269  12.945  0.1301  0.3935  0.4706
 5436TIP3    H137799   5.123   0.346  12.964 -0.7732 -0.6322  2.2638
 5436TIP3    H237800   5.119   0.208  12.900  0.6650  0.4754 -0.3546
 5437TIP3   OH237801   5.000   6.680  14.812  0.2061 -0.5437 -0.0780
 5437TIP3    H137802   5.079   6.675  14.757  1.3544  2.1540  1.1633
 5437TIP3    H237803   4.940   6.735  14.762 -0.1701 -1.0374 -0.1767
 5438TIP3   OH237804   0.857   5.129  11.788  0.0180  0.2081  0.7925
 5438TIP3    H137805   0.920   5.192  11.822  0.9453 -0.2145 -0.0989
 5438TIP3    H237806   0.879   5.120  11.695 -1.8525  0.6421  0.2530
 5439TIP3   OH237807   0.566   2.994   0.264  0.3259 -0.2148 -0.6771
 5439TIP3    H137808   0.525   2.937   0.329  0.8713 -0.8499 -0.8704
 5439TIP3    H237809   0.493   3.026   0.211 -0.0855  0.0066  0.0059
 5440TIP3   OH237810   5.060   1.467  15.940 -0.0238 -0.4915  0.0548
 5440TIP3    H137811   5.017   1.552  15.929  1.2775  0.2575  0.4549
 5440TIP3    H237812   5.020   1.429  16.018  0.1806  0.2771  0.5401
 5441TIP3   OH237813   4.149   0.403  13.230  0.2425  0.9374 -0.1515
 5441TIP3    H137814   4.235   0.362  13.222 -0.4131 -0.9133  1.3558
 5441TIP3    H237815   4.128   0.395  13.323 -3.0177 -2.0307 -0.9158
 5442TIP3   OH237816   3.230   4.858  12.570 -0.3900  0.1007 -0.2339
 5442TIP3    H137817   3.141   4.869  12.603  0.4196  1.4173  1.7084
 5442TIP3    H237818   3.238   4.764  12.553 -1.6431 -0.2965  1.1392
 5443TIP3   OH237819   4.375   2.584  10.389  0.3638  0.2189  0.3142
 5443TIP3    H137820   4.465   2.557  10.372  0.3561  0.3896 -0.0106
 5443TIP3    H237821   4.332   2.505  10.423  0.0850 -0.4958 -1.5743
 5444TIP3   OH237822   6.291   5.623   0.617 -0.5327 -0.6130  0.5566
 5444TIP3    H137823   6.371   5.571   0.608 -0.9385 -1.0224 -0.9159
 5444TIP3    H237824   6.244   5.609   0.535 -1.7737  0.2123  1.1004
 5445TIP3   OH237825   2.248   3.293  15.506 -0.2760  0.0233 -0.0109
 5445TIP3    H137826   2.260   3.363  15.570 -0.1125  1.5217 -1.6243
 5445TIP3    H237827   2.270   3.213  15.554 -0.1296  1.0852  1.7793
 5446TIP3   OH237828   5.144   6.009  12.961  0.1051 -0.0709  0.2829
 5446TIP3    H137829   5.053   5.989  12.941  0.0207 -1.0521  1.5330
 5446TIP3    H237830   5.171   5.940  13.021  2.9626 -2.3368 -3.1847
 5447TIP3   OH237831   1.032   5.591   5.044 -0.1471  0.2260 -0.0139
 5447TIP3    H137832   0.981   5.605   5.124 -1.9178  0.8133 -1.1842
 5447TIP3    H237833   0.988   5.517   5.001 -1.4234  2.0184 -2.0516
 5448TIP3   OH237834   3.566   0.069  14.324 -0.0876  0.3560 -0.5914
 5448TIP3    H137835   3.589   0.024  14.243 -0.1236  1.1004 -1.0223
 5448TIP3    H237836   3.648   0.070  14.375  0.3459  1.2302 -1.2721
 5449TIP3   OH237837   0.882   1.892  11.220  0.5336  0.2376  0.4046
 5449TIP3    H137838   0.806   1.843  11.251 -1.8438  3.7415  0.6975
 5449TIP3    H237839   0.870   1.899  11.126  0.5654  0.6075  0.4232
 5450TIP3   OH237840   4.510   2.089  14.689  0.5731  0.0663  0.0501
 5450TIP3    H137841   4.452   2.094  14.765  2.2909 -3.0148  1.7728
 5450TIP3    H237842   4.454   2.058  14.618 -0.2520 -1.5375  1.3222
 5451TIP3   OH237843   1.877   4.983  13.020  0.4263 -0.6212  0.3619
 5451TIP3    H137844   1.819   4.908  13.005 -0.3102  0.0072 -0.0371
 5451TIP3    H237845   1.964   4.951  12.999  0.6029 -2.2689  3.1609
 5452TIP3   OH237846   1.653   5.799   5.000 -0.2252  0.1185 -0.6130
 5452TIP3    H137847   1.746   5.822   5.005 -0.0879 -0.0597 -1.9885
 5452TIP3    H237848   1.626   5.789   5.091  1.3348 -0.7463 -0.2055
 5453TIP3   OH237849   2.895   6.787  11.550  0.5352  0.0148 -0.4697
 5453TIP3    H137850   2.833   6.769  11.620  0.1466  0.1868 -0.7662
 5453TIP3    H237851   2.877   6.720  11.484  0.9240 -0.1705 -0.3928
 5454TIP3   OH237852   3.038   4.305  15.384 -0.0900 -0.5478 -0.1561
 5454TIP3    H137853   3.047   4.225  15.333 -0.8356  0.2390 -1.5851
 5454TIP3    H237854   2.988   4.364  15.327  0.6731  1.0254  0.7378
 5455TIP3   OH237855   5.825   2.760  13.506  0.0077  0.3307 -0.4481
 5455TIP3    H137856   5.777   2.763  13.588  0.5744  1.6880 -0.1325
 5455TIP3    H237857   5.804   2.843  13.463  1.0066  0.3599 -0.9091
 5456TIP3   OH237858   3.098   3.322  13.832 -0.2023  0.6336 -0.1741
 5456TIP3    H137859   3.034   3.354  13.768  0.2689  1.7834 -0.0851
 5456TIP3    H237860   3.154   3.262  13.782 -1.5206 -0.6536 -0.1755
 5457TIP3   OH237861   6.157   1.314   2.828  0.3663 -0.4677 -0.5732
 5457TIP3    H137862   6.157   1.340   2.736 -0.4335 -2.1295 -1.0815
 5457TIP3    H237863   6.135   1.394   2.876 -3.0773 -0.3151 -2.1089
 5458TIP3   OH237864   4.240   4.706  16.246  0.1892 -0.2378  0.4036
 5458TIP3    H137865   4.178   4.646  16.203  0.4501 -0.3100  0.1298
 5458TIP3    H237866   4.325   4.662  16.238  0.5274  0.5627 -0.5476
 5459TIP3   OH237867   4.366   1.496   5.488  0.4508  0.7056 -0.0038
 5459TIP3    H137868   4.362   1.589   5.511 -1.2515  1.2073 -2.0571
 5459TIP3    H237869   4.278   1.475   5.458  0.9328 -1.4788 -0.0460
 5460TIP3   OH237870   6.364   3.862  16.092  0.0510  0.2780  0.1388
 5460TIP3    H137871   6.426   3.903  16.032 -0.6147  0.2424 -0.5924
 5460TIP3    H237872   6.279   3.897  16.067 -0.4382 -0.9723 -0.0152
 5461TIP3   OH237873   6.446   6.349  12.074 -0.3110 -0.3521 -0.3060
 5461TIP3    H137874   6.389   6.414  12.032 -1.4275 -1.1554 -0.0653
 5461TIP3    H237875   6.535   6.382  12.059 -0.8476  1.1458 -0.3131
 5462TIP3   OH237876   4.076   6.199  14.109 -0.7305 -0.3147  0.3132
 5462TIP3    H137877   4.019   6.122  14.117 -1.2950  0.0224 -0.3797
 5462TIP3    H237878   4.141   6.188  14.179 -1.3053 -0.9944  0.7521
 5463TIP3   OH237879   6.088   5.912  13.481 -0.0364 -0.3107  0.2634
 5463TIP3    H137880   6.181   5.901  13.459 -0.5498 -2.8303 -1.0921
 5463TIP3    H237881   6.087   5.931  13.574  1.8490  0.1472  0.2320
 5464TIP3   OH237882   4.219   0.030  15.970  0.2214  0.2893 -0.1474
 5464TIP3    H137883   4.242   0.119  15.943  0.7352  0.1766 -0.0842
 5464TIP3    H237884   4.157   0.042  16.041 -0.4726  0.5939 -0.7836
 5465TIP3   OH237885   6.470   0.081   0.315 -0.0773 -0.3518 -0.6454
 5465TIP3    H137886   6.412   0.050   0.384 -0.5037 -0.3224 -0.9840
 5465TIP3    H237887   6.464   0.014   0.246 -0.1009 -0.0984 -0.8928
 5466TIP3   OH237888   2.375   5.760  15.975  0.0404  0.0840  0.0537
 5466TIP3    H137889   2.317   5.718  16.037  1.4370  0.1318  1.4428
 5466TIP3    H237890   2.363   5.854  15.990 -0.3894  0.1246 -0.5014
 5467TIP3   OH237891   5.425   6.221  13.765 -0.6190 -0.2988  0.4063
 5467TIP3    H137892   5.478   6.151  13.728 -0.3627  0.3353 -0.4516
 5467TIP3    H237893   5.364   6.245  13.695 -1.2738 -0.2362  0.9826
 5468TIP3   OH237894   3.878   0.951  15.887 -0.2852 -0.0749 -0.0390
 5468TIP3    H137895   3.930   0.963  15.808 -3.2620  1.6059 -1.9116
 5468TIP3    H237896   3.854   0.858  15.886  1.0799 -0.4490 -0.1175
 5469TIP3   OH237897   1.745   2.428   0.953 -0.1644  0.5690 -0.5175
 5469TIP3    H137898   1.721   2.518   0.975 -0.0269  0.1095  1.6838
 5469TIP3    H237899   1.831   2.416   0.992 -0.4875 -0.7306 -0.1666
 5470TIP3   OH237900   5.786   6.052   4.219 -0.6150  0.4135 -0.5368
 5470TIP3    H137901   5.853   6.120   4.214  1.6822 -1.6527  0.0441
 5470TIP3    H237902   5.801   6.010   4.304 -1.2738 -1.4264 -1.2763
 5471TIP3   OH237903   1.947   2.448   0.408  0.1592 -0.0294  0.6528
 5471TIP3    H137904   1.942   2.511   0.336  1.8032  0.1773  0.6889
 5471TIP3    H237905   1.867   2.463   0.459 -2.0217 -1.4108 -2.0740
 5472TIP3   OH237906   4.609   0.610   3.811  0.2887 -0.7194  0.1000
 5472TIP3    H137907   4.516   0.621   3.829  0.5900  0.8901  0.7926
 5472TIP3    H237908   4.612   0.573   3.723 -0.9888 -0.2388 -0.1660
 5473TIP3   OH237909   3.190   1.702  16.811  0.2964  0.1100  0.1438
 5473TIP3    H137910   3.215   1.612  16.793 -2.2365 -0.4529 -1.0167
 5473TIP3    H237911   3.095   1.703  16.801 -0.0530  2.4105  2.4411
 5474TIP3   OH237912   0.950   5.656  13.732 -0.1911 -0.3554 -0.3121
 5474TIP3    H137913   0.968   5.578  13.679  1.0475 -0.8186  0.7337
 5474TIP3    H237914   0.867   5.637  13.776  0.7541 -1.7090  0.9793
 5475TIP3   OH237915   3.459   4.145   0.358 -0.5259  0.2962  0.2694
 5475TIP3    H137916   3.409   4.190   0.291  0.5969  0.6209 -0.3824
 5475TIP3    H237917   3.540   4.196   0.366  0.4507 -1.1530  0.0516
 5476TIP3   OH237918   3.906   0.003   5.518  0.2057 -0.1483  0.6244
 5476TIP3    H137919   3.836  -0.024   5.578 -1.0676  0.5785 -0.4650
 5476TIP3    H237920   3.934   0.088   5.550 -0.2250  0.0795  0.4060
 5477TIP3   OH237921   6.112   2.748  13.459  0.0877 -0.2350  0.2155
 5477TIP3    H137922   6.142   2.837  13.478  0.4550 -0.3318  0.1047
 5477TIP3    H237923   6.040   2.733  13.519 -0.0505  0.1825  0.1551
 5478TIP3   OH237924   4.796   5.921   2.017  0.3667 -0.2682 -0.5264
 5478TIP3    H137925   4.734   5.858   2.053 -0.6013  1.4068  0.9420
 5478TIP3    H237926   4.857   5.939   2.088 -0.7110  2.0478 -0.1002
 5479TIP3   OH237927   5.904   0.988   4.798  0.1693 -0.4641  0.2099
 5479TIP3    H137928   5.859   0.904   4.791 -0.1792 -0.3015  0.4726
 5479TIP3    H237929   5.847   1.049   4.752  0.4259 -0.3692  0.0150
 5480TIP3   OH237930   5.794   6.712   1.283  0.0823 -0.0458  0.0393
 5480TIP3    H137931   5.783   6.658   1.205  1.0163  0.1430 -0.2268
 5480TIP3    H237932   5.867   6.770   1.262 -1.0182  1.4728  0.2296
 5481TIP3   OH237933   1.362   2.592   6.523 -0.0956 -0.0577  0.7020
 5481TIP3    H137934   1.404   2.665   6.569  1.4776 -1.0404  0.8744
 5481TIP3    H237935   1.342   2.627   6.436  0.5552  0.6069  0.8104
 5482TIP3   OH237936   5.846   6.171   5.718 -0.3931  0.2179  0.6843
 5482TIP3    H137937   5.817   6.103   5.657  2.2103  1.0310 -1.6827
 5482TIP3    H237938   5.803   6.251   5.688  2.0873  0.9409 -1.2996
 5483TIP3   OH237939   5.855   3.374  13.793 -0.4859  0.6835 -0.3601
 5483TIP3    H137940   5.928   3.330  13.835 -0.5745  1.2475  0.4014
 5483TIP3    H237941   5.777   3.335  13.833 -0.6003  0.4741 -0.7741
 5484TIP3   OH237942   2.692   6.800   0.398 -0.0510 -0.0549 -0.1693
 5484TIP3    H137943   2.670   6.810   0.305  0.1304  0.4994 -0.1595
 5484TIP3    H237944   2.684   6.706   0.415  1.4449 -0.3890 -1.1264
 5485TIP3   OH237945   1.713   5.880  16.607  0.2889 -0.2025  0.5740
 5485TIP3    H137946   1.672   5.966  16.620  0.3607  0.2894 -1.9119
 5485TIP3    H237947   1.641   5.818  16.615 -0.2979  0.3521 -0.2331
 5486TIP3   OH237948   1.163   1.607   0.970  1.0753  0.1806 -0.6528
 5486TIP3    H137949   1.180   1.557   1.049 -0.6262  2.6427  1.4392
 5486TIP3    H237950   1.231   1.580   0.909  0.7765 -3.9385  0.5470
 5487TIP3   OH237951   5.287   2.706  11.163 -0.6484 -0.6727  0.4594
 5487TIP3    H137952   5.312   2.766  11.093 -1.4792 -0.4333  0.3574
 5487TIP3    H237953   5.220   2.650  11.123 -0.6005 -1.0130  0.8528
 5488TIP3   OH237954   6.411   3.218   0.335 -0.1867  0.3442 -0.1592
 5488TIP3    H137955   6.343   3.285   0.331  0.3161  0.8879  0.3502
 5488TIP3    H237956   6.469   3.238   0.261  0.2589  0.8008  0.3066
 5489TIP3   OH237957   2.652   4.887   5.014 -0.7436 -0.3838 -0.7778
 5489TIP3    H137958   2.624   4.798   5.035  0.6507 -0.8446 -0.7676
 5489TIP3    H237959   2.577   4.942   5.039 -1.2057 -1.4419  0.2731
 5490TIP3   OH237960   5.387   3.772   2.031 -0.0423  0.2708 -0.2805
 5490TIP3    H137961   5.323   3.773   2.102  1.9281 -1.0745  1.6446
 5490TIP3    H237962   5.468   3.804   2.072  0.4717  2.5267 -2.7615
 5491TIP3   OH237963   4.772   3.402  15.388  0.0935  0.1737 -0.4165
 5491TIP3    H137964   4.724   3.465  15.335  0.0337  1.7164  1.3365
 5491TIP3    H237965   4.711   3.330  15.401 -1.1444  1.2880  0.2635
 5492TIP3   OH237966   4.363   1.425   3.075 -0.2270 -0.1723 -0.0816
 5492TIP3    H137967   4.348   1.453   3.165  0.8063  0.0111  0.0522
 5492TIP3    H237968   4.293   1.363   3.056 -0.3670 -0.3190  0.9036
 5493TIP3   OH237969   5.744   6.296  11.211  0.1012  0.2276 -0.0166
 5493TIP3    H137970   5.651   6.277  11.210 -0.0095  0.7550 -0.9125
 5493TIP3    H237971   5.750   6.385  11.246  0.0293  1.1777 -2.2212
 5494TIP3   OH237972   5.315   0.654  12.776  0.6337 -0.6047 -0.6179
 5494TIP3    H137973   5.333   0.562  12.797  3.0741 -0.1248 -0.2316
 5494TIP3    H237974   5.313   0.658  12.681 -1.1182 -1.2892 -0.6345
 5495TIP3   OH237975   2.718   1.706   1.357 -0.0384 -0.0159  0.2047
 5495TIP3    H137976   2.806   1.669   1.351 -0.0531  0.1540 -1.8886
 5495TIP3    H237977   2.659   1.630   1.353 -0.0202 -0.1767  2.1972
 5496TIP3   OH237978   2.211   2.642  17.146 -0.0494 -0.4560 -0.6572
 5496TIP3    H137979   2.130   2.622  17.098 -0.3510  0.5274 -0.5798
 5496TIP3    H237980   2.239   2.558  17.183 -2.0227 -0.5176  0.8490
 5497TIP3   OH237981   0.853   0.158   4.196  0.3681  0.1371 -0.2351
 5497TIP3    H137982   0.866   0.118   4.282  0.7960  0.7385 -0.0177
 5497TIP3    H237983   0.763   0.191   4.198  0.2610 -0.1545 -0.1505
 5498TIP3   OH237984   1.415   0.499  14.536  0.4103 -0.4350  0.7575
 5498TIP3    H137985   1.347   0.528  14.475  1.5289  0.9199  0.0920
 5498TIP3    H237986   1.398   0.548  14.616  1.3106  0.8939  0.1750
 5499TIP3   OH237987   5.777   2.850   2.457 -0.3935  0.5520  0.1210
 5499TIP3    H137988   5.727   2.771   2.478  0.6706 -0.3609 -0.6500
 5499TIP3    H237989   5.749   2.874   2.369  1.0735 -0.4709 -0.6734
 5500TIP3   OH237990   2.691   2.563   2.949 -1.2105  0.0162 -0.2657
 5500TIP3    H137991   2.655   2.564   3.038 -0.9151  0.1639 -0.1439
 5500TIP3    H237992   2.693   2.470   2.925 -1.3945 -0.0154 -0.1595
 5501TIP3   OH237993   4.543   5.905  11.364 -0.2981 -0.5606  0.7194
 5501TIP3    H137994   4.547   5.906  11.459  1.6877 -3.3178  0.7658
 5501TIP3    H237995   4.628   5.937  11.335  0.0083 -1.9845 -0.0361
 5502TIP3   OH237996   0.537   0.812  16.517 -0.3951  0.8681  0.5199
 5502TIP3    H137997   0.508   0.722  16.501  1.2040  0.3928  0.1020
 5502TIP3    H237998   0.510   0.860  16.438  3.1075 -0.3971 -1.6789
 5503TIP3   OH237999   3.134   3.445  14.964 -0.4770  0.1422  0.0498
 5503TIP3    H138000   3.223   3.458  14.999 -0.5132 -0.7656  0.5181
 5503TIP3    H238001   3.076   3.476  15.033 -0.5687  3.2869 -1.2916
 5504TIP3   OH238002   0.974   4.090  15.392  0.0784  0.0253  0.3911
 5504TIP3    H138003   0.936   4.005  15.367 -0.3435  0.1569  0.5911
 5504TIP3    H238004   1.001   4.078  15.483  2.5702 -0.7978 -0.3669
 5505TIP3   OH238005   0.081   0.940  13.324 -0.9739 -0.4274 -0.1166
 5505TIP3    H138006   0.042   0.878  13.262 -2.2183  0.7148 -0.5444
 5505TIP3    H238007   0.028   1.019  13.314  2.0386  1.6299 -1.4802
 5506TIP3   OH238008   3.682   5.163  17.120  0.6969  0.1225  0.5980
 5506TIP3    H138009   3.592   5.188  17.099 -0.3818 -2.5295  1.6135
 5506TIP3    H238010   3.728   5.172  17.037 -0.5626  1.2000 -0.0368
 5507TIP3   OH238011   5.375   2.353  11.912 -0.2924  0.3569 -0.0194
 5507TIP3    H138012   5.371   2.365  11.818 -1.3664  0.4420  0.0294
 5507TIP3    H238013   5.389   2.259  11.924 -0.2751  0.3291 -0.2596
 5508TIP3   OH238014   1.664   1.142   5.047  0.0737  0.2294  0.3500
 5508TIP3    H138015   1.625   1.058   5.071  0.1391  0.0700 -0.0735
 5508TIP3    H238016   1.741   1.150   5.103  3.3335 -2.6414 -3.1044
 5509TIP3   OH238017   1.416   1.550   4.504 -0.1773  0.4894 -0.0231
 5509TIP3    H138018   1.385   1.568   4.415  0.4181  1.7512  0.0166
 5509TIP3    H238019   1.335   1.538   4.554 -0.5478 -2.0902 -1.0364
 5510TIP3   OH238020   1.179   2.691  14.901 -0.3000 -0.2034 -0.2165
 5510TIP3    H138021   1.199   2.783  14.884  2.1217 -0.3373  1.3794
 5510TIP3    H238022   1.184   2.682  14.996  1.8593 -2.3683 -0.4205
 5511TIP3   OH238023   5.041   4.696  13.346 -0.7865 -0.0163  0.7811
 5511TIP3    H138024   5.107   4.714  13.278  0.4359 -1.0701  1.6302
 5511TIP3    H238025   5.040   4.776  13.400 -0.2138  0.0173  0.7497
 5512TIP3   OH238026   1.671   3.589   3.598 -0.1258  0.1660 -0.6054
 5512TIP3    H138027   1.728   3.561   3.670  1.0922 -1.7877 -2.2349
 5512TIP3    H238028   1.632   3.671   3.629  3.4088  1.5271  0.6975
 5513TIP3   OH238029   3.003   3.026  14.644  0.0270  0.6162 -0.5408
 5513TIP3    H138030   3.062   2.950  14.644  0.6018  1.0512 -0.7515
 5513TIP3    H238031   3.048   3.091  14.698 -0.0979  1.0704 -0.9687
 5514TIP3   OH238032   3.819   6.556   4.499 -0.0280 -0.2097  0.4100
 5514TIP3    H138033   3.741   6.580   4.548  0.7278 -0.4819  1.8130
 5514TIP3    H238034   3.793   6.560   4.407 -0.9249  2.3804  0.7041
 5515TIP3   OH238035   5.171   1.432   0.466 -0.3825  0.0874 -0.1743
 5515TIP3    H138036   5.133   1.515   0.437  0.0088  0.4497  0.3336
 5515TIP3    H238037   5.192   1.386   0.385 -1.5129  0.0549 -0.4717
 5516TIP3   OH238038   1.311   4.859   3.368 -0.3823 -0.0718  0.1175
 5516TIP3    H138039   1.260   4.817   3.298 -1.2411 -2.7846  2.1938
 5516TIP3    H238040   1.400   4.862   3.334 -0.4598 -2.8528 -0.5869
 5517TIP3   OH238041   1.655   4.909  14.977 -0.1148  0.4808 -0.1651
 5517TIP3    H138042   1.598   4.986  14.969  0.2683  0.6639 -1.2915
 5517TIP3    H238043   1.595   4.835  14.977 -0.4492  0.7400  0.3830
 5518TIP3   OH238044   2.327   2.351   2.300 -0.7563  0.5471  0.0316
 5518TIP3    H138045   2.406   2.315   2.341 -0.5364  1.1856  0.1900
 5518TIP3    H238046   2.258   2.288   2.320 -0.5909  0.7085  1.1600
 5519TIP3   OH238047   5.074   4.313  11.619  0.4838  0.3339  0.3894
 5519TIP3    H138048   4.994   4.334  11.571  0.1218  1.9387  1.6000
 5519TIP3    H238049   5.114   4.399  11.637  1.7645 -0.3597  1.0105
 5520TIP3   OH238050   1.863   4.892   1.815  0.2081  0.7351  0.7538
 5520TIP3    H138051   1.856   4.867   1.907 -0.1813  1.4080  0.9102
 5520TIP3    H238052   1.910   4.975   1.816 -1.0330  1.4635  0.4621
 5521TIP3   OH238053   2.219   5.411   2.354 -0.0580 -0.1630 -0.1492
 5521TIP3    H138054   2.230   5.326   2.312  0.6093  0.4283 -1.2197
 5521TIP3    H238055   2.249   5.474   2.288 -1.3076  0.9556  0.3123
 5522TIP3   OH238056   6.056   1.096   4.051  0.1737  0.0517  0.2314
 5522TIP3    H138057   6.115   1.059   3.985 -0.7043 -1.6571  0.3686
 5522TIP3    H238058   6.042   1.187   4.022  0.0146 -0.5755 -1.7901
 5523TIP3   OH238059   0.362   6.622  12.419 -0.2884  0.0026 -0.0680
 5523TIP3    H138060   0.421   6.562  12.465 -0.8053 -0.9592 -0.6333
 5523TIP3    H238061   0.304   6.565  12.368 -0.4690  1.0005 -1.0195
 5524TIP3   OH238062   0.260   2.006  12.280  0.2090 -0.7531  0.1434
 5524TIP3    H138063   0.319   1.984  12.208 -0.0396 -0.5734 -0.1221
 5524TIP3    H238064   0.308   2.069  12.333  1.0067 -2.0724  1.0289
 5525TIP3   OH238065   0.526   1.524   1.139 -0.0647  0.0195  0.3295
 5525TIP3    H138066   0.543   1.618   1.148 -0.6958  0.1112  0.6262
 5525TIP3    H238067   0.483   1.516   1.054  3.2990 -0.4899 -1.5172
 5526TIP3   OH238068   1.488   2.482  11.051 -0.2466 -0.3577 -0.2808
 5526TIP3    H138069   1.567   2.435  11.025  0.4843 -0.1140  1.3805
 5526TIP3    H238070   1.496   2.568  11.009  0.1595 -0.4825 -0.4598
 5527TIP3   OH238071   4.896   4.611   3.066  0.5888  0.2562  0.0424
 5527TIP3    H138072   4.891   4.691   3.014  0.7423 -0.4039 -1.0096
 5527TIP3    H238073   4.829   4.621   3.133 -1.3927  0.0546 -1.8075
 5528TIP3   OH238074   5.374   2.495  15.968 -0.1918 -0.1009 -0.5022
 5528TIP3    H138075   5.330   2.412  15.988  0.0553  0.1068  0.9872
 5528TIP3    H238076   5.457   2.469  15.928  0.8360 -0.6927  1.8377
 5529TIP3   OH238077   2.860   4.744  13.165 -0.5933  0.1302  0.4122
 5529TIP3    H138078   2.944   4.741  13.119 -0.0437  0.9712  1.3363
 5529TIP3    H238079   2.807   4.806  13.115 -0.0212  0.9924  0.8692
 5530TIP3   OH238080   6.616   0.456  16.828 -0.0464 -0.4247 -0.1206
 5530TIP3    H138081   6.657   0.505  16.757  1.7395  1.7552  2.2276
 5530TIP3    H238082   6.678   0.386  16.848  0.2803 -0.0172  0.3302
 5531TIP3   OH238083   5.068   5.779   3.596 -0.0392  0.3951  0.0964
 5531TIP3    H138084   5.108   5.704   3.552 -0.5348  0.0521  0.2201
 5531TIP3    H238085   4.986   5.793   3.549 -1.3530 -0.9683  1.8464
 5532TIP3   OH238086   0.468   0.356   0.241 -0.3396  0.6836  0.2200
 5532TIP3    H138087   0.380   0.320   0.237  0.3699 -1.3763  1.3426
 5532TIP3    H238088   0.465   0.421   0.311 -0.7566 -0.0744  0.9150
 5533TIP3   OH238089   2.594   6.614   1.925 -0.9029  0.0064  0.0753
 5533TIP3    H138090   2.597   6.672   1.848  0.0772 -2.3766 -1.8375
 5533TIP3    H238091   2.608   6.672   1.999 -0.3871  2.2603 -1.6547
 5534TIP3   OH238092   2.185   5.994  16.739 -0.5896  0.3214 -0.5850
 5534TIP3    H138093   2.104   5.988  16.789 -0.6603  2.5617 -0.3409
 5534TIP3    H238094   2.157   5.999  16.648 -0.6354 -0.4013 -0.6137
 5535TIP3   OH238095   5.970   5.502   1.904  0.2235 -0.3787 -0.1934
 5535TIP3    H138096   5.945   5.424   1.854  1.7776  0.1426 -1.8845
 5535TIP3    H238097   6.002   5.468   1.988 -3.0385 -1.2372  0.8491
 5536TIP3   OH238098   1.068   0.611  13.542 -0.2776 -0.6895  0.9427
 5536TIP3    H138099   1.061   0.592  13.448 -1.6436  0.5261  0.7629
 5536TIP3    H238100   1.161   0.602  13.562  0.4874  1.5651 -1.1042
 5537TIP3   OH238101   3.089   5.034  17.110 -1.0858  0.0622 -0.4126
 5537TIP3    H138102   3.012   4.978  17.120 -0.6928 -0.3778  0.2178
 5537TIP3    H238103   3.163   4.974  17.118 -0.5742  0.9751  2.9935
 5538TIP3   OH238104   4.308   6.577   2.026 -0.2847  0.4088  0.8429
 5538TIP3    H138105   4.350   6.511   2.081 -0.2040  0.7129  1.1498
 5538TIP3    H238106   4.336   6.554   1.937 -1.9903 -1.2546  0.6703
 5539TIP3   OH238107   1.257   1.689   2.022  0.0752  0.4419 -0.0495
 5539TIP3    H138108   1.329   1.681   1.959 -1.3914 -1.6666 -1.5732
 5539TIP3    H238109   1.229   1.780   2.014  0.6811  0.5222 -1.6171
 5540TIP3   OH238110   0.489   4.704  12.922  0.3163  0.4040  0.1145
 5540TIP3    H138111   0.439   4.641  12.869  0.4087  0.7943 -0.4523
 5540TIP3    H238112   0.543   4.649  12.979  0.4109 -0.0371 -0.3820
 5541TIP3   OH238113   0.994   0.456  14.552  0.3133 -0.3630 -0.0262
 5541TIP3    H138114   0.912   0.449  14.601 -0.0602  0.0484 -0.5810
 5541TIP3    H238115   0.998   0.548  14.525  0.4296 -0.6118 -0.8912
 5542TIP3   OH238116   5.862   6.399  11.805 -0.0021 -0.2675  0.0843
 5542TIP3    H138117   5.936   6.427  11.859  1.0401  1.0951 -1.9345
 5542TIP3    H238118   5.796   6.371  11.869  1.7380 -0.2970  1.9924
 5543TIP3   OH238119   1.147   5.451   2.620 -0.0275  0.3014 -0.2169
 5543TIP3    H138120   1.074   5.442   2.559 -1.3752 -1.3596  1.5405
 5543TIP3    H238121   1.160   5.363   2.655  2.8335  0.5477 -0.4296
 5544TIP3   OH238122   6.321   5.810   2.458 -0.3171  0.2756 -0.0930
 5544TIP3    H138123   6.295   5.718   2.459 -0.4973  0.3269 -0.0363
 5544TIP3    H238124   6.314   5.836   2.366  3.4926 -0.8210 -0.8582
 5545TIP3   OH238125   4.108   5.347   3.636 -0.1229  0.2693 -0.3647
 5545TIP3    H138126   4.188   5.381   3.677 -0.9439  1.0946  0.6106
 5545TIP3    H238127   4.073   5.421   3.587 -0.4872  0.0309 -0.4698
 5546TIP3   OH238128   4.619   4.148  14.885  0.8284  0.1560  0.4150
 5546TIP3    H138129   4.630   4.210  14.812  0.3061  1.0770  1.1042
 5546TIP3    H238130   4.526   4.152  14.905  1.0096  0.1105  1.3034
 5547TIP3   OH238131   3.285   3.131  14.066 -0.4593  0.4572  0.0503
 5547TIP3    H138132   3.210   3.159  14.118 -0.7047  0.2248 -0.1764
 5547TIP3    H238133   3.297   3.039  14.090  0.0463  0.6167  0.4360
 5548TIP3   OH238134   5.996   3.074   4.054 -0.1835  0.2367 -0.0254
 5548TIP3    H138135   5.933   3.042   3.990  0.3509  1.4901 -1.2109
 5548TIP3    H238136   6.023   2.995   4.102 -2.6438 -0.3366  0.5758
 5549TIP3   OH238137   0.094   3.911  12.494 -0.3747  0.1589 -0.0270
 5549TIP3    H138138   0.143   3.965  12.432 -0.5067  0.0028 -0.2701
 5549TIP3    H238139   0.052   3.845  12.439 -2.2085  1.2713 -0.0314
 5550TIP3   OH238140   0.013   3.272  11.146 -0.1654  0.3022  0.3904
 5550TIP3    H138141  -0.065   3.321  11.120  1.3176  2.3915 -0.3900
 5550TIP3    H238142   0.072   3.281  11.072  1.0013 -0.8903  1.1357
 5551TIP3   OH238143   1.285   2.964   2.899  0.3154  0.1756 -0.2126
 5551TIP3    H138144   1.240   2.953   2.983 -0.9831 -0.4371 -0.9630
 5551TIP3    H238145   1.288   2.876   2.861 -0.4540  0.6614 -1.4663
 5552TIP3   OH238146   2.827   3.974   3.395  0.2989 -0.8576 -0.0065
 5552TIP3    H138147   2.854   4.049   3.342  0.5525 -0.4504  0.6794
 5552TIP3    H238148   2.747   3.943   3.354  0.4233 -0.4732 -0.5518
 5553TIP3   OH238149   1.067   4.168  14.545  0.7214 -0.3648 -0.0562
 5553TIP3    H138150   1.077   4.090  14.600  0.6040  0.5647  1.3448
 5553TIP3    H238151   1.118   4.236  14.590 -0.6420  0.8406 -0.2324
 5554TIP3   OH238152   0.764   1.034   4.459 -0.3184 -0.2856  0.1836
 5554TIP3    H138153   0.682   0.985   4.461  0.6797 -2.1494 -1.2675
 5554TIP3    H238154   0.745   1.111   4.405 -1.2134 -0.4981  0.1861
 5555TIP3   OH238155   1.787   1.377  16.519  0.4812 -0.3386  0.2568
 5555TIP3    H138156   1.717   1.405  16.460 -0.5673  0.2205  1.6775
 5555TIP3    H238157   1.825   1.458  16.552  0.3289 -0.6098  1.1360
 5556TIP3   OH238158   1.635   5.463   5.147 -0.3951  0.0686 -0.1228
 5556TIP3    H138159   1.712   5.480   5.202 -0.1958  0.0346 -0.3862
 5556TIP3    H238160   1.563   5.506   5.193 -0.5381 -1.2890  0.9896
 5557TIP3   OH238161   1.321   3.545  16.318 -0.1868 -0.2649 -0.1751
 5557TIP3    H138162   1.277   3.612  16.370  0.6573 -0.9802  1.5342
 5557TIP3    H238163   1.253   3.483  16.295 -0.5628  0.0228  0.1508
 5558TIP3   OH238164   4.548   3.458  16.306  0.6913  0.1680 -0.6769
 5558TIP3    H138165   4.453   3.459  16.317  0.7559 -1.6940  0.3671
 5558TIP3    H238166   4.561   3.438  16.213  0.0155 -1.8651 -0.3754
 5559TIP3   OH238167   6.072   2.653   5.602  0.3588 -0.3174 -0.6021
 5559TIP3    H138168   6.110   2.587   5.544 -1.6936 -0.7726 -1.5165
 5559TIP3    H238169   6.035   2.718   5.543  0.8100  0.7736  0.2793
 5560TIP3   OH238170   1.301   6.470  16.853  0.1556  0.1603  0.1952
 5560TIP3    H138171   1.284   6.376  16.863  1.4100 -0.2139 -0.8073
 5560TIP3    H238172   1.235   6.513  16.907  0.0325 -1.3203  1.2731
 5561TIP3   OH238173   6.246   4.420   3.575  0.0066  0.2323  0.0592
 5561TIP3    H138174   6.204   4.422   3.489  0.3487  1.3875 -0.0987
 5561TIP3    H238175   6.325   4.473   3.564  0.1180  0.2865  1.0585
 5562TIP3   OH238176   3.081   1.855  13.736  0.3194 -0.1277 -0.7352
 5562TIP3    H138177   3.103   1.762  13.726  2.1605  0.0853  0.6238
 5562TIP3    H238178   3.041   1.860  13.823 -1.0134  0.1947 -1.3430
 5563TIP3   OH238179   6.405   2.553  16.647  0.1310 -0.0144 -0.1113
 5563TIP3    H138180   6.341   2.506  16.593 -0.1300  0.2551 -0.0441
 5563TIP3    H238181   6.473   2.581  16.586  0.1014 -0.1658 -0.2125
 5564TIP3   OH238182   5.531   2.840  12.800 -0.0285  0.8448 -0.1458
 5564TIP3    H138183   5.528   2.934  12.780 -0.5490  0.9337  0.3351
 5564TIP3    H238184   5.444   2.808  12.778 -0.1964  0.6897  0.7069
 5565TIP3   OH238185   3.827   2.584  14.410 -0.0113  0.2465  0.4001
 5565TIP3    H138186   3.884   2.540  14.347 -1.4338 -2.2589  0.7390
 5565TIP3    H238187   3.886   2.615  14.479  1.0371 -1.7988  0.4915
 5566TIP3   OH238188   4.534   5.816   0.741  0.7004  0.4702 -0.1330
 5566TIP3    H138189   4.520   5.841   0.832  3.0106  1.1549  0.1031
 5566TIP3    H238190   4.527   5.720   0.741  0.6842  0.4617  0.7729
 5567TIP3   OH238191   3.260   5.252  16.147  0.2470  0.4483 -0.6011
 5567TIP3    H138192   3.278   5.171  16.100  0.6578 -0.7042  1.4067
 5567TIP3    H238193   3.168   5.270  16.129  0.2794 -0.1992 -1.4661
 5568TIP3   OH238194   4.432   3.856  13.083  0.1063  0.0961 -0.1972
 5568TIP3    H138195   4.451   3.949  13.093 -3.2956  0.8767  0.0202
 5568TIP3    H238196   4.389   3.850  12.998  1.7147 -1.6215 -0.9667
 5569TIP3   OH238197   6.045   0.520  13.496  0.2856  0.0840  0.2926
 5569TIP3    H138198   6.026   0.492  13.406 -1.9882 -0.8904  1.0010
 5569TIP3    H238199   5.961   0.550  13.530  1.2297  1.0473  1.9339
 5570TIP3   OH238200   2.628   1.182  11.616  0.0452  0.2441 -0.6162
 5570TIP3    H138201   2.655   1.265  11.578  1.4110  0.3481  0.5235
 5570TIP3    H238202   2.687   1.168  11.690  0.0987 -1.9024 -0.9730
 5571TIP3   OH238203   3.304   2.058   3.788 -0.3085  0.0905  0.3387
 5571TIP3    H138204   3.242   2.000   3.743  0.1298 -0.3393  0.2833
 5571TIP3    H238205   3.250   2.130   3.821 -0.7541 -0.0086 -0.1715
 5572TIP3   OH238206   6.283   3.388   3.108  0.0296  0.3261  0.8557
 5572TIP3    H138207   6.191   3.368   3.090  0.2504  0.2387 -0.2469
 5572TIP3    H238208   6.285   3.484   3.118  0.3286  0.8422 -2.7807
 5573TIP3   OH238209   6.137   2.304   5.899 -0.2045  0.4925  0.7370
 5573TIP3    H138210   6.063   2.315   5.839  0.7031 -0.3753 -0.6082
 5573TIP3    H238211   6.119   2.222   5.944 -0.4090  0.6545  0.9559
 5574TIP3   OH238212   1.741   1.480  16.904 -0.1539 -0.2347 -0.3023
 5574TIP3    H138213   1.701   1.433  16.831 -1.1266  1.5634 -0.9863
 5574TIP3    H238214   1.823   1.514  16.868 -0.6128  0.6146 -0.5860
 5575TIP3   OH238215   2.530   6.641   3.399 -0.1566 -0.7444  0.3756
 5575TIP3    H138216   2.437   6.620   3.386 -0.6914  1.1369  0.9401
 5575TIP3    H238217   2.553   6.595   3.480 -0.1954 -2.3123 -0.4619
 5576TIP3   OH238218   3.716   4.457   6.049 -0.1693 -0.5550  0.3067
 5576TIP3    H138219   3.787   4.423   6.104  0.8342  1.2828  0.2094
 5576TIP3    H238220   3.670   4.519   6.105 -0.1230  0.1478 -0.4215
 5577TIP3   OH238221   6.546   4.113  15.807 -0.8334  0.2814  0.5609
 5577TIP3    H138222   6.551   4.199  15.764  0.6039 -0.3549 -0.6202
 5577TIP3    H238223   6.559   4.050  15.736  1.9370 -0.8187  1.9235
 5578TIP3   OH238224   6.329   4.218  15.011 -0.1522 -0.7926 -0.1290
 5578TIP3    H138225   6.302   4.303  15.046  1.5942 -0.2349 -0.0458
 5578TIP3    H238226   6.287   4.214  14.925 -0.6072 -0.0463  0.0443
 5579TIP3   OH238227   5.199   3.609   4.300 -0.2745  0.3935 -0.0897
 5579TIP3    H138228   5.283   3.579   4.265  0.9846  0.7651  2.3397
 5579TIP3    H238229   5.200   3.704   4.285 -0.3665  0.3615 -0.2915
 5580TIP3   OH238230   4.570   2.441  14.264  0.2700 -0.2439  0.2213
 5580TIP3    H138231   4.633   2.388  14.214  0.1474 -1.3631  1.1864
 5580TIP3    H238232   4.589   2.419  14.355 -1.3235 -0.3631  0.5461
 5581TIP3   OH238233   3.423   3.257  13.460 -0.2987 -0.3355  0.0721
 5581TIP3    H138234   3.451   3.237  13.549 -1.8390 -0.7613  0.4891
 5581TIP3    H238235   3.333   3.225  13.455 -0.1334 -0.6214 -1.7517
 5582TIP3   OH238236   0.227   3.034  14.650  0.0119 -0.0432 -0.3013
 5582TIP3    H138237   0.300   2.974  14.639  0.7449  0.2037  2.4212
 5582TIP3    H238238   0.165   2.986  14.705 -0.9312  0.5238 -0.8365
 5583TIP3   OH238239   2.257   6.300   6.578  0.5329 -0.1741  0.3641
 5583TIP3    H138240   2.191   6.368   6.593  1.9404  1.5835 -0.9496
 5583TIP3    H238241   2.300   6.326   6.497  2.1682 -1.8273  0.6370
 5584TIP3   OH238242   6.454   3.734   1.038  0.7700  0.3175 -0.3319
 5584TIP3    H138243   6.386   3.682   0.995  0.7623  0.6944 -0.7762
 5584TIP3    H238244   6.529   3.674   1.046  1.2548  0.6487 -2.1197
 5585TIP3   OH238245   5.971   6.706  12.763 -0.5853  0.4377 -0.3509
 5585TIP3    H138246   5.964   6.699  12.668  0.7123 -1.7702 -0.3680
 5585TIP3    H238247   6.022   6.785  12.778 -0.3051  0.4976 -1.5423
 5586TIP3   OH238248   1.103   0.730   3.322 -0.1580 -0.0986  0.1991
 5586TIP3    H138249   1.185   0.778   3.334  0.4661 -0.8388 -0.8998
 5586TIP3    H238250   1.061   0.772   3.247 -0.5703  0.0001  0.4851
 5587TIP3   OH238251   5.197   6.644  15.014  0.4791  0.2729  0.3497
 5587TIP3    H138252   5.123   6.656  14.954  0.0571 -3.7214 -0.1476
 5587TIP3    H238253   5.159   6.658  15.101 -0.4323  0.0168  0.0031
 5588TIP3   OH238254   1.174   0.821  15.645  0.2888 -0.4398 -0.1027
 5588TIP3    H138255   1.176   0.798  15.553 -1.1853  1.6738 -0.7267
 5588TIP3    H238256   1.150   0.740  15.690 -4.3424 -0.4734 -2.1056
 5589TIP3   OH238257   2.676   0.542   2.741  0.0082 -0.7687  0.0844
 5589TIP3    H138258   2.594   0.587   2.722  0.9343  0.4345 -1.3267
 5589TIP3    H238259   2.654   0.449   2.734 -1.0770 -0.4628 -1.1007
 5590TIP3   OH238260   4.919   1.532  16.935 -0.4024  0.0558 -0.2928
 5590TIP3    H138261   4.960   1.465  16.881  0.7911  0.3832  0.1565
 5590TIP3    H238262   4.849   1.568  16.881 -0.0046 -0.4432 -1.1496
 5591TIP3   OH238263   0.885   6.608   3.050  0.1235  0.0152 -0.2718
 5591TIP3    H138264   0.821   6.557   3.101 -0.6146 -0.5699 -1.7216
 5591TIP3    H238265   0.952   6.544   3.026  2.0928  0.9045  2.4167
 5592TIP3   OH238266   5.768   3.222  16.504 -0.1417  0.0583 -0.1969
 5592TIP3    H138267   5.829   3.157  16.537 -0.4845 -0.0348  0.2518
 5592TIP3    H238268   5.811   3.257  16.426  0.4130 -0.1166  0.0266
 5593TIP3   OH238269   0.781   5.773   1.385 -0.2837  0.0323  0.0628
 5593TIP3    H138270   0.804   5.716   1.458  1.0391 -0.6698 -0.8524
 5593TIP3    H238271   0.865   5.812   1.358 -0.6146 -0.3010 -1.5419
 5594TIP3   OH238272   4.348   0.297  12.420 -0.7864 -0.6284 -0.0652
 5594TIP3    H138273   4.421   0.240  12.442 -1.1591 -1.8237 -1.7513
 5594TIP3    H238274   4.365   0.326  12.331 -0.7054  1.8207  0.6609
 5595TIP3   OH238275   1.481   3.045   3.833 -0.2156 -0.3901 -0.0519
 5595TIP3    H138276   1.520   3.063   3.747  1.0951 -0.2082  0.5647
 5595TIP3    H238277   1.502   3.122   3.885 -0.3441 -0.8343  0.6619
 5596TIP3   OH238278   4.718   1.984   1.429  0.0191 -0.5849  0.2418
 5596TIP3    H138279   4.739   1.983   1.522 -1.4779 -0.1064  0.6152
 5596TIP3    H238280   4.798   2.013   1.386  0.0709  1.4490  1.5815
 5597TIP3   OH238281   3.385   4.788  15.659  0.4160  0.1464  0.8906
 5597TIP3    H138282   3.340   4.710  15.628 -1.9794  1.7879 -0.1177
 5597TIP3    H238283   3.399   4.841  15.580  0.6659  1.3467  1.7062
 5598TIP3   OH238284   1.442   3.830   1.368 -0.1034  0.5514  0.0570
 5598TIP3    H138285   1.455   3.759   1.431  1.8584  0.9926  0.2071
 5598TIP3    H238286   1.417   3.787   1.287  1.0775 -0.3480  0.1431
 5599TIP3   OH238287   2.347   1.965  14.500 -0.2557 -0.6408  0.4104
 5599TIP3    H138288   2.302   1.890  14.540 -0.6600 -0.4499  0.3176
 5599TIP3    H238289   2.424   1.927  14.457 -0.5015 -1.0100  0.2957
 5600TIP3   OH238290   3.640   3.443  15.314 -0.5926 -0.0056  0.3511
 5600TIP3    H138291   3.549   3.475  15.315 -0.4403  0.4721 -0.3459
 5600TIP3    H238292   3.646   3.392  15.233  0.2975  1.6188 -0.6587
 5601TIP3   OH238293   5.395   4.987  15.421  0.0342 -0.0779  0.2104
 5601TIP3    H138294   5.322   4.936  15.455 -1.3255  2.4375  1.2509
 5601TIP3    H238295   5.375   5.077  15.443  3.0014  0.8391 -0.3544
 5602TIP3   OH238296   3.330   4.362   3.362  0.1853  0.2743 -0.3707
 5602TIP3    H138297   3.412   4.412   3.355  0.2407  0.6641  2.0476
 5602TIP3    H238298   3.262   4.429   3.371 -0.0529 -0.0579  0.3369
 5603TIP3   OH238299   3.766   2.681  16.407  0.4116  0.2192  0.6792
 5603TIP3    H138300   3.696   2.655  16.467  1.5012 -0.7572  1.5693
 5603TIP3    H238301   3.792   2.601  16.363 -0.0151  0.8386 -0.7545
 5604TIP3   OH238302   2.733   0.894   5.461 -0.1210 -0.0231  0.1271
 5604TIP3    H138303   2.734   0.982   5.499 -1.6412 -0.4029  1.1521
 5604TIP3    H238304   2.824   0.864   5.467 -0.0354  0.4706  2.2701
 5605TIP3   OH238305   2.470   6.653  13.522 -0.1382 -0.5880  0.2063
 5605TIP3    H138306   2.554   6.653  13.476  0.6463  1.2003  1.5173
 5605TIP3    H238307   2.493   6.633  13.613 -0.8918  1.4401  0.8908
 5606TIP3   OH238308   3.933   3.573   1.933  0.8528  0.0787  0.6007
 5606TIP3    H138309   4.012   3.599   1.886 -0.6298 -0.9936 -2.8177
 5606TIP3    H238310   3.893   3.655   1.960  1.8775  0.7491  0.1409
 5607TIP3   OH238311   6.329   4.266   3.032 -0.0388  0.4844  0.1197
 5607TIP3    H138312   6.384   4.292   2.958 -1.2034 -0.7518 -1.2504
 5607TIP3    H238313   6.382   4.203   3.080  0.2112  0.1922 -0.5204
 5608TIP3   OH238314   0.542   6.096  10.450  0.1543  0.0576  0.4775
 5608TIP3    H138315   0.468   6.077  10.392  0.4778 -0.2675  0.1666
 5608TIP3    H238316   0.539   6.027  10.515 -1.4786  1.5763  2.1357
 5609TIP3   OH238317   6.613   5.269  12.169  0.1708  0.0614 -0.3216
 5609TIP3    H138318   6.683   5.222  12.122  1.1613 -0.2247  1.3599
 5609TIP3    H238319   6.628   5.248  12.261 -1.7743  0.5300  0.1322
 5610TIP3   OH238320   3.848   6.182  11.194 -0.1182  0.0429 -0.1335
 5610TIP3    H138321   3.831   6.274  11.170 -0.6455 -0.1283 -0.4403
 5610TIP3    H238322   3.769   6.136  11.165  0.1665 -0.5153 -0.0143
 5611TIP3   OH238323   0.028   6.530   5.785  0.3775 -0.3663 -0.0594
 5611TIP3    H138324   0.073   6.614   5.793 -0.8658  0.2366  1.0121
 5611TIP3    H238325   0.057   6.481   5.862 -2.0859  0.7218  1.6976
 5612TIP3   OH238326   5.931   4.440  16.694 -0.0855  0.5373 -0.1706
 5612TIP3    H138327   5.853   4.417  16.643  0.3255 -0.0745 -0.5301
 5612TIP3    H238328   5.941   4.534  16.681 -0.5024  0.5421 -0.4868
 5613TIP3   OH238329   3.410   3.831  12.385 -0.4209  0.2922  0.6765
 5613TIP3    H138330   3.400   3.761  12.449  0.0177 -0.1433  0.2843
 5613TIP3    H238331   3.465   3.896  12.428 -0.3343  0.1182  0.8300
 5614TIP3   OH238332   0.029   1.702  11.231  0.4000  0.3984 -0.4401
 5614TIP3    H138333   0.079   1.702  11.313 -1.4839  0.6385  0.7479
 5614TIP3    H238334   0.056   1.783  11.187  2.4945 -0.4153 -0.7988
 5615TIP3   OH238335   5.222   5.948  14.673  0.1344 -0.1821  0.5440
 5615TIP3    H138336   5.273   5.945  14.592 -1.4154 -1.0691 -0.4574
 5615TIP3    H238337   5.245   6.032  14.712  3.3562 -1.0961  0.8857
 5616TIP3   OH238338   1.914   5.055  15.603 -0.5231 -0.6466 -0.0036
 5616TIP3    H138339   1.865   4.975  15.582 -1.2410 -0.7493  1.8619
 5616TIP3    H238340   1.932   5.048  15.697  1.1143  0.4844 -0.2005
 5617TIP3   OH238341   5.728   0.264   0.101  0.4121  0.2764 -0.2980
 5617TIP3    H138342   5.779   0.338   0.135  1.5403 -0.5054 -0.2211
 5617TIP3    H238343   5.666   0.304   0.039  1.1052  1.2711 -0.3791
 5618TIP3   OH238344   2.444   3.074  11.742  0.3338  0.0159  0.1571
 5618TIP3    H138345   2.490   3.137  11.799 -1.5459  1.2405  0.4045
 5618TIP3    H238346   2.354   3.107  11.737 -0.7004 -2.5887  0.1463
 5619TIP3   OH238347   0.265   6.340   0.220  0.2912  0.1970 -0.2902
 5619TIP3    H138348   0.259   6.347   0.125  2.9519 -0.0950 -0.5696
 5619TIP3    H238349   0.327   6.268   0.235 -0.7274 -0.3446  1.6965
 5620TIP3   OH238350   6.415   0.568  14.110  0.2271  0.4294  0.0696
 5620TIP3    H138351   6.419   0.492  14.168 -0.7958  2.0505  2.4036
 5620TIP3    H238352   6.411   0.530  14.022 -2.5739 -2.3425  1.1749
 5621TIP3   OH238353   4.793   3.927   1.974  0.4709 -0.1106  0.4009
 5621TIP3    H138354   4.829   3.877   2.047 -0.2359  0.2637  1.0130
 5621TIP3    H238355   4.757   3.860   1.915 -0.7322 -0.3438  1.3515
 5622TIP3   OH238356   1.856   6.196   2.454 -0.5234  0.3894 -0.5164
 5622TIP3    H138357   1.923   6.263   2.439  0.8797 -0.0920  2.8312
 5622TIP3    H238358   1.812   6.223   2.535 -1.4857 -1.5376 -0.3322
 5623TIP3   OH238359   3.878   4.299   3.963 -0.0588 -0.1861  0.5744
 5623TIP3    H138360   3.811   4.259   4.020 -0.8532 -0.8118 -0.7585
 5623TIP3    H238361   3.832   4.317   3.881  1.2451  0.0418 -0.1257
 5624TIP3   OH238362   5.213   1.798   3.181 -0.4812 -0.4308 -0.0616
 5624TIP3    H138363   5.193   1.827   3.092 -0.8302 -2.1854 -0.6009
 5624TIP3    H238364   5.127   1.794   3.224 -0.3204  0.3466  0.3529
 5625TIP3   OH238365   1.695   0.251   0.511 -0.2985  0.2722 -0.1047
 5625TIP3    H138366   1.716   0.298   0.592 -0.8516  0.4933 -0.0896
 5625TIP3    H238367   1.677   0.161   0.540  0.2374  0.1678 -0.0744
 5626TIP3   OH238368   5.835   3.038  11.951  0.1067  0.3588 -0.2899
 5626TIP3    H138369   5.891   3.050  11.874  0.8916 -1.6607 -0.0832
 5626TIP3    H238370   5.885   2.981  12.009 -1.7723 -0.7656  0.3275
 5627TIP3   OH238371   2.509   5.294   2.277  0.1467 -0.4808  0.0314
 5627TIP3    H138372   2.524   5.388   2.264 -0.0382 -0.4885 -0.2311
 5627TIP3    H238373   2.525   5.281   2.371  1.1131 -0.3633 -0.1058
 5628TIP3   OH238374   3.590   5.747   3.115  0.3363 -0.3286  0.6688
 5628TIP3    H138375   3.651   5.675   3.097 -1.7992 -2.4305  1.3871
 5628TIP3    H238376   3.504   5.713   3.092 -0.7721  2.0663  0.9454
 5629TIP3   OH238377   5.812   5.458  15.260  0.1858 -0.3668  0.2400
 5629TIP3    H138378   5.758   5.504  15.196 -0.0819 -0.4565  0.3995
 5629TIP3    H238379   5.757   5.453  15.339  1.3518  1.7953  1.2598
 5630TIP3   OH238380   0.810   1.748   5.990  0.2378 -0.2140 -0.1270
 5630TIP3    H138381   0.870   1.767   6.062 -0.4083  1.6055 -0.0167
 5630TIP3    H238382   0.767   1.666   6.015  0.4680  0.0686  1.2793
 5631TIP3   OH238383   2.565   6.375   2.294 -0.0081  0.0776 -0.4370
 5631TIP3    H138384   2.615   6.297   2.270  1.6402  1.0450 -0.2888
 5631TIP3    H238385   2.527   6.406   2.212  2.1947  1.0248 -1.1971
 5632TIP3   OH238386   4.439   2.375  17.146 -0.0951  0.3650  0.4927
 5632TIP3    H138387   4.360   2.415  17.111 -1.1442 -1.3226  0.7916
 5632TIP3    H238388   4.478   2.443  17.201 -1.2898  1.2661  0.2750
 5633TIP3   OH238389   2.054   6.130   5.172  0.2998  0.3145 -0.4065
 5633TIP3    H138390   1.962   6.128   5.143  0.3132  1.0875 -0.5314
 5633TIP3    H238391   2.051   6.107   5.265  0.2580 -2.2663 -0.9767
 5634TIP3   OH238392   0.752   6.813  14.779  0.1133 -0.4207 -0.9405
 5634TIP3    H138393   0.694   6.877  14.738 -1.0033 -1.6114 -1.3100
 5634TIP3    H238394   0.744   6.735  14.724 -0.9864 -1.9057  1.1626
 5635TIP3   OH238395   4.267   4.306  14.704 -0.3359  0.7709 -0.1696
 5635TIP3    H138396   4.179   4.329  14.732  0.1474  2.3924  0.1377
 5635TIP3    H238397   4.265   4.316  14.608 -0.7298 -0.1773 -0.2724
 5636TIP3   OH238398   1.085   3.762  16.350 -0.0942  0.2499  0.3460
 5636TIP3    H138399   1.029   3.731  16.279  1.2173 -1.1334 -0.1441
 5636TIP3    H238400   1.060   3.853  16.362 -1.0804  0.2178 -1.1705
 5637TIP3   OH238401   1.541   5.872   0.479 -0.0631  0.0421 -0.1668
 5637TIP3    H138402   1.503   5.834   0.400 -1.0003 -0.4105  0.4874
 5637TIP3    H238403   1.471   5.868   0.544  0.4755  1.0305  0.5016
 5638TIP3   OH238404   2.887   2.525   5.681  0.1547  0.0947  0.0940
 5638TIP3    H138405   2.825   2.588   5.644  1.6479  0.8430 -1.2205
 5638TIP3    H238406   2.888   2.452   5.619 -0.3904 -0.5304  0.8044
 5639TIP3   OH238407   6.340   2.468   0.167 -0.0734  0.3811 -0.1814
 5639TIP3    H138408   6.321   2.392   0.111 -0.7578  0.6676 -0.3456
 5639TIP3    H238409   6.394   2.525   0.112 -1.9232  1.3337 -1.1058
 5640TIP3   OH238410   5.908   1.979   0.433 -0.3519  1.0421  0.8349
 5640TIP3    H138411   5.853   1.928   0.375 -1.7763  1.8243  1.4556
 5640TIP3    H238412   5.860   2.061   0.448 -0.0599  0.8830  3.0753
 5641TIP3   OH238413   1.650   3.131  13.159 -0.2835  1.1257 -0.2053
 5641TIP3    H138414   1.630   3.037  13.167 -0.7225  1.2331  0.0335
 5641TIP3    H238415   1.628   3.152  13.069  0.7125  0.8012 -0.5394
 5642TIP3   OH238416   6.028   4.856  15.546  0.3155 -0.2045 -0.3740
 5642TIP3    H138417   5.950   4.802  15.534  0.1308  0.2753 -1.5038
 5642TIP3    H238418   6.021   4.889  15.635 -0.4911 -0.6079 -0.2758
 5643TIP3   OH238419   4.700   1.597  13.175 -0.8462  0.2713  0.1530
 5643TIP3    H138420   4.637   1.629  13.111 -0.4373  0.6653 -0.0571
 5643TIP3    H238421   4.755   1.672  13.195  0.5055 -0.4106 -0.7985
 5644TIP3   OH238422   5.309   0.268  14.199  0.2643 -0.2986  0.0639
 5644TIP3    H138423   5.361   0.243  14.276 -1.6884  0.3673  1.6901
 5644TIP3    H238424   5.293   0.185  14.153 -0.4638 -1.1065  1.6714
 5645TIP3   OH238425   2.660   2.254  11.198 -0.0768  0.1447 -0.0381
 5645TIP3    H138426   2.676   2.234  11.290  1.3790 -1.2837 -0.5673
 5645TIP3    H238427   2.695   2.179  11.150 -1.3781  0.5609 -1.7424
 5646TIP3   OH238428   1.690   6.719   0.984  0.2759  0.1711  0.7431
 5646TIP3    H138429   1.695   6.772   0.905 -2.1048  0.7342  0.8953
 5646TIP3    H238430   1.710   6.779   1.056 -0.0550  0.2811  0.7436
 5647TIP3   OH238431   1.788   2.450   0.639  0.0463 -0.2526  0.0504
 5647TIP3    H138432   1.796   2.356   0.648 -1.0228 -0.2035  1.8714
 5647TIP3    H238433   1.850   2.486   0.704  1.5511  0.3671 -1.6265
 5648TIP3   OH238434   5.440   4.341   2.040 -0.2801 -0.0413 -0.1359
 5648TIP3    H138435   5.462   4.394   2.117  0.5169  2.6923 -2.0774
 5648TIP3    H238436   5.363   4.384   2.003 -0.0114 -0.6349 -1.4511
 5649TIP3   OH238437   1.607   1.098   1.716 -0.4816 -0.5701 -0.2730
 5649TIP3    H138438   1.533   1.111   1.657 -0.0778 -1.1286 -0.9202
 5649TIP3    H238439   1.683   1.129   1.667  0.1434 -2.8286 -0.8816
 5650TIP3   OH238440   5.481   2.304  10.451  0.2338  0.1985  0.2991
 5650TIP3    H138441   5.542   2.324  10.522  1.2267  0.2974 -0.5562
 5650TIP3    H238442   5.457   2.390  10.416  0.6876  0.1159 -0.2381
 5651TIP3   OH238443   0.154   1.860   5.097  0.2785 -0.0580  0.5877
 5651TIP3    H138444   0.236   1.811   5.098  0.0014 -0.5373  0.3891
 5651TIP3    H238445   0.130   1.870   5.189  0.8642  0.6151  0.6760
 5652TIP3   OH238446   2.349   0.405   0.670  0.1418 -0.7963 -0.8785
 5652TIP3    H138447   2.271   0.394   0.616 -1.1249 -0.7547  0.8620
 5652TIP3    H238448   2.346   0.332   0.732  0.3005  0.3699  0.5651
 5653TIP3   OH238449   1.266   1.305  15.349  0.2935  0.1180  0.1471
 5653TIP3    H138450   1.244   1.245  15.421  2.6688 -1.6823 -0.4725
 5653TIP3    H238451   1.285   1.247  15.275 -0.0977  1.8207 -1.3573
 5654TIP3   OH238452   0.946   1.340  16.624 -0.3200  0.1668 -0.0266
 5654TIP3    H138453   1.042   1.334  16.631 -0.2576  1.3380  0.2059
 5654TIP3    H238454   0.915   1.326  16.714 -0.2411  1.8557  0.2862
 5655TIP3   OH238455   0.325   5.891  16.179  0.7727 -0.1634 -0.4571
 5655TIP3    H138456   0.404   5.930  16.217 -0.7705  2.3392  0.4473
 5655TIP3    H238457   0.321   5.927  16.090  0.4549  0.0378 -0.3628
 5656TIP3   OH238458   6.267   2.027  12.494 -0.0097  0.1288 -0.0914
 5656TIP3    H138459   6.335   1.979  12.446 -0.2395 -1.8240  1.3874
 5656TIP3    H238460   6.190   1.970  12.488 -0.3273  0.3339  1.6496
 5657TIP3   OH238461   5.870   0.280  14.036 -0.3716 -0.3389 -0.5172
 5657TIP3    H138462   5.805   0.350  14.031 -0.3133 -0.0934  1.4272
 5657TIP3    H238463   5.852   0.236  14.119  2.7806  0.6531  0.8499
 5658TIP3   OH238464   4.683   6.531   3.887 -0.2427  0.5458 -0.1805
 5658TIP3    H138465   4.594   6.566   3.876  0.5903  2.9411  0.1137
 5658TIP3    H238466   4.724   6.588   3.951  0.8392 -1.9419  1.5026
 5659TIP3   OH238467   2.723   5.304  16.061  0.1850 -0.0037 -0.0114
 5659TIP3    H138468   2.750   5.288  16.151  0.9051  0.6041 -0.1144
 5659TIP3    H238469   2.632   5.333  16.068  0.0141 -0.6410  0.4551
 5660TIP3   OH238470   5.597   6.515   6.425 -0.5146  0.5844 -0.0212
 5660TIP3    H138471   5.560   6.515   6.514 -0.8610 -0.6304 -0.1531
 5660TIP3    H238472   5.633   6.603   6.415 -0.0688  0.6029  1.4845
 5661TIP3   OH238473   5.570   2.556  16.724 -0.1810 -0.1492 -0.5223
 5661TIP3    H138474   5.516   2.482  16.751 -0.4530  0.6334  1.1748
 5661TIP3    H238475   5.576   2.611  16.801  0.7635  1.1701 -1.4930
 5662TIP3   OH238476   0.952   5.451   1.763  0.5979 -0.0174  0.5157
 5662TIP3    H138477   0.965   5.414   1.850  2.5127  0.8675  0.6721
 5662TIP3    H238478   1.008   5.399   1.706  2.4171  1.7692  0.5446
 5663TIP3   OH238479   3.028   4.634  16.704  0.1613 -0.0865  0.1446
 5663TIP3    H138480   3.007   4.728  16.704  0.7777  0.0621  0.9731
 5663TIP3    H238481   3.019   4.608  16.612 -1.7835  0.3684  0.1599
 5664TIP3   OH238482   0.323   1.798   4.425 -0.8322  0.1161  0.0032
 5664TIP3    H138483   0.355   1.830   4.509 -1.0141  1.0540 -0.2633
 5664TIP3    H238484   0.382   1.838   4.361 -1.6833  0.7560 -0.4047
 5665TIP3   OH238485   3.603   1.102  12.629 -0.3008 -0.2602  0.3837
 5665TIP3    H138486   3.543   1.173  12.651 -0.2645 -0.4934  1.2614
 5665TIP3    H238487   3.547   1.025  12.623 -0.6349  0.1072 -2.3861
 5666TIP3   OH238488   4.415   4.822  12.866  0.0934 -0.2395  0.4210
 5666TIP3    H138489   4.409   4.794  12.958 -1.5558  0.0336  0.4158
 5666TIP3    H238490   4.392   4.744  12.816  2.4071 -0.8135  0.1415
 5667TIP3   OH238491   6.698   1.035  16.577 -0.2766  0.2044  0.3458
 5667TIP3    H138492   6.720   0.948  16.610 -1.9189 -1.2382 -2.0046
 5667TIP3    H238493   6.773   1.059  16.522  0.6360  0.7739  1.8046
 5668TIP3   OH238494   1.155   4.110  11.262  0.0025 -0.1522 -0.0561
 5668TIP3    H138495   1.096   4.179  11.230 -0.6247 -0.7762 -0.2597
 5668TIP3    H238496   1.097   4.044  11.299  0.5673 -0.8707 -0.4397
 5669TIP3   OH238497   3.015   4.362   3.811 -0.1669  0.0683  0.0548
 5669TIP3    H138498   2.956   4.342   3.883 -0.2757 -2.2060 -0.5988
 5669TIP3    H238499   3.081   4.292   3.813  1.2298  1.2888 -0.6067
 5670TIP3   OH238500   6.498   5.814   0.698  0.0092  0.1616 -0.7768
 5670TIP3    H138501   6.444   5.765   0.637 -0.1369 -1.1334  0.3556
 5670TIP3    H238502   6.515   5.754   0.770  0.1550  1.6404  0.4904
 5671TIP3   OH238503   0.619   4.677   3.007 -0.8464  0.1909  0.1157
 5671TIP3    H138504   0.643   4.680   2.915 -2.1210 -1.3882 -0.3028
 5671TIP3    H238505   0.546   4.738   3.015 -1.0100  0.0066  0.0046
 5672TIP3   OH238506   5.843   4.534   5.542  0.5182  0.0605  0.8637
 5672TIP3    H138507   5.927   4.576   5.525  0.2610  0.8443  1.4472
 5672TIP3    H238508   5.808   4.580   5.619 -0.4211 -0.2658  0.6501
 5673TIP3   OH238509   1.900   3.495   0.558 -0.6174  0.5858 -0.1284
 5673TIP3    H138510   1.949   3.576   0.545 -0.5206  0.5208 -0.1695
 5673TIP3    H238511   1.955   3.443   0.617 -0.8172  0.6706  0.1351
 5674TIP3   OH238512   3.640   3.401   5.592 -0.3104 -0.6669  0.1033
 5674TIP3    H138513   3.638   3.327   5.532 -1.6295 -0.4982 -0.0870
 5674TIP3    H238514   3.556   3.397   5.638 -0.9091  1.3137 -0.6802
 5675TIP3   OH238515   6.135   0.460   0.284 -0.0436  0.2778  0.1979
 5675TIP3    H138516   6.154   0.548   0.316  0.0211 -0.3589  2.0005
 5675TIP3    H238517   6.065   0.428   0.340  0.3321 -1.0356 -0.0460
 5676TIP3   OH238518   5.623   6.053  13.697  0.0653 -0.4803 -0.1861
 5676TIP3    H138519   5.709   6.087  13.725 -0.2364 -0.2233  0.4527
 5676TIP3    H238520   5.644   5.973  13.649  0.6719 -0.3743 -0.1102
 5677TIP3   OH238521   0.788   4.275   2.467 -0.5865 -0.0944  0.0273
 5677TIP3    H138522   0.818   4.242   2.552 -0.0399 -0.7068 -0.3996
 5677TIP3    H238523   0.700   4.239   2.458 -0.7767  0.2413  0.4742
 5678TIP3   OH238524   0.679   1.488   0.590 -0.3292  0.3358  0.1676
 5678TIP3    H138525   0.703   1.580   0.606 -1.6392  0.7400 -0.0831
 5678TIP3    H238526   0.585   1.485   0.604 -0.5809 -0.5896 -1.4773
 5679TIP3   OH238527   3.783   5.830  16.922  0.1359 -0.1002 -0.6288
 5679TIP3    H138528   3.866   5.875  16.931 -0.2110  0.2227  1.2251
 5679TIP3    H238529   3.784   5.762  16.989 -1.5518  0.6834  0.2542
 5680TIP3   OH238530   2.774   1.218   6.052 -0.4345 -0.0171 -0.5127
 5680TIP3    H138531   2.783   1.307   6.018 -2.2838  0.0495 -0.9384
 5680TIP3    H238532   2.857   1.175   6.030  0.0990  1.2990 -1.1830
 5681TIP3   OH238533   3.360   1.308   0.144 -0.7950 -0.1987 -0.3507
 5681TIP3    H138534   3.416   1.303   0.221  0.5592  3.0153 -0.9641
 5681TIP3    H238535   3.404   1.253   0.079 -0.2368 -0.4367  0.2196
 5682TIP3   OH238536   1.440   6.576   1.037  0.1405  0.0542  0.0288
 5682TIP3    H138537   1.534   6.596   1.031 -0.0019  0.6679 -0.1770
 5682TIP3    H238538   1.396   6.659   1.018 -0.4330  0.4838  2.7660
 5683TIP3   OH238539   2.336   1.563   0.779  0.1620 -0.0039  0.8749
 5683TIP3    H138540   2.374   1.475   0.786  1.6162  0.6042  1.0147
 5683TIP3    H238541   2.351   1.588   0.688  0.6323  0.4596  1.0720
 5684TIP3   OH238542   1.763   4.707   5.369  0.1980 -0.1628 -0.1782
 5684TIP3    H138543   1.723   4.672   5.448  0.8009 -3.7680 -1.3102
 5684TIP3    H238544   1.857   4.706   5.387  0.2855 -0.1156 -0.6147
 5685TIP3   OH238545   3.224   3.695  12.229 -0.2648 -0.6263 -0.0110
 5685TIP3    H138546   3.289   3.755  12.267  0.3469 -1.0970 -0.3135
 5685TIP3    H238547   3.183   3.653  12.305 -1.6479  1.1292  0.2816
 5686TIP3   OH238548   5.016   4.100   2.773 -0.5770 -0.2658  0.5767
 5686TIP3    H138549   4.994   4.124   2.863 -1.4946 -2.0256  0.8700
 5686TIP3    H238550   5.105   4.134   2.760 -0.9551  1.2485  1.6439
 5687TIP3   OH238551   2.855   3.319   5.301 -0.9370 -0.4177 -0.1690
 5687TIP3    H138552   2.847   3.396   5.357  0.7233  0.2660 -0.7926
 5687TIP3    H238553   2.858   3.246   5.362  0.7570  0.2985  0.6890
 5688TIP3   OH238554   1.226   3.651   3.217 -0.1853  0.1621  0.0922
 5688TIP3    H138555   1.316   3.621   3.220  0.4631  2.0592  2.4343
 5688TIP3    H238556   1.229   3.730   3.164 -0.7493 -0.4716 -0.9143
 5689TIP3   OH238557   2.788   2.567  14.757 -0.6773 -0.4931 -0.6234
 5689TIP3    H138558   2.842   2.491  14.780  1.8706  1.0358 -1.0863
 5689TIP3    H238559   2.852   2.637  14.743 -2.9604  2.0376  0.8412
 5690TIP3   OH238560   3.131   5.793   4.691 -0.1443 -0.4345 -0.6219
 5690TIP3    H138561   3.118   5.713   4.742 -2.0372 -0.1108 -0.5303
 5690TIP3    H238562   3.082   5.777   4.610 -0.1756  0.4633 -0.7849
 5691TIP3   OH238563   4.965   2.217   5.944  0.1603  0.0060 -0.0961
 5691TIP3    H138564   5.022   2.254   5.877  0.2961  2.1058  1.1132
 5691TIP3    H238565   4.906   2.288   5.968 -0.6810 -1.0713  1.1441
 5692TIP3   OH238566   0.479   1.933   2.555  0.9373  0.8045  0.0119
 5692TIP3    H138567   0.470   1.839   2.537  2.1324  0.6218  0.2864
 5692TIP3    H238568   0.390   1.963   2.571  0.4928 -0.2036 -0.4822
 5693TIP3   OH238569   5.423   6.575  13.700  0.4176  0.5291  0.8593
 5693TIP3    H138570   5.472   6.504  13.660  1.6533 -0.2291  3.5112
 5693TIP3    H238571   5.452   6.654  13.654  0.5241 -0.4066 -0.7627
 5694TIP3   OH238572   6.263   4.616   4.772  0.3819 -0.3213 -0.2949
 5694TIP3    H138573   6.282   4.709   4.779 -0.4491 -0.0067 -1.7620
 5694TIP3    H238574   6.217   4.607   4.688  0.5804 -2.0698 -0.2558
 5695TIP3   OH238575   4.516   2.870   3.442  0.2386  0.2738  0.0037
 5695TIP3    H138576   4.501   2.908   3.528 -2.9172  0.5027 -0.5252
 5695TIP3    H238577   4.472   2.786   3.445  0.0430  0.3068 -1.4113
 5696TIP3   OH238578   6.418   1.811   2.701 -0.0276 -0.1392  0.2393
 5696TIP3    H138579   6.494   1.849   2.746  0.2682 -2.3666  1.7935
 5696TIP3    H238580   6.413   1.722   2.734  0.0648 -1.9784 -4.0464
 5697TIP3   OH238581   4.511   2.455  15.533 -0.9566 -0.6122  0.4941
 5697TIP3    H138582   4.539   2.527  15.476 -0.1911 -1.0021  0.3761
 5697TIP3    H238583   4.473   2.390  15.474  1.5660 -1.8705  0.1646
 5698TIP3   OH238584   4.401   0.408  14.519  0.1421 -0.1035  0.2624
 5698TIP3    H138585   4.479   0.449  14.483 -0.3142 -0.3479 -1.0331
 5698TIP3    H238586   4.348   0.481  14.551 -0.3178  0.2853 -1.3329
 5699TIP3   OH238587   0.054   3.366   5.109  0.2330 -0.2496 -0.1726
 5699TIP3    H138588   0.010   3.451   5.107 -1.9728 -1.3082  0.3842
 5699TIP3    H238589   0.070   3.344   5.017 -0.5417  0.1036 -0.3918
 5700TIP3   OH238590   1.196   6.330   5.823  0.1052 -0.0332 -0.4488
 5700TIP3    H138591   1.267   6.266   5.823  0.0475 -0.1444  1.2397
 5700TIP3    H238592   1.124   6.286   5.868 -0.5283  0.6097 -0.8129
 5701TIP3   OH238593   4.423   2.121   4.080  0.2487 -0.5351  0.0380
 5701TIP3    H138594   4.367   2.198   4.075  0.3763 -0.2323  2.2186
 5701TIP3    H238595   4.415   2.091   4.171 -0.0206 -3.2738 -0.7918
 5702TIP3   OH238596   1.856   3.356  12.545  0.6813  0.1298  0.3625
 5702TIP3    H138597   1.938   3.358  12.496  2.1540 -1.1533  2.5724
 5702TIP3    H238598   1.857   3.437  12.596  1.8188 -0.9136  2.1161
 5703TIP3   OH238599   5.565   1.515   6.085 -0.5960  0.0451 -0.2837
 5703TIP3    H138600   5.551   1.438   6.029 -0.0355 -0.9136  0.8479
 5703TIP3    H238601   5.522   1.492   6.167 -0.1209  0.8104  0.1819
 5704TIP3   OH238602   5.338   3.803   2.812 -0.1235  0.4438  0.0174
 5704TIP3    H138603   5.388   3.732   2.772 -1.1560  1.4183 -3.2953
 5704TIP3    H238604   5.255   3.804   2.766 -0.6822  2.9343  0.8907
 5705TIP3   OH238605   3.985   4.727  12.636 -0.2058 -0.3560 -0.2760
 5705TIP3    H138606   4.023   4.643  12.662 -1.3369 -1.0399 -0.7755
 5705TIP3    H238607   3.973   4.720  12.542 -0.7292  0.1864 -0.2551
 5706TIP3   OH238608   3.475   2.351   3.710  0.2782  0.3699 -0.7634
 5706TIP3    H138609   3.398   2.296   3.714 -0.5916  1.4229 -2.0095
 5706TIP3    H238610   3.453   2.427   3.764  1.3083 -0.2797  0.6222
 5707TIP3   OH238611   2.015   2.010   0.037 -0.2040 -0.2118  0.3087
 5707TIP3    H138612   1.997   1.979   0.126  0.0119  1.2034  0.8839
 5707TIP3    H238613   2.111   2.010   0.031 -0.0712  2.1961  1.0975
 5708TIP3   OH238614   5.699   0.968  14.391 -0.3998  0.4965 -0.7402
 5708TIP3    H138615   5.642   0.945  14.317  2.7775 -0.2752 -3.1915
 5708TIP3    H238616   5.787   0.971  14.353  1.1502  2.5349  2.5891
 5709TIP3   OH238617   4.086   6.227  12.675  0.2285 -0.2259 -0.0717
 5709TIP3    H138618   4.088   6.137  12.706  0.9605  0.1557  1.0714
 5709TIP3    H238619   4.110   6.279  12.752 -0.5166  0.9720 -0.6230
 5710TIP3   OH238620   4.625   4.947   1.053 -0.6565 -0.0139 -0.2024
 5710TIP3    H138621   4.674   4.977   0.976 -0.7101 -1.6402 -0.9101
 5710TIP3    H238622   4.585   5.027   1.088  2.6105  1.4357  0.5776
 5711TIP3   OH238623   4.310   0.131  13.290 -0.3952 -0.2530  0.1694
 5711TIP3    H138624   4.216   0.114  13.283 -0.3793  0.2171 -1.5491
 5711TIP3    H238625   4.331   0.109  13.381 -2.5364  1.5071  1.1825
 5712TIP3   OH238626   4.631   2.350  14.882 -0.0763  0.0051 -0.4911
 5712TIP3    H138627   4.543   2.389  14.887 -1.3621 -2.7145  0.3173
 5712TIP3    H238628   4.646   2.314  14.970  1.5980 -0.1484 -0.8055
 5713TIP3   OH238629   2.586   4.123   0.081  0.6448 -1.0669  0.2537
 5713TIP3    H138630   2.588   4.215   0.108 -1.2863  0.2406 -3.3532
 5713TIP3    H238631   2.495   4.097   0.092  1.0508 -2.3953  0.6374
 5714TIP3   OH238632   5.912   5.553   3.521 -0.4593 -0.0445  0.7144
 5714TIP3    H138633   5.888   5.616   3.453  0.5698  1.0451  1.3145
 5714TIP3    H238634   5.834   5.499   3.533 -0.7152 -0.1430 -1.1740
 5715TIP3   OH238635   1.948   2.801   5.761 -0.6919 -0.5358 -0.3412
 5715TIP3    H138636   1.858   2.815   5.789 -0.6531  0.0627 -0.5014
 5715TIP3    H238637   1.978   2.887   5.733  0.2688 -0.5110  0.6936
 5716TIP3   OH238638   1.224   4.805  14.282 -0.4495 -0.8172  0.2987
 5716TIP3    H138639   1.299   4.749  14.301 -0.7921 -2.0253 -1.5941
 5716TIP3    H238640   1.151   4.765  14.329 -0.7832 -2.3227 -1.3769
 5717TIP3   OH238641   6.218   6.336   2.468 -0.1893 -0.6069  0.6675
 5717TIP3    H138642   6.211   6.425   2.433 -0.7274 -1.2914 -1.0422
 5717TIP3    H238643   6.133   6.296   2.451  0.0638 -1.4759  1.3675
 5718TIP3   OH238644   2.234   5.126  12.266 -0.9101 -0.3646  0.7752
 5718TIP3    H138645   2.291   5.075  12.324 -0.7380 -0.5576  0.4392
 5718TIP3    H238646   2.288   5.144  12.190 -0.5656  1.3543  1.3921
 5719TIP3   OH238647   2.072   0.349  14.467  0.5737 -0.0020 -0.0535
 5719TIP3    H138648   2.027   0.275  14.507  0.2828 -0.6378 -1.4839
 5719TIP3    H238649   2.002   0.399  14.425  0.6901  1.4154  1.3160
 5720TIP3   OH238650   0.867   3.143  14.026  0.0711 -0.6264  0.8046
 5720TIP3    H138651   0.803   3.203  14.065 -0.1683  1.2785 -2.1900
 5720TIP3    H238652   0.815   3.066  14.003 -0.6650 -0.0905  0.6122
 5721TIP3   OH238653   5.802   0.170  14.663 -0.3391  0.6138 -0.7284
 5721TIP3    H138654   5.759   0.099  14.711 -0.2046  0.6746 -0.5196
 5721TIP3    H238655   5.729   0.218  14.623 -0.4391  0.4472 -0.7473
 5722TIP3   OH238656   5.520   4.892   4.074 -0.2244  0.3039  0.3843
 5722TIP3    H138657   5.588   4.824   4.079 -2.2139 -1.8000  0.3926
 5722TIP3    H238658   5.526   4.938   4.158  0.2022 -0.8280  0.9905
 5723TIP3   OH238659   3.526   4.240   0.738  0.1822  0.5263  0.0969
 5723TIP3    H138660   3.622   4.239   0.740  0.1663 -0.1142  0.6334
 5723TIP3    H238661   3.500   4.150   0.755 -0.5034  0.3860 -1.4816
 5724TIP3   OH238662   6.688   2.587  10.662 -0.4974  0.2232  0.3538
 5724TIP3    H138663   6.742   2.546  10.594  1.1340 -3.3723  3.4515
 5724TIP3    H238664   6.740   2.660  10.694  0.5986 -0.5867  0.4598
 5725TIP3   OH238665   1.699   1.634   1.979  0.1906  0.4149  0.2012
 5725TIP3    H138666   1.765   1.686   2.024 -1.4385  2.0108  0.8871
 5725TIP3    H238667   1.702   1.549   2.022  2.5740  0.0191 -0.6092
 5726TIP3   OH238668   1.926   0.506  16.906  0.1919 -0.1035 -0.5005
 5726TIP3    H138669   1.952   0.422  16.945  0.2033  0.8066  1.5775
 5726TIP3    H238670   1.832   0.497  16.889 -0.1320 -0.0600  1.1158
 5727TIP3   OH238671   5.980   5.707   0.871 -0.6635 -0.3891 -0.0180
 5727TIP3    H138672   6.061   5.682   0.828 -0.3660 -0.0251  0.3150
 5727TIP3    H238673   5.985   5.803   0.878 -0.5357 -0.4552  1.1132
 5728TIP3   OH238674   4.120   4.552   0.220 -0.0933  0.0906  0.2348
 5728TIP3    H138675   4.144   4.615   0.153  0.8524 -1.3714 -0.8817
 5728TIP3    H238676   4.198   4.496   0.229 -0.5228 -0.3007  1.9086
 5729TIP3   OH238677   0.114   2.935  12.530  0.7655 -0.5582 -0.6506
 5729TIP3    H138678   0.206   2.919  12.554  0.7174 -1.1737 -0.8638
 5729TIP3    H238679   0.110   3.029  12.515  1.0607 -0.3114  0.6547
 5730TIP3   OH238680   5.975   2.106  15.949  0.1081  0.1836  0.4691
 5730TIP3    H138681   6.043   2.064  15.896 -1.2531 -1.7658  0.1496
 5730TIP3    H238682   5.946   2.180  15.895  1.3514  0.5070  0.2212
 5731TIP3   OH238683   4.289   4.189   6.121 -0.0079 -0.1799  0.5901
 5731TIP3    H138684   4.283   4.244   6.200  0.3908  0.2967  0.2944
 5731TIP3    H238685   4.381   4.164   6.116  0.3253  1.1694 -0.6318
 5732TIP3   OH238686   5.692   6.798  15.870 -0.3596 -0.0767  0.0372
 5732TIP3    H138687   5.644   6.878  15.892  0.2543 -0.0169  1.2631
 5732TIP3    H238688   5.718   6.810  15.778  0.1455  1.3704  0.3272
 5733TIP3   OH238689   1.607   1.552   1.008  0.2822 -0.1000  0.4104
 5733TIP3    H138690   1.653   1.582   1.086 -1.3849  0.8091  1.0816
 5733TIP3    H238691   1.554   1.478   1.039 -1.8741  1.4634  0.6481
 5734TIP3   OH238692   2.047   3.433  13.186  0.4845 -0.6428  0.2981
 5734TIP3    H138693   2.038   3.520  13.147  1.5737 -0.5209  0.2905
 5734TIP3    H238694   2.019   3.373  13.117 -0.2359 -0.2990  0.2904
 5735TIP3   OH238695   2.720   4.018   0.539  0.1799 -0.0169  0.5966
 5735TIP3    H138696   2.718   3.923   0.525 -1.8238  0.1477 -0.6128
 5735TIP3    H238697   2.764   4.029   0.623  0.0431 -2.0343  0.9835
 5736TIP3   OH238698   1.235   0.100  13.437  0.1922  0.4807 -0.5597
 5736TIP3    H138699   1.310   0.045  13.412 -0.8063 -0.6652 -1.1534
 5736TIP3    H238700   1.263   0.144  13.517  0.8886 -1.2417  0.1996
 5737TIP3   OH238701   5.697   1.438  14.371  0.0651 -0.3411  0.6362
 5737TIP3    H138702   5.782   1.450  14.329 -0.2604  0.3539  0.1527
 5737TIP3    H238703   5.672   1.526  14.400 -0.0516 -0.6914  1.6421
 5738TIP3   OH238704   1.520   3.960  11.849  0.1315  0.2274 -0.4313
 5738TIP3    H138705   1.497   3.916  11.931 -0.8643  2.4904  0.5890
 5738TIP3    H238706   1.615   3.948  11.842  0.2485  0.0020  1.0774
 5739TIP3   OH238707   0.791   3.412  13.497 -0.3923 -0.2418  0.0224
 5739TIP3    H138708   0.767   3.427  13.406  0.9566  0.4274 -0.2605
 5739TIP3    H238709   0.836   3.492  13.524 -4.0239  1.1972  2.5124
 5740TIP3   OH238710   2.618   4.380   2.453 -0.2354  0.1392  0.2639
 5740TIP3    H138711   2.670   4.425   2.386 -0.7540  0.0072 -0.2383
 5740TIP3    H238712   2.556   4.446   2.483 -0.8624 -0.1746 -0.3268
 5741TIP3   OH238713   2.768   6.561  15.438 -0.6705  0.0799 -0.0097
 5741TIP3    H138714   2.802   6.621  15.505 -0.8884  0.4754 -0.2510
 5741TIP3    H238715   2.776   6.610  15.356 -2.9792  0.6869  0.0669
 5742TIP3   OH238716   0.361   5.945   3.126 -0.2531 -0.0109 -0.5007
 5742TIP3    H138717   0.339   5.929   3.218  1.6400  1.7614  0.3424
 5742TIP3    H238718   0.341   6.038   3.113 -1.5694 -0.4878 -2.2554
 5743TIP3   OH238719   1.083   0.439   2.073 -0.6204 -0.1642  0.0822
 5743TIP3    H138720   0.988   0.433   2.067 -0.5846 -1.8324  0.6519
 5743TIP3    H238721   1.108   0.369   2.133  1.0842 -0.6502 -1.1153
 5744TIP3   OH238722   2.365   2.936  10.767  0.0669  0.2912  0.0164
 5744TIP3    H138723   2.289   2.990  10.786  0.0717 -0.0449  1.0249
 5744TIP3    H238724   2.340   2.886  10.689 -1.6133 -1.4189  1.5469
 5745TIP3   OH238725   0.048   2.593   4.996 -0.0107  0.1136 -0.7774
 5745TIP3    H138726   0.007   2.581   4.911 -1.3236 -3.3898  0.1792
 5745TIP3    H238727   0.112   2.522   5.002  0.1403  0.3417  1.0893
 5746TIP3   OH238728   6.803   5.555   4.141  0.0720  0.0094 -0.0341
 5746TIP3    H138729   6.824   5.544   4.049  2.8102  1.8508  0.2633
 5746TIP3    H238730   6.745   5.631   4.143 -1.5714 -1.1645 -0.3026
 5747TIP3   OH238731   6.597   0.777  13.804 -0.2486  0.4307  0.3043
 5747TIP3    H138732   6.668   0.842  13.810  0.8865 -0.6244 -1.2386
 5747TIP3    H238733   6.641   0.693  13.814 -1.1548 -0.2893 -1.5280
 5748TIP3   OH238734   1.642   2.192   1.260  0.2713  0.0401 -0.4107
 5748TIP3    H138735   1.730   2.197   1.296 -0.5022  0.0580  1.6067
 5748TIP3    H238736   1.653   2.149   1.175  2.2657  0.5444 -0.4466
 5749TIP3   OH238737   4.781   2.861  12.202 -0.1648 -0.3027  0.6676
 5749TIP3    H138738   4.698   2.821  12.230 -0.6250  0.8271  0.9654
 5749TIP3    H238739   4.768   2.880  12.109 -0.6586  0.8682  0.9665
 5750TIP3   OH238740   1.765   4.967   0.404 -0.5342 -0.1698 -0.1160
 5750TIP3    H138741   1.823   5.043   0.407 -1.4771  0.5443  0.7957
 5750TIP3    H238742   1.810   4.905   0.346  0.0282  1.2610 -1.2744
 5751TIP3   OH238743   3.195   0.569   2.609 -0.0816  0.1496 -0.5775
 5751TIP3    H138744   3.249   0.595   2.684  0.8992 -0.1367 -1.1740
 5751TIP3    H238745   3.201   0.644   2.549 -1.7007  0.8215  0.0415
 5752TIP3   OH238746   0.143   4.748   5.148 -0.4317 -0.0406 -0.1946
 5752TIP3    H138747   0.212   4.710   5.094 -0.5526  0.5135 -0.7530
 5752TIP3    H238748   0.113   4.825   5.099  0.1253  1.0491  1.1096
 5753TIP3   OH238749   0.980   0.043  14.371 -0.6433 -0.0908  0.0713
 5753TIP3    H138750   1.052   0.106  14.365 -0.9200  0.1566 -0.7440
 5753TIP3    H238751   1.023  -0.043  14.368 -0.3326  0.0497  0.3384
 5754TIP3   OH238752   0.832   5.372   3.987 -0.7314 -0.1599 -0.5076
 5754TIP3    H138753   0.908   5.316   4.000 -0.6221  0.0468 -0.2615
 5754TIP3    H238754   0.865   5.445   3.934 -0.4028  0.7003  0.8473
 5755TIP3   OH238755   1.391   6.564   0.024 -0.2444  0.0308  0.0158
 5755TIP3    H138756   1.318   6.503   0.023 -0.6548  0.5204 -0.1385
 5755TIP3    H238757   1.353   6.648   0.051  0.3158  0.2159  0.2526
 5756TIP3   OH238758   3.449   3.998   0.855 -0.2044 -0.1613 -0.1174
 5756TIP3    H138759   3.374   3.948   0.824  0.5554 -1.3356 -0.1504
 5756TIP3    H238760   3.525   3.949   0.823  0.5819  0.1035  1.2756
 5757TIP3   OH238761   5.357   1.623  15.137 -0.3404  0.0045 -0.6074
 5757TIP3    H138762   5.423   1.562  15.107 -0.6112  0.1715 -1.5732
 5757TIP3    H238763   5.358   1.694  15.072 -0.2452  0.8775  0.3202
 5758TIP3   OH238764   2.453   1.664   4.797 -0.3753  0.1284 -1.0419
 5758TIP3    H138765   2.454   1.625   4.884 -0.2730  0.2584 -0.9836
 5758TIP3    H238766   2.439   1.591   4.737  1.1595 -0.1884 -1.0463
 5759TIP3   OH238767   0.546   4.484  15.172  0.3783 -0.0274 -0.5346
 5759TIP3    H138768   0.546   4.520  15.083 -0.7919  0.8927 -0.1879
 5759TIP3    H238769   0.558   4.561  15.228  0.1027 -0.4764  0.1426
 5760TIP3   OH238770   3.665   3.894   0.696 -0.1591  0.5536  0.3355
 5760TIP3    H138771   3.647   3.928   0.609 -2.1950  2.3603  1.3872
 5760TIP3    H238772   3.730   3.824   0.681 -0.3636  0.8624 -2.5637
 5761TIP3   OH238773   1.536   1.912   1.923 -0.1922 -0.6226  0.1157
 5761TIP3    H138774   1.584   1.847   1.974 -1.9453 -1.0719  1.2794
 5761TIP3    H238775   1.516   1.981   1.986  0.2270  0.2938 -0.7243
 5762TIP3   OH238776   1.763   1.706  14.251  0.5837  0.2992  0.2386
 5762TIP3    H138777   1.672   1.729  14.267 -0.1195 -1.1246 -1.3148
 5762TIP3    H238778   1.770   1.614  14.276  0.6800 -0.5642 -2.6059
 5763TIP3   OH238779   3.525   1.063   6.164  0.1086 -0.3564 -0.4572
 5763TIP3    H138780   3.606   1.033   6.205  1.0489  1.5862 -0.7640
 5763TIP3    H238781   3.506   1.146   6.207 -1.2049 -0.3322 -1.0453
 5764TIP3   OH238782   5.673   5.469   1.798  0.4832 -0.2524 -0.1969
 5764TIP3    H138783   5.653   5.466   1.892 -1.3434 -0.4307 -0.5616
 5764TIP3    H238784   5.652   5.558   1.772 -0.4829 -0.6225 -0.7225
 5765TIP3   OH238785   3.025   2.659   6.175  0.0636  0.2579 -0.1902
 5765TIP3    H138786   2.946   2.698   6.211 -1.8794 -0.4231 -3.3700
 5765TIP3    H238787   3.085   2.654   6.250 -2.2642  2.2621  2.0004
 5766TIP3   OH238788   4.203   5.837  10.722 -0.1443  0.0112  0.0710
 5766TIP3    H138789   4.116   5.873  10.704  0.8284  1.9036 -1.1826
 5766TIP3    H238790   4.241   5.822  10.635  1.3151  0.6604  0.5678
 5767TIP3   OH238791   0.046   6.463   2.303 -0.1469 -0.7856  0.0378
 5767TIP3    H138792   0.104   6.453   2.227 -1.4603 -0.5117 -1.0556
 5767TIP3    H238793   0.011   6.375   2.317 -0.9808 -0.5673 -0.5977
 5768TIP3   OH238794   2.681   2.051  17.015 -0.2300  0.2689 -0.1082
 5768TIP3    H138795   2.668   2.146  17.012 -0.0357  0.2742 -1.1841
 5768TIP3    H238796   2.592   2.015  17.018 -0.3268  0.4722 -0.4262
 5769TIP3   OH238797   0.768   5.097   4.545  0.1804  0.5116  0.8832
 5769TIP3    H138798   0.847   5.147   4.525  0.2715  0.1944  0.4476
 5769TIP3    H238799   0.794   5.040   4.618 -0.2794  1.9853  2.2516
 5770TIP3   OH238800   0.177   5.692   2.196 -0.3783  0.4393  0.6087
 5770TIP3    H138801   0.174   5.666   2.104 -1.6085  0.1992  0.7025
 5770TIP3    H238802   0.268   5.676   2.222 -0.4812 -1.4374 -0.0109
 5771TIP3   OH238803   5.759   1.783  16.300  0.4173  1.0151  0.4033
 5771TIP3    H138804   5.709   1.865  16.304 -0.8650  0.2957 -0.2431
 5771TIP3    H238805   5.806   1.789  16.217  1.5492  1.7538  1.0762
 5772TIP3   OH238806   3.806   1.692   5.820 -0.1989 -0.5471  0.2364
 5772TIP3    H138807   3.852   1.752   5.761 -2.3643  0.3324 -0.6752
 5772TIP3    H238808   3.820   1.729   5.907  1.2177 -0.5998  0.0486
 5773TIP3   OH238809   6.743   2.916   3.771 -0.2079  0.7625 -0.2451
 5773TIP3    H138810   6.678   2.951   3.832  0.1728  1.2753 -0.1284
 5773TIP3    H238811   6.697   2.913   3.687 -1.1191 -1.0864  0.2763
 5774TIP3   OH238812   0.866   3.009   2.832  0.3131 -0.3920  0.0838
 5774TIP3    H138813   0.952   3.051   2.830  0.5321 -0.8342  0.1169
 5774TIP3    H238814   0.804   3.081   2.817  0.7000 -0.1149 -0.2046
 5775TIP3   OH238815   1.532   5.939   2.040  0.1044  0.6103 -0.2339
 5775TIP3    H138816   1.515   6.029   2.069 -0.3648  0.3948  0.1741
 5775TIP3    H238817   1.553   5.947   1.947  2.1524  1.3874  0.2505
 5776TIP3   OH238818   3.977   1.839  11.404 -0.5540  0.2352  0.1461
 5776TIP3    H138819   3.990   1.809  11.314 -2.8902  1.0629 -0.5491
 5776TIP3    H238820   3.993   1.933  11.402  1.9784 -0.0736  1.2599
 5777TIP3   OH238821   3.736   1.256   4.548 -0.2785 -0.2802  0.1919
 5777TIP3    H138822   3.813   1.213   4.512 -0.4658 -1.2150  0.8627
 5777TIP3    H238823   3.685   1.185   4.588 -2.2084  0.1005 -1.4511
 5778TIP3   OH238824   5.233   0.225   6.240 -0.1828  0.1928 -0.0507
 5778TIP3    H138825   5.141   0.248   6.241 -0.3944 -0.5935  1.7793
 5778TIP3    H238826   5.242   0.164   6.166 -1.1172  0.2736 -0.2392
 5779TIP3   OH238827   6.378   1.505   1.266 -0.1479 -0.6039 -0.1308
 5779TIP3    H138828   6.466   1.524   1.298 -0.6597  2.5526 -0.1964
 5779TIP3    H238829   6.392   1.459   1.183  1.3678 -1.4008  0.5229
 5780TIP3   OH238830   4.619   5.652   4.292  0.1157  0.4261 -0.1847
 5780TIP3    H138831   4.672   5.716   4.339 -0.3289  0.6536  0.0149
 5780TIP3    H238832   4.544   5.702   4.260 -1.0516 -0.2714  1.3035
 5781TIP3   OH238833   6.240   2.334  15.683 -0.5061 -0.1266  0.5562
 5781TIP3    H138834   6.185   2.406  15.650  2.8231  1.3485 -2.5406
 5781TIP3    H238835   6.291   2.374  15.753 -0.1631 -0.1230  0.3033
 5782TIP3   OH238836   0.924   4.420  13.800  0.1087 -0.5663  0.2371
 5782TIP3    H138837   1.018   4.439  13.805  0.1940 -1.1203  0.7860
 5782TIP3    H238838   0.917   4.342  13.746 -0.0774 -0.2789 -0.1648
 5783TIP3   OH238839   6.450   2.419  15.936 -0.0856  0.1210 -0.6158
 5783TIP3    H138840   6.502   2.368  15.874  1.7187  0.8777  0.2119
 5783TIP3    H238841   6.510   2.487  15.968 -0.9577 -0.1807  1.8866
 5784TIP3   OH238842   4.851   1.952   6.473  0.6494  0.2329  0.3899
 5784TIP3    H138843   4.763   1.984   6.454  0.4906  1.3592  2.6971
 5784TIP3    H238844   4.909   2.013   6.427  0.2689 -0.4070 -0.9896
 5785TIP3   OH238845   1.332   3.383   0.977 -0.2334 -0.4283 -0.0160
 5785TIP3    H138846   1.423   3.394   0.949 -0.2739  0.6557  0.2480
 5785TIP3    H238847   1.313   3.291   0.958  0.6291 -0.4426 -0.9145
 5786TIP3   OH238848   0.305   4.734  15.461  0.0560  0.2970 -0.2973
 5786TIP3    H138849   0.235   4.711  15.400  0.6787  0.6482 -1.1604
 5786TIP3    H238850   0.266   4.722  15.547 -1.1295  0.6573 -0.7606
 5787TIP3   OH238851   2.833   1.223  13.298  0.2268 -0.7420 -0.1875
 5787TIP3    H138852   2.859   1.199  13.210  0.8683 -0.6441 -0.0250
 5787TIP3    H238853   2.874   1.308  13.314 -2.1584  0.6138 -0.8149
 5788TIP3   OH238854   3.223   5.770  12.627  0.3595 -0.2141 -0.5103
 5788TIP3    H138855   3.199   5.705  12.693  1.4692 -1.1101 -0.9660
 5788TIP3    H238856   3.312   5.796  12.651  0.2477  0.4858 -0.8524
 5789TIP3   OH238857   0.950   1.516   2.337 -0.6214 -0.4557  0.6118
 5789TIP3    H138858   0.921   1.457   2.268 -1.0164  0.3746  0.0388
 5789TIP3    H238859   1.036   1.547   2.307 -0.5533 -0.5053  0.7565
 5790TIP3   OH238860   3.400   1.069   5.127  0.5859 -0.2978  0.1798
 5790TIP3    H138861   3.482   1.060   5.079  0.7685  0.0937  0.4060
 5790TIP3    H238862   3.427   1.098   5.214  0.2467 -0.8086  0.4553
 5791TIP3   OH238863   2.805   3.199   6.273  0.2944  0.1850 -0.3437
 5791TIP3    H138864   2.747   3.128   6.300 -0.1808  0.9873  0.8009
 5791TIP3    H238865   2.751   3.277   6.278  0.7603  0.6280 -1.7831
 5792TIP3   OH238866   6.624   4.226  11.614 -0.2522  0.1651  0.1394
 5792TIP3    H138867   6.661   4.273  11.539 -0.4338  2.3956  1.3749
 5792TIP3    H238868   6.529   4.230  11.600 -0.3175  1.1727  0.7931
 5793TIP3   OH238869   3.760   6.384   0.110  0.0758  0.4744  0.0849
 5793TIP3    H138870   3.781   6.476   0.126  0.8581  0.4999 -0.9842
 5793TIP3    H238871   3.688   6.387   0.046 -0.5036  0.3409  0.7179
 5794TIP3   OH238872   4.320   6.323   1.809 -0.7074 -0.6029 -0.2496
 5794TIP3    H138873   4.375   6.370   1.746 -0.2191 -1.1548 -0.2415
 5794TIP3    H238874   4.348   6.355   1.894 -0.2518 -1.0370 -0.2350
 5795TIP3   OH238875   2.176   1.323  14.733  0.1184  0.0184  0.2046
 5795TIP3    H138876   2.142   1.351  14.648 -2.0627 -0.1431  0.9755
 5795TIP3    H238877   2.202   1.404  14.776  0.1295  0.2057 -0.1470
 5796TIP3   OH238878   1.895   6.219  14.511 -0.0381  0.9857 -0.1635
 5796TIP3    H138879   1.850   6.136  14.495  0.7591  0.2063  1.4437
 5796TIP3    H238880   1.824   6.281  14.531 -0.6123  0.6391 -1.0665
 5797TIP3   OH238881   0.837   5.544   5.544  0.1529 -0.1313  0.3060
 5797TIP3    H138882   0.841   5.638   5.530  0.7104  0.1836  2.2663
 5797TIP3    H238883   0.911   5.509   5.494 -1.1168  0.1944 -1.9332
 5798TIP3   OH238884   5.279   6.330   1.829 -0.4728  0.2920 -0.1215
 5798TIP3    H138885   5.183   6.324   1.831 -0.4742  0.5332  0.7217
 5798TIP3    H238886   5.302   6.302   1.740 -1.1778 -1.7424  0.2794
 5799TIP3   OH238887   0.480   3.221   1.625  0.5148 -0.4468 -0.9198
 5799TIP3    H138888   0.447   3.294   1.572 -0.4639 -0.4513 -0.3464
 5799TIP3    H238889   0.404   3.192   1.675  1.6941  0.6712  1.7643
 5800TIP3   OH238890   2.480   1.780  14.328  0.1345  0.3446 -0.4737
 5800TIP3    H138891   2.474   1.748  14.418 -0.4760  3.1250  0.5676
 5800TIP3    H238892   2.390   1.777  14.296  0.1082  0.7784 -0.4447
 5801TIP3   OH238893   6.688   5.492  13.926 -0.5649 -0.4669 -0.2058
 5801TIP3    H138894   6.760   5.543  13.963 -0.4031 -1.1242  0.4131
 5801TIP3    H238895   6.721   5.402  13.924 -0.9552 -0.6055 -0.9935
 5802TIP3   OH238896   0.323   3.134  16.439 -0.3929 -0.2670  0.2719
 5802TIP3    H138897   0.269   3.192  16.493  0.9360 -0.3817  1.7919
 5802TIP3    H238898   0.411   3.140  16.477  0.3374 -1.3003 -1.1485
 5803TIP3   OH238899   2.764   4.184   1.829  0.2732 -0.8389  0.1724
 5803TIP3    H138900   2.748   4.256   1.889  0.3559 -0.4507 -0.2660
 5803TIP3    H238901   2.846   4.145   1.859  1.0004  0.1652 -0.4559
 5804TIP3   OH238902   1.902   4.998   4.949  0.4478  0.4149 -0.0023
 5804TIP3    H138903   1.899   5.093   4.933 -1.7905  0.5773  0.9408
 5804TIP3    H238904   1.810   4.972   4.952  1.0075 -1.6421  0.6696
 5805TIP3   OH238905   0.987   4.932   0.766 -0.8078 -0.3310 -0.3431
 5805TIP3    H138906   0.993   5.025   0.743 -0.6608 -0.0103  0.9076
 5805TIP3    H238907   1.078   4.902   0.765 -0.7672 -0.2356  0.0787
 5806TIP3   OH238908   5.562   5.880   1.355 -0.4673 -0.0487  0.1036
 5806TIP3    H138909   5.635   5.817   1.353 -1.2528 -0.9824  0.3750
 5806TIP3    H238910   5.563   5.920   1.268 -0.4122 -0.9654 -0.3272
 5807TIP3   OH238911   5.108   3.544  13.712  0.2339 -0.5596 -0.1091
 5807TIP3    H138912   5.062   3.493  13.646 -0.6038 -2.0834  1.5650
 5807TIP3    H238913   5.055   3.536  13.791  1.0216  1.4584  0.7182
 5808TIP3   OH238914   2.081   3.358   5.970 -0.2276 -0.0167  0.3704
 5808TIP3    H138915   2.073   3.377   6.063 -2.2469 -1.6265  0.5825
 5808TIP3    H238916   2.175   3.345   5.956  0.4088  2.4976  1.6344
 5809TIP3   OH238917   5.975   5.935   5.305  0.7920  0.2057  0.3214
 5809TIP3    H138918   5.902   5.875   5.322  1.5543 -0.9958 -0.4933
 5809TIP3    H238919   6.011   5.906   5.222  1.3754  1.6490  0.0439
 5810TIP3   OH238920   1.966   6.600   0.558 -0.4168  0.1605  0.2096
 5810TIP3    H138921   2.040   6.661   0.564 -1.8513  1.8763  2.3810
 5810TIP3    H238922   1.994   6.524   0.609 -0.0275  0.6940  0.8237
 5811TIP3   OH238923   3.683   0.656   1.106  0.2855  0.2456  0.5531
 5811TIP3    H138924   3.653   0.577   1.061  0.5571  0.7374 -0.5281
 5811TIP3    H238925   3.609   0.716   1.102  1.0554  1.1834 -1.4585
 5812TIP3   OH238926   4.702   4.693  15.477 -0.3004 -0.1524  0.4600
 5812TIP3    H138927   4.652   4.612  15.489  0.3485 -0.3579  2.1114
 5812TIP3    H238928   4.636   4.761  15.467 -0.8594 -0.8028 -0.3545
 5813TIP3   OH238929   0.161   5.340  12.792  0.1882 -0.4340 -0.1123
 5813TIP3    H138930   0.232   5.330  12.856  0.0122  0.0691  0.1630
 5813TIP3    H238931   0.194   5.295  12.713  0.7866 -0.2593  0.0308
 5814TIP3   OH238932   5.795   2.568   5.383  0.0697  0.0329  0.0400
 5814TIP3    H138933   5.835   2.646   5.420  2.0541 -1.3027  0.8786
 5814TIP3    H238934   5.862   2.531   5.326 -1.5257 -0.0719 -1.8605
 5815TIP3   OH238935   1.281   1.132   3.902 -0.1436  0.0606  0.2343
 5815TIP3    H138936   1.302   1.223   3.883  1.4484 -0.3266 -0.0273
 5815TIP3    H238937   1.359   1.098   3.947 -1.1496 -0.8772  1.3472
 5816TIP3   OH238938   0.822   3.319  10.272 -0.1755  0.2261  0.4829
 5816TIP3    H138939   0.896   3.266  10.243 -0.9695 -0.3290 -0.5962
 5816TIP3    H238940   0.745   3.262  10.263 -0.6496  0.4377  2.5585
 5817TIP3   OH238941   6.148   4.257  16.216  0.0865 -0.0052  0.1016
 5817TIP3    H138942   6.185   4.185  16.266 -0.5309 -1.8042 -1.9109
 5817TIP3    H238943   6.127   4.323  16.282  1.2693 -1.3648  1.9413
 5818TIP3   OH238944   1.392   2.633  13.162  0.0928 -0.3192 -0.5426
 5818TIP3    H138945   1.487   2.628  13.166  0.0859 -0.7776 -0.8410
 5818TIP3    H238946   1.362   2.588  13.241  0.1211 -0.2484 -0.4910
 5819TIP3   OH238947   3.517   4.813  15.340 -0.4948 -0.2767  0.3755
 5819TIP3    H138948   3.538   4.742  15.279 -0.5988 -0.6457  0.7690
 5819TIP3    H238949   3.424   4.831  15.325 -0.4148 -0.0613  0.1147
 5820TIP3   OH238950   1.408   5.550   5.295  0.1442 -0.1101  0.0995
 5820TIP3    H138951   1.386   5.474   5.241  0.5461 -0.4202  0.3658
 5820TIP3    H238952   1.349   5.545   5.370  0.8001 -0.6858  0.5846
 5821TIP3   OH238953   5.548   6.129   2.611 -0.6250  0.7111 -0.5111
 5821TIP3    H138954   5.610   6.150   2.681  0.5570  0.7337 -1.5353
 5821TIP3    H238955   5.486   6.202   2.611 -1.2710  0.1964  1.1856
 5822TIP3   OH238956   0.624   1.672   4.477 -0.1052  0.1161  0.0267
 5822TIP3    H138957   0.635   1.617   4.400 -0.6005 -1.5893  1.1099
 5822TIP3    H238958   0.584   1.753   4.444  0.5514 -0.2007 -1.6020
 5823TIP3   OH238959   0.358   0.590  14.022 -0.0309  0.1313  0.1418
 5823TIP3    H138960   0.351   0.586  14.117  2.2722 -2.3391  0.3041
 5823TIP3    H238961   0.388   0.679  14.004 -0.4671  0.6223  1.7054
 5824TIP3   OH238962   3.023   5.146   2.158 -0.1579 -0.7778 -0.5167
 5824TIP3    H138963   3.001   5.219   2.100  0.7755 -0.7467 -0.8441
 5824TIP3    H238964   3.088   5.181   2.219 -0.5236 -1.0363  0.0319
 5825TIP3   OH238965   0.800   3.057  11.331 -0.1158  0.0138 -0.0468
 5825TIP3    H138966   0.729   3.045  11.267 -0.6584  2.3633  0.0477
 5825TIP3    H238967   0.764   3.117  11.396  2.3943  2.5726 -0.8041
 5826TIP3   OH238968   3.692   3.452   2.025 -0.6102 -0.4474 -0.4231
 5826TIP3    H138969   3.662   3.404   2.102  0.1388 -2.1241 -1.1488
 5826TIP3    H238970   3.786   3.463   2.038 -0.3581 -1.3257 -1.3866
 5827TIP3   OH238971   6.263   6.308   6.393  0.0979  0.3225  0.1182
 5827TIP3    H138972   6.219   6.224   6.376  0.8637 -0.0590 -0.0404
 5827TIP3    H238973   6.265   6.315   6.488 -0.5384  0.4752  0.1257
 5828TIP3   OH238974   6.340   3.779   5.561  0.3842  0.1943 -0.0806
 5828TIP3    H138975   6.274   3.802   5.495  1.1448 -0.5068 -1.1029
 5828TIP3    H238976   6.330   3.685   5.574  0.8456  0.1746  0.1465
 5829TIP3   OH238977   0.572   2.634  11.228 -0.1778  0.0334  0.4091
 5829TIP3    H138978   0.555   2.716  11.274  0.4594  0.8005 -0.6780
 5829TIP3    H238979   0.584   2.570  11.298  1.5319  1.3048  1.3623
 5830TIP3   OH238980   5.239   6.509  16.066  0.6280 -0.7970  0.3463
 5830TIP3    H138981   5.201   6.477  15.984 -0.3337 -1.2953  0.9657
 5830TIP3    H238982   5.315   6.560  16.039 -0.0615 -0.3968 -0.8945
 5831TIP3   OH238983   2.038   0.221   0.622  0.1277  0.1416 -0.0393
 5831TIP3    H138984   2.079   0.271   0.551 -1.0625  1.1510 -0.0596
 5831TIP3    H238985   2.067   0.131   0.608  1.4729  0.6486 -0.6442
 5832TIP3   OH238986   5.823   3.992  14.106  1.1298  0.0568 -0.7776
 5832TIP3    H138987   5.783   4.048  14.039 -0.8813 -2.2077 -1.6206
 5832TIP3    H238988   5.829   3.906  14.064 -0.6151 -1.5703  2.0381
 5833TIP3   OH238989   1.782   1.014  15.258 -0.3560  0.4686 -0.0580
 5833TIP3    H138990   1.747   1.053  15.338 -0.6260 -0.6948  0.4145
 5833TIP3    H238991   1.859   0.965  15.287  0.3444  1.1429 -0.7323
 5834TIP3   OH238992   3.876   3.126  12.740 -0.8409  0.0081  0.2633
 5834TIP3    H138993   3.899   3.154  12.828  0.6682  1.3962 -0.5151
 5834TIP3    H238994   3.867   3.207  12.689  1.5014 -0.7492 -1.5562
 5835TIP3   OH238995   5.757   0.283  11.602  0.3997  0.3238 -0.2365
 5835TIP3    H138996   5.774   0.376  11.585 -0.7359  0.7047  0.6161
 5835TIP3    H238997   5.768   0.274  11.696 -1.9689  0.1510  0.0617
 5836TIP3   OH238998   0.266   3.660  14.567 -0.8284 -0.2265 -0.4907
 5836TIP3    H138999   0.208   3.638  14.494 -2.6432  1.9715  0.1956
 5836TIP3    H239000   0.232   3.610  14.641 -0.6350 -0.4200 -0.5313
 5837TIP3   OH239001   1.937   2.484   1.467  0.4231 -0.5374 -0.1333
 5837TIP3    H139002   1.883   2.561   1.489 -0.2986 -0.4618 -1.9877
 5837TIP3    H239003   2.021   2.501   1.508 -1.2571 -1.3036  4.1358
 5838TIP3   OH239004   3.434   0.270  12.360 -0.1093 -1.0256  0.1443
 5838TIP3    H139005   3.461   0.238  12.446  0.8921 -0.1389  0.1783
 5838TIP3    H239006   3.403   0.359  12.376  1.7647 -0.1722 -0.6256
 5839TIP3   OH239007   4.078   0.605   2.348  0.4729 -0.9573 -0.1200
 5839TIP3    H139008   4.169   0.605   2.379  1.0371 -0.1018 -1.6589
 5839TIP3    H239009   4.085   0.600   2.253 -1.0866 -0.2191 -0.3017
 5840TIP3   OH239010   4.315   3.418   3.956 -0.2978  0.2346  0.1773
 5840TIP3    H139011   4.337   3.464   3.875 -0.4097  0.5320  0.3139
 5840TIP3    H239012   4.301   3.488   4.020  1.4451  0.0027  0.8833
 5841TIP3   OH239013   3.552   2.328  16.606 -0.1668  0.7344 -0.3226
 5841TIP3    H139014   3.458   2.335  16.590 -0.2031  0.5026 -0.2046
 5841TIP3    H239015   3.561   2.340  16.700 -0.1371  0.1076 -0.2451
 5842TIP3   OH239016   2.719   5.410  10.670  0.6935 -0.1360  0.0488
 5842TIP3    H139017   2.812   5.430  10.679  0.7290  1.8464 -3.0552
 5842TIP3    H239018   2.702   5.420  10.576 -2.5795 -0.8160  0.4598
 5843TIP3   OH239019   6.672   1.499   1.277 -0.2232  0.3629 -0.0676
 5843TIP3    H139020   6.702   1.446   1.204  2.7236  1.5833  0.1115
 5843TIP3    H239021   6.729   1.475   1.350  0.1139  2.4960  0.4677
 5844TIP3   OH239022   1.639   1.434   5.728 -0.3016 -0.5622 -0.1208
 5844TIP3    H139023   1.567   1.490   5.758 -0.4850 -0.0469 -1.4625
 5844TIP3    H239024   1.671   1.477   5.649  0.3716 -1.6997 -0.4846
 5845TIP3   OH239025   0.663   6.763   4.092  0.0298 -0.2171  0.2576
 5845TIP3    H139026   0.588   6.790   4.145  0.5962  0.9680  0.4686
 5845TIP3    H239027   0.687   6.841   4.043 -1.2698 -1.5386 -2.7744
 5846TIP3   OH239028   4.555   3.294   1.208 -0.4469  0.1233  0.0389
 5846TIP3    H139029   4.559   3.318   1.301 -1.6047 -1.1774  0.4681
 5846TIP3    H239030   4.637   3.326   1.171  0.2447  0.2692  1.6211
 5847TIP3   OH239031   2.841   2.646  14.317  0.3365  0.3336  0.9098
 5847TIP3    H139032   2.877   2.582  14.256 -0.5225  0.6249  0.0869
 5847TIP3    H239033   2.831   2.726  14.265  0.7743  0.9580  1.7533
 5848TIP3   OH239034   6.163   5.795   4.812 -0.2052 -0.1934 -0.4979
 5848TIP3    H139035   6.214   5.870   4.781  0.5946  0.3151  1.7912
 5848TIP3    H239036   6.217   5.719   4.789  1.1615  0.2694  0.9560
 5849TIP3   OH239037   5.842   6.591   3.322  0.8772 -0.1182  0.0695
 5849TIP3    H139038   5.775   6.624   3.382  0.7340 -1.2048  0.5250
 5849TIP3    H239039   5.857   6.663   3.261 -2.2467 -0.5365 -1.3660
 5850TIP3   OH239040   3.099   6.115  15.194  0.6368  0.5070 -0.2130
 5850TIP3    H139041   3.080   6.208  15.202  3.7626  1.2287  0.4426
 5850TIP3    H239042   3.053   6.087  15.116 -1.9360  2.0848  0.6267
 5851TIP3   OH239043   4.737   3.954  13.534  0.2653 -0.4477  0.0781
 5851TIP3    H139044   4.811   3.963  13.595 -0.7080 -0.2316  1.2758
 5851TIP3    H239045   4.767   3.995  13.453  1.2728  0.0873  0.7040
 5852TIP3   OH239046   2.101   0.343   3.454 -0.2405  0.4596 -0.4400
 5852TIP3    H139047   2.074   0.434   3.439 -3.6042 -0.6371 -1.8980
 5852TIP3    H239048   2.038   0.290   3.406  1.5839 -2.7262  0.3318
 5853TIP3   OH239049   4.513   1.232   5.184 -0.8664 -0.0565  0.2453
 5853TIP3    H139050   4.434   1.285   5.169 -1.9292 -1.1043  1.8804
 5853TIP3    H239051   4.561   1.280   5.251 -1.1300 -0.4223  0.7034
 5854TIP3   OH239052   5.237   0.389   4.823  0.1233 -0.2516  0.1268
 5854TIP3    H139053   5.286   0.470   4.842 -0.4476  0.7404 -2.2931
 5854TIP3    H239054   5.154   0.400   4.871  1.2893 -0.9589  2.4634
 5855TIP3   OH239055   0.227   4.604  14.107 -0.5653 -0.0106 -0.4472
 5855TIP3    H139056   0.156   4.609  14.171 -1.0259  0.9610 -1.0088
 5855TIP3    H239057   0.261   4.515  14.116  0.0333  0.3794  1.8204
 5856TIP3   OH239058   6.143   3.510   6.293 -0.5029 -0.2813  0.5609
 5856TIP3    H139059   6.113   3.435   6.344 -1.8719 -0.1054  0.0568
 5856TIP3    H239060   6.164   3.474   6.207  1.9139 -0.5973  1.2195
 5857TIP3   OH239061   4.322   0.181  14.360 -1.0096 -0.2791 -0.3756
 5857TIP3    H139062   4.240   0.159  14.405 -0.1827 -1.1446  0.7739
 5857TIP3    H239063   4.358   0.255  14.409 -0.2285 -1.0696  0.3000
 5858TIP3   OH239064   4.872   6.134  16.096  0.0737 -0.0900  0.3409
 5858TIP3    H139065   4.815   6.065  16.129 -1.7561  0.3456 -1.6701
 5858TIP3    H239066   4.852   6.210  16.151 -1.8467  0.2257 -0.6964
 5859TIP3   OH239067   3.309   3.610   1.004  0.3974  0.6427 -0.2982
 5859TIP3    H139068   3.280   3.535   0.952  3.3633 -2.3756  1.9171
 5859TIP3    H239069   3.374   3.653   0.950  1.3657 -0.7339 -0.2972
 5860TIP3   OH239070   1.311   3.669  11.176  0.4330  0.0202  0.1291
 5860TIP3    H139071   1.264   3.666  11.260 -0.6625  0.8128 -0.4382
 5860TIP3    H239072   1.242   3.673  11.110  1.2224 -2.3936 -0.9511
 5861TIP3   OH239073   5.007   0.263   0.059 -0.4425  0.3498  0.0476
 5861TIP3    H139074   5.074   0.247   0.126 -1.8009  0.4776  1.5181
 5861TIP3    H239075   5.016   0.190  -0.002  0.5704 -0.0038  0.5889
 5862TIP3   OH239076   2.325   1.547  13.993  0.3916 -0.3442  0.0564
 5862TIP3    H139077   2.315   1.566  14.086  0.2485  0.3163 -0.0837
 5862TIP3    H239078   2.249   1.492  13.971 -0.4102  0.7317  0.0207
 5863TIP3   OH239079   3.260   1.919  16.958  0.8185  0.1421  0.3310
 5863TIP3    H139080   3.239   1.840  16.908  1.0659 -0.6752  1.4611
 5863TIP3    H239081   3.175   1.955  16.983  0.6063 -1.5993  2.5213
 5864TIP3   OH239082   0.092   0.870  14.302 -0.0107  0.0162  0.4713
 5864TIP3    H139083   0.148   0.934  14.346  1.9601 -1.1798 -0.1844
 5864TIP3    H239084   0.025   0.847  14.367  1.2944  0.2021  1.9225
 5865TIP3   OH239085   0.503   2.776  15.603  0.2696 -0.3948  0.5241
 5865TIP3    H139086   0.556   2.793  15.525 -0.2765 -0.3289  0.1613
 5865TIP3    H239087   0.416   2.756  15.569 -0.1406  0.2876  1.1468
 5866TIP3   OH239088   4.493   3.681   1.321  0.0579  0.5844  0.0043
 5866TIP3    H139089   4.413   3.638   1.351 -0.3416  0.6363 -0.9502
 5866TIP3    H239090   4.494   3.665   1.227 -0.4946  3.2731 -0.5342
 5867TIP3   OH239091   2.842   5.017   5.551 -0.4912 -0.0500 -0.6712
 5867TIP3    H139092   2.834   4.922   5.556  1.0235 -0.1313  2.7084
 5867TIP3    H239093   2.772   5.050   5.607  0.1042  0.7220 -0.3675
 5868TIP3   OH239094   2.156   5.896  11.786  0.0028  0.1151  0.1817
 5868TIP3    H139095   2.231   5.861  11.739 -0.4784  0.7068 -1.0664
 5868TIP3    H239096   2.127   5.971  11.734 -3.1358 -1.6626 -0.9607
 5869TIP3   OH239097   3.494   4.247  13.680  0.0944 -0.0734  0.4499
 5869TIP3    H139098   3.461   4.159  13.662  0.5147  0.0302 -0.9799
 5869TIP3    H239099   3.568   4.257  13.620  1.2637  0.5541  1.9476
 5870TIP3   OH239100   5.420   2.419  17.176 -0.1079  0.8647  0.1623
 5870TIP3    H139101   5.443   2.407  17.269  0.7762  1.1557 -0.0058
 5870TIP3    H239102   5.404   2.513  17.167 -0.7640  0.7559  0.1346
 5871TIP3   OH239103   2.383   3.779  11.612  0.0744 -0.3148  0.6225
 5871TIP3    H139104   2.360   3.687  11.627 -0.4854 -0.0298  1.5346
 5871TIP3    H239105   2.414   3.811  11.697 -0.9818  0.6966  0.6429
 5872TIP3   OH239106   3.797   4.480  17.229  0.2762 -0.1940 -0.2256
 5872TIP3    H139107   3.834   4.417  17.291 -0.3662  0.1135  0.4861
 5872TIP3    H239108   3.797   4.563  17.278 -1.8242 -0.2843 -0.0130
 5873TIP3   OH239109   5.894   1.639  13.877 -0.1935 -0.1386 -0.3367
 5873TIP3    H139110   5.841   1.583  13.934  1.3085  1.2509  2.6022
 5873TIP3    H239111   5.901   1.722  13.923 -1.0683  2.1194 -3.8275
 5874TIP3   OH239112   1.896   4.636  15.714  0.5810  0.0444 -0.0026
 5874TIP3    H139113   1.951   4.705  15.749 -1.7278  1.4561  1.0666
 5874TIP3    H239114   1.949   4.556  15.722  2.6851  1.4129  0.2713
 5875TIP3   OH239115   1.729   4.692   1.043 -0.6728  0.2014  0.1789
 5875TIP3    H139116   1.781   4.705   0.963 -0.4998 -1.7254 -0.0742
 5875TIP3    H239117   1.668   4.621   1.020 -0.2429 -0.7759  1.9180
 5876TIP3   OH239118   4.588   3.197  17.094  0.3268  0.2997 -0.4671
 5876TIP3    H139119   4.531   3.175  17.167 -0.0680 -2.1845 -1.4389
 5876TIP3    H239120   4.535   3.255  17.039 -0.2005  0.3302  0.0577
 5877TIP3   OH239121   6.377   1.237   2.275  0.6237 -0.5283  0.2547
 5877TIP3    H139122   6.292   1.222   2.234  0.5283  0.0436  0.2445
 5877TIP3    H239123   6.439   1.234   2.202  0.3502  1.5121 -0.1177
 5878TIP3   OH239124   2.879   0.855   6.577  0.3749 -0.6905  0.4584
 5878TIP3    H139125   2.851   0.764   6.587 -0.4472 -0.5480 -0.3737
 5878TIP3    H239126   2.966   0.858   6.617  0.0334 -1.6242  1.3041
 5879TIP3   OH239127   2.115   6.456  15.250  0.2155 -0.3270  0.0851
 5879TIP3    H139128   2.090   6.439  15.160 -0.7627 -1.0307  0.4715
 5879TIP3    H239129   2.200   6.501  15.244  1.4194 -2.5799 -1.0924
 5880TIP3   OH239130   5.513   1.702  11.813  0.3663  0.4812  0.1043
 5880TIP3    H139131   5.498   1.687  11.720  0.3515 -0.3634  0.2307
 5880TIP3    H239132   5.586   1.764  11.816  0.5016  0.3531 -0.4693
 5881TIP3   OH239133   2.830   4.898  17.124 -0.5888 -0.2732 -0.2916
 5881TIP3    H139134   2.736   4.887  17.139 -0.3918  0.5491  2.0564
 5881TIP3    H239135   2.869   4.814  17.148 -0.5373  0.2283  1.6068
 5882TIP3   OH239136   0.967   6.531  13.197  0.2382  0.4987  0.0089
 5882TIP3    H139137   0.950   6.458  13.138 -1.1222 -0.3017  1.3407
 5882TIP3    H239138   0.881   6.558  13.229  0.8942  1.1931  1.2899
 5883TIP3   OH239139   3.527   5.806  11.258 -0.0706 -0.3830 -0.5470
 5883TIP3    H139140   3.581   5.795  11.336  2.3375 -0.2178 -2.0882
 5883TIP3    H239141   3.453   5.747  11.272  0.1171 -0.1370  1.9468
 5884TIP3   OH239142   6.774   2.825  13.417 -0.1880 -0.3093 -0.1629
 5884TIP3    H139143   6.729   2.742  13.434  0.6714 -1.1214 -1.5712
 5884TIP3    H239144   6.769   2.873  13.500  0.8906 -2.5581  1.3098
 5885TIP3   OH239145   0.204   4.280   1.639 -0.6556 -0.5571 -0.5012
 5885TIP3    H139146   0.230   4.229   1.716  0.0337  0.0153 -0.3415
 5885TIP3    H239147   0.268   4.351   1.635  0.8071 -1.9146 -3.0002
 5886TIP3   OH239148   0.476   6.124   0.293  0.5034  0.0625 -0.1902
 5886TIP3    H139149   0.540   6.075   0.242  1.4287  1.9089 -0.9206
 5886TIP3    H239150   0.395   6.074   0.285  0.9068 -0.3232 -2.5288
 5887TIP3   OH239151   2.849   2.482   4.327 -0.6209  0.6190 -0.6336
 5887TIP3    H139152   2.772   2.531   4.298 -1.4151 -0.5335 -0.5384
 5887TIP3    H239153   2.893   2.456   4.246  0.4863  2.4484 -0.6899
 5888TIP3   OH239154   5.156   5.710   4.734  0.4626 -0.0947 -0.3132
 5888TIP3    H139155   5.212   5.754   4.670 -0.0238 -0.1997 -0.8160
 5888TIP3    H239156   5.208   5.635   4.763  0.9854  0.3691 -0.0203
 5889TIP3   OH239157   2.186   5.426   5.703 -0.0251 -0.1103 -0.4579
 5889TIP3    H139158   2.161   5.337   5.725  1.9285  0.1204  3.6234
 5889TIP3    H239159   2.275   5.419   5.667 -0.0265  0.1908 -0.5300
 5890TIP3   OH239160   6.042   1.486   0.106 -0.7499  0.2923 -0.2077
 5890TIP3    H139161   6.024   1.394   0.123  0.0096  0.3851  1.3279
 5890TIP3    H239162   6.136   1.490   0.090 -0.2547  1.0768  2.3990
 5891TIP3   OH239163   4.426   6.213  15.384  0.0139  0.3512 -0.9711
 5891TIP3    H139164   4.372   6.225  15.306  0.0353 -2.0680 -1.4340
 5891TIP3    H239165   4.509   6.178  15.351  0.6855  0.9728 -0.0007
 5892TIP3   OH239166   4.263   0.150   3.110  0.6268  0.1485  0.4283
 5892TIP3    H139167   4.232   0.235   3.080  0.4564 -0.6608 -1.8729
 5892TIP3    H239168   4.283   0.163   3.203  0.9819  2.7726  0.0578
 5893TIP3   OH239169   4.018   4.706  14.135  0.2107  0.4242 -0.0954
 5893TIP3    H139170   4.007   4.798  14.156  2.4140  0.2360  2.3626
 5893TIP3    H239171   4.112   4.692  14.133 -0.0361 -2.0011  0.8751
 5894TIP3   OH239172   6.398   5.851   0.394  0.0543  0.2860 -0.6313
 5894TIP3    H139173   6.459   5.924   0.396  1.4316 -0.8173 -0.3199
 5894TIP3    H239174   6.429   5.796   0.322 -0.9735  0.0193 -0.8802
 5895TIP3   OH239175   2.954   0.953  16.302  0.2853  0.2887  0.0444
 5895TIP3    H139176   2.905   1.008  16.363 -0.5661  0.1884 -0.5351
 5895TIP3    H239177   3.041   0.947  16.340 -0.0566  0.7488  0.9246
 5896TIP3   OH239178   6.275   3.894   3.888  0.8464 -0.1270  0.3617
 5896TIP3    H139179   6.181   3.899   3.905  0.8680 -0.1039  0.4790
 5896TIP3    H239180   6.287   3.932   3.801  0.8017  0.2808  0.5339
 5897TIP3   OH239181   4.020   2.258   2.283  0.2931 -0.0580  0.5606
 5897TIP3    H139182   4.015   2.351   2.264  3.8912  0.1917  0.0577
 5897TIP3    H239183   3.982   2.215   2.206  0.5535  1.0043 -0.1794
 5898TIP3   OH239184   4.441   3.202   5.708 -0.1018 -0.1227  0.2690
 5898TIP3    H139185   4.505   3.264   5.742 -0.7853  0.3846  0.6530
 5898TIP3    H239186   4.462   3.119   5.751  0.4664 -0.0325  0.1746
 5899TIP3   OH239187   4.572   5.497   5.559  0.5105 -0.9399 -0.2733
 5899TIP3    H139188   4.590   5.583   5.597 -0.4135 -1.2284  0.8471
 5899TIP3    H239189   4.645   5.443   5.586  0.7050 -0.7140 -0.3383
 5900TIP3   OH239190   4.834   1.836  16.006 -0.3065 -0.2944 -0.3580
 5900TIP3    H139191   4.739   1.847  15.994 -0.5414  0.6992  1.8964
 5900TIP3    H239192   4.871   1.920  15.978 -0.0027 -0.8871 -1.7904
 5901TIP3   OH239193   2.412   2.563   4.532 -0.1480 -0.1895  0.6702
 5901TIP3    H139194   2.320   2.584   4.517  0.3645  0.9420 -1.3471
 5901TIP3    H239195   2.444   2.635   4.587 -0.5120 -0.7661  1.6659
 5902TIP3   OH239196   2.224   6.802   0.552 -0.0220  0.3842  0.2371
 5902TIP3    H139197   2.213   6.856   0.473  2.5221  1.7178  0.7007
 5902TIP3    H239198   2.303   6.751   0.535  1.1249  1.3791  2.2381
 5903TIP3   OH239199   1.512   0.301  16.113  0.0651  0.3415  0.0229
 5903TIP3    H139200   1.470   0.224  16.074  0.7471  0.1012 -0.2602
 5903TIP3    H239201   1.605   0.292  16.089  0.3330  0.7022  0.8742
 5904TIP3   OH239202   0.997   3.654   4.252  0.1529  0.0532 -0.2197
 5904TIP3    H139203   1.011   3.601   4.174 -0.7980  1.6263 -1.5016
 5904TIP3    H239204   0.927   3.609   4.300 -3.4186  1.9379 -3.1831
 5905TIP3   OH239205   4.454   0.343   1.551 -0.0915 -0.5066 -0.1028
 5905TIP3    H139206   4.385   0.402   1.521  1.1983  0.9892 -0.2164
 5905TIP3    H239207   4.449   0.268   1.492 -0.4478  0.4072 -1.2675
 5906TIP3   OH239208   6.081   6.677  13.636  0.5831  0.0833 -0.5796
 5906TIP3    H139209   6.149   6.730  13.679  0.9359 -0.6045 -0.2736
 5906TIP3    H239210   6.021   6.653  13.707  1.5033 -1.5726 -0.3194
 5907TIP3   OH239211   3.623   5.270   1.287  0.0124 -0.2010  0.1223
 5907TIP3    H139212   3.585   5.329   1.223 -0.3066  1.4707  1.7625
 5907TIP3    H239213   3.550   5.248   1.345  0.3710 -1.3594  0.1527
 5908TIP3   OH239214   4.343   2.691  16.242  0.7857 -0.4397  0.4666
 5908TIP3    H139215   4.398   2.657  16.312  1.1992 -1.9600 -0.5434
 5908TIP3    H239216   4.286   2.617  16.218  0.4932  0.1115 -0.6322
 5909TIP3   OH239217   1.706   3.322   6.825 -0.0658 -0.4042 -0.2760
 5909TIP3    H139218   1.772   3.320   6.894 -0.2970  1.6278  0.0663
 5909TIP3    H239219   1.737   3.388   6.763 -0.8967 -0.7071 -1.0381
 5910TIP3   OH239220   6.246   1.907  11.316  0.0362  0.6879  0.0016
 5910TIP3    H139221   6.249   1.878  11.408 -3.2641 -1.1791 -0.3176
 5910TIP3    H239222   6.169   1.964  11.312  0.6725  1.4731 -1.4603
 5911TIP3   OH239223   4.238   6.610  16.839 -0.6481 -0.4513 -0.7652
 5911TIP3    H139224   4.286   6.555  16.777 -1.0406 -1.2068 -0.4166
 5911TIP3    H239225   4.298   6.618  16.914 -0.6989 -0.6503 -0.7008
 5912TIP3   OH239226   4.939   2.316   3.176 -0.3217  0.2046 -0.4049
 5912TIP3    H139227   4.999   2.324   3.102 -1.4853  2.5151 -1.1938
 5912TIP3    H239228   4.995   2.297   3.251  1.2267  0.8842 -1.3511
 5913TIP3   OH239229   4.173   2.014   0.997 -0.0232 -0.8066  0.2787
 5913TIP3    H139230   4.086   2.054   1.004  0.9915  1.6687 -0.2668
 5913TIP3    H239231   4.179   1.957   1.074 -1.9149 -0.6464  0.5960
 5914TIP3   OH239232   4.918   0.548   0.403  0.4825  0.5067 -0.8923
 5914TIP3    H139233   4.827   0.544   0.374 -0.2049 -2.8715  1.2626
 5914TIP3    H239234   4.916   0.599   0.484  0.1110 -1.1545  0.1823
 5915TIP3   OH239235   5.974   1.360  12.463 -0.3955  0.1877  0.0325
 5915TIP3    H139236   6.019   1.278  12.443 -1.5702 -0.1319 -1.4674
 5915TIP3    H239237   6.011   1.387  12.548 -1.4407 -2.9542  1.6562
 5916TIP3   OH239238   2.060   4.760  15.527  0.0061 -0.2813  0.4652
 5916TIP3    H139239   2.121   4.691  15.502 -0.8902 -1.0293  0.2955
 5916TIP3    H239240   1.974   4.718  15.523 -0.8962  1.5214 -2.3996
 5917TIP3   OH239241   4.166   3.006   5.261  0.1364  0.2205  0.4678
 5917TIP3    H139242   4.124   2.937   5.210  1.4601  1.0293 -1.8743
 5917TIP3    H239243   4.255   2.975   5.275  0.5337  1.1147  0.0032
 5918TIP3   OH239244   6.193   5.307  17.276  0.1376  0.0984  0.3930
 5918TIP3    H139245   6.159   5.368  17.211 -0.4977  0.2695  0.8755
 5918TIP3    H239246   6.282   5.288  17.246  1.4232  3.3421  1.5952
 5919TIP3   OH239247   0.589   1.265   2.673 -0.2337 -0.6516  0.0385
 5919TIP3    H139248   0.586   1.272   2.769 -0.9922 -1.7501  0.1095
 5919TIP3    H239249   0.613   1.174   2.656  0.3920 -0.3378 -0.8267
 5920TIP3   OH239250   6.561   5.067   3.632  0.4955  0.7061  0.3612
 5920TIP3    H139251   6.510   5.006   3.578  1.1176  0.5503 -0.0745
 5920TIP3    H239252   6.497   5.129   3.665 -0.2932 -0.6599  1.5053
 5921TIP3   OH239253   1.973   1.158  12.240  0.5264 -0.0832  0.1928
 5921TIP3    H139254   1.912   1.085  12.254 -0.7886  0.9410 -0.0545
 5921TIP3    H239255   2.059   1.120  12.258 -0.2533 -1.2907  1.6717
 5922TIP3   OH239256   4.716   5.713  12.548  0.0622 -0.5478  0.0319
 5922TIP3    H139257   4.750   5.667  12.624 -0.5443  0.2185  0.8059
 5922TIP3    H239258   4.672   5.790  12.585 -0.4858 -0.3000 -1.0746
 5923TIP3   OH239259   1.314   5.049  13.979 -0.4526 -0.0133 -0.2068
 5923TIP3    H139260   1.262   5.109  14.033 -0.1471 -0.4438  0.5743
 5923TIP3    H239261   1.389   5.101  13.950  0.8110 -0.4919  2.0075
 5924TIP3   OH239262   1.265   0.242   3.706 -0.7777 -0.0853 -0.6646
 5924TIP3    H139263   1.335   0.254   3.643  1.6845  0.6246  1.9806
 5924TIP3    H239264   1.213   0.170   3.671  3.2087 -2.9977 -1.3082
 5925TIP3   OH239265   4.807   5.295  15.183 -0.0925 -0.3993  0.0716
 5925TIP3    H139266   4.866   5.339  15.122 -1.5043 -0.1579 -1.1654
 5925TIP3    H239267   4.852   5.214  15.207  1.2780  0.3649  0.1572
 5926TIP3   OH239268   4.275   2.410  14.342  0.8252 -0.4954 -0.4753
 5926TIP3    H139269   4.269   2.352  14.417 -1.8309  1.5456  1.0919
 5926TIP3    H239270   4.369   2.426  14.331  1.4115 -2.5604  0.9812
 5927TIP3   OH239271   4.548   2.626   1.712  0.3423 -0.0132  0.1190
 5927TIP3    H139272   4.515   2.560   1.772  0.5046  0.1751  0.4172
 5927TIP3    H239273   4.522   2.710   1.751  2.9174  0.2652  1.4968
 5928TIP3   OH239274   3.552   2.732   3.157 -0.4108 -0.2998 -0.5673
 5928TIP3    H139275   3.544   2.820   3.118 -1.3667 -0.5686 -1.0137
 5928TIP3    H239276   3.606   2.745   3.235  0.6026  0.4496 -1.3607
 5929TIP3   OH239277   0.590   2.805   3.806 -0.0784 -0.2226  0.1281
 5929TIP3    H139278   0.502   2.819   3.841 -0.0729 -1.1038  0.5026
 5929TIP3    H239279   0.606   2.711   3.815  1.5482  0.1342  1.6315
 5930TIP3   OH239280   0.240   1.710   2.917 -0.1452  0.0040  0.0083
 5930TIP3    H139281   0.257   1.720   2.824 -0.8373  2.3191  0.0700
 5930TIP3    H239282   0.277   1.625   2.939  2.8973  0.7013 -1.7453
 5931TIP3   OH239283   2.642   2.798   1.954  0.2584 -0.1642  0.3732
 5931TIP3    H139284   2.666   2.715   1.913  1.2568  0.0087  0.5788
 5931TIP3    H239285   2.546   2.802   1.947  0.2640 -0.9921 -0.2723
 5932TIP3   OH239286   3.321   4.020  15.520 -0.0185  0.7024  0.4417
 5932TIP3    H139287   3.416   4.026  15.526  0.0090 -0.3919  1.7235
 5932TIP3    H239288   3.288   4.099  15.563  0.2916  1.1992 -0.2136
 5933TIP3   OH239289   5.821   3.689   2.481  0.1013  0.0539  0.0956
 5933TIP3    H139290   5.813   3.736   2.564 -1.7722  0.2966 -0.1838
 5933TIP3    H239291   5.864   3.606   2.504 -0.2781  0.1768  1.2883
 5934TIP3   OH239292   1.302   1.188   2.556  0.2006  0.3382 -1.0880
 5934TIP3    H139293   1.292   1.241   2.635 -0.0903  0.9930 -1.5521
 5934TIP3    H239294   1.367   1.235   2.504  1.4566 -0.8292 -0.6427
 5935TIP3   OH239295   2.150   4.322  12.962 -0.3788  0.6076  0.1317
 5935TIP3    H139296   2.209   4.297  13.033 -0.2425  0.7458  0.0675
 5935TIP3    H239297   2.108   4.241  12.935  1.0471  0.1905 -0.9844
 5936TIP3   OH239298   6.375   6.605   3.623 -0.4040 -0.3467 -0.4267
 5936TIP3    H139299   6.351   6.600   3.716 -1.7651 -1.3223 -0.7901
 5936TIP3    H239300   6.291   6.613   3.578  0.1405 -1.3028 -1.6471
 5937TIP3   OH239301   3.545   4.133  15.651  0.7349  0.2257 -0.3489
 5937TIP3    H139302   3.498   4.202  15.698 -0.0726 -0.0658 -0.7079
 5937TIP3    H239303   3.622   4.116  15.705  1.8159  2.5122 -1.0674
 5938TIP3   OH239304   2.686   3.348   1.797  0.3839 -0.1885  0.5554
 5938TIP3    H139305   2.661   3.339   1.705  2.5332 -1.2808  0.0028
 5938TIP3    H239306   2.632   3.283   1.843 -0.3461  0.0122  0.0038
 5939TIP3   OH239307   5.719   2.476  16.187 -0.0489 -0.1713 -0.2321
 5939TIP3    H139308   5.717   2.383  16.209 -1.0425  0.2085  1.4090
 5939TIP3    H239309   5.808   2.490  16.154  0.8681 -1.2415  1.6294
 5940TIP3   OH239310   5.584   3.152  14.168  0.4863  0.7541 -0.2734
 5940TIP3    H139311   5.677   3.170  14.152  0.5698  0.3637 -0.2346
 5940TIP3    H239312   5.547   3.237  14.194  0.7069  1.0408 -0.8652
 5941TIP3   OH239313   6.640   2.509  14.305  0.0241 -0.3149  0.0402
 5941TIP3    H139314   6.642   2.451  14.381 -1.0894 -2.4749 -1.5084
 5941TIP3    H239315   6.732   2.515  14.278  0.1968 -1.0205  0.4509
 5942TIP3   OH239316   6.428   3.893  11.810 -0.5214 -0.2372  0.0665
 5942TIP3    H139317   6.409   3.825  11.874  0.4984 -0.2210  0.4020
 5942TIP3    H239318   6.405   3.975  11.854 -2.0999 -0.3534 -0.4675
 5943TIP3   OH239319   2.260   6.291  13.434  0.0336  0.5852 -0.0135
 5943TIP3    H139320   2.241   6.236  13.357  0.2517 -0.7116  0.8214
 5943TIP3    H239321   2.184   6.349  13.441 -0.4279  0.0811 -0.6809
 5944TIP3   OH239322   0.459   4.331  15.670  0.5586 -0.4156 -0.3777
 5944TIP3    H139323   0.427   4.242  15.680  1.7432 -0.8240 -0.1100
 5944TIP3    H239324   0.390   4.376  15.620 -1.0026 -0.9086  1.2027
 5945TIP3   OH239325   5.236   0.569   0.629  0.2885 -0.3177 -0.2016
 5945TIP3    H139326   5.167   0.545   0.690 -0.6179  0.3717 -0.9349
 5945TIP3    H239327   5.243   0.664   0.636  2.8455 -0.5356  1.6181
 5946TIP3   OH239328   1.465   4.912  12.175  0.0259  0.2437  0.4410
 5946TIP3    H139329   1.419   4.993  12.197 -1.3002  0.1371 -1.6775
 5946TIP3    H239330   1.447   4.854  12.249 -0.3735  1.3257  1.2279
 5947TIP3   OH239331   4.985   1.746   4.384  0.2391  0.7343 -0.1479
 5947TIP3    H139332   5.013   1.722   4.473  4.1609 -0.0286 -1.3907
 5947TIP3    H239333   5.013   1.837   4.374 -1.1668  1.1817 -0.3392
 5948TIP3   OH239334   2.846   2.876   3.006 -0.1149  0.0754 -0.2342
 5948TIP3    H139335   2.830   2.840   2.919 -1.3265  0.6272 -0.2613
 5948TIP3    H239336   2.789   2.953   3.010 -1.7602 -1.1711  1.8474
 5949TIP3   OH239337   1.716   5.412  11.487  0.5774 -0.2408  0.2811
 5949TIP3    H139338   1.755   5.412  11.574 -3.5844  2.0636  2.4534
 5949TIP3    H239339   1.749   5.492  11.445 -1.2323  1.4553  1.9154
 5950TIP3   OH239340   5.645   5.288  11.888 -0.4995  0.4226  0.4577
 5950TIP3    H139341   5.632   5.373  11.931 -0.8898  0.2210  0.7514
 5950TIP3    H239342   5.652   5.226  11.961  2.4255  0.5077  0.3773
 5951TIP3   OH239343   2.707   2.852   4.186  0.2137 -0.4546  0.5210
 5951TIP3    H139344   2.655   2.929   4.162 -0.6697 -1.3397 -0.5211
 5951TIP3    H239345   2.695   2.791   4.113  0.2336 -1.9114  1.6846
 5952TIP3   OH239346   2.778   4.210  12.805 -0.5319  0.2094 -0.5385
 5952TIP3    H139347   2.686   4.222  12.782 -0.7292 -0.6091 -0.2242
 5952TIP3    H239348   2.779   4.211  12.901 -0.6395 -2.3430 -0.4254
 5953TIP3   OH239349   1.489   5.871  14.439  0.0569 -0.0801 -0.3452
 5953TIP3    H139350   1.415   5.893  14.383  0.7516  1.9181 -0.5437
 5953TIP3    H239351   1.507   5.779  14.420 -1.6719 -0.3009 -1.0729
 5954TIP3   OH239352   5.928   0.017  14.305 -0.1832  0.2505  0.1463
 5954TIP3    H139353   5.949   0.109  14.319  1.3576 -0.0227 -0.1400
 5954TIP3    H239354   5.892   0.013  14.217 -0.8469  0.6552  0.3947
 5955TIP3   OH239355   1.099   4.570   0.958  0.6099 -0.2552  0.2420
 5955TIP3    H139356   1.177   4.583   0.906 -1.0437 -0.1845 -2.3932
 5955TIP3    H239357   1.029   4.612   0.908 -1.3654 -1.5579  1.7465
 5956TIP3   OH239358   2.115   0.070   3.107  0.1561 -0.7684 -0.4368
 5956TIP3    H139359   2.080   0.009   3.172 -1.3921 -1.1599 -1.5703
 5956TIP3    H239360   2.206   0.084   3.134 -0.4504 -0.8054  1.8605
 5957TIP3   OH239361   3.446   4.800   3.973 -0.2965 -0.1052  0.0597
 5957TIP3    H139362   3.366   4.840   3.938 -0.6624  0.0045  0.9906
 5957TIP3    H239363   3.433   4.800   4.068 -0.1236 -1.9992  0.1372
 5958TIP3   OH239364   1.826   5.289   2.314  0.2382  0.2916 -0.4543
 5958TIP3    H139365   1.782   5.302   2.398  0.2308 -1.0852 -0.2271
 5958TIP3    H239366   1.799   5.202   2.286 -0.1958  0.9416 -2.1685
 5959TIP3   OH239367   0.641   3.915  14.801  0.0296  0.1386  0.1266
 5959TIP3    H139368   0.579   3.950  14.737 -0.3221  0.2177  0.5119
 5959TIP3    H239369   0.725   3.914  14.754 -0.3043 -0.1976 -0.4731
 5960TIP3   OH239370   3.548   1.561  13.504  0.5375  0.0029 -0.1042
 5960TIP3    H139371   3.532   1.647  13.465 -0.7369  0.0123  0.3951
 5960TIP3    H239372   3.494   1.500  13.452 -0.3423 -0.1377  0.9375
 5961TIP3   OH239373   4.510   0.358  16.050  0.3845  0.1859 -0.7089
 5961TIP3    H139374   4.572   0.295  16.087 -0.6450 -0.3875  0.1072
 5961TIP3    H239375   4.521   0.436  16.105  0.8572  0.3306 -1.0005
 5962TIP3   OH239376   3.288   0.845  16.974  0.2901  0.2724  0.0194
 5962TIP3    H139377   3.212   0.787  16.970  1.8815 -1.8955 -1.3408
 5962TIP3    H239378   3.340   0.810  17.047  1.6336 -0.6096 -1.2897
 5963TIP3   OH239379   6.806   3.951  16.607  0.1680  0.0101 -0.5916
 5963TIP3    H139380   6.896   3.934  16.635  0.0015  0.2750  0.1342
 5963TIP3    H239381   6.797   3.902  16.525  1.4094  1.1213 -1.4295
 5964TIP3   OH239382   3.230   1.379  12.519 -0.3024 -0.1931  0.1634
 5964TIP3    H139383   3.307   1.425  12.552 -0.5425  0.0617  0.3651
 5964TIP3    H239384   3.187   1.442  12.461  0.2214 -0.6951 -0.8147
 5965TIP3   OH239385   1.377   5.379  14.983  0.1244 -0.4101 -0.0526
 5965TIP3    H139386   1.345   5.390  15.073 -0.7682  0.6159 -0.4763
 5965TIP3    H239387   1.339   5.452  14.935  0.6408 -0.9147 -1.2637
 5966TIP3   OH239388   2.889   2.492   2.481 -0.1033  0.2143 -0.0405
 5966TIP3    H139389   2.834   2.453   2.549 -0.9050  0.7996 -0.3406
 5966TIP3    H239390   2.831   2.499   2.404  1.2156 -1.9461 -1.3476
 5967TIP3   OH239391   0.784   4.078   5.204  0.1337  0.2477  0.3172
 5967TIP3    H139392   0.805   4.049   5.116 -1.3930 -1.2774  0.4033
 5967TIP3    H239393   0.793   4.000   5.258 -0.7409  0.7218  1.1847
 5968TIP3   OH239394   2.143   2.187  16.467  0.1094  0.5303 -0.2234
 5968TIP3    H139395   2.077   2.194  16.398 -1.3189  1.3598  1.1736
 5968TIP3    H239396   2.223   2.160  16.421 -0.9256  0.5234 -2.1065
 5969TIP3   OH239397   4.832   5.331   4.027 -0.0189  0.2138  0.1735
 5969TIP3    H139398   4.763   5.306   4.089  1.4594 -1.1269  1.3456
 5969TIP3    H239399   4.838   5.426   4.035 -0.6067  0.1753  1.2647
 5970TIP3   OH239400   2.085   2.182   2.236 -0.3350 -0.3415  0.1791
 5970TIP3    H139401   2.091   2.090   2.261 -2.2375 -0.5887 -0.1010
 5970TIP3    H239402   1.997   2.209   2.264 -0.7595  0.6780 -1.8723
 5971TIP3   OH239403   5.025   5.749  16.749  0.1922 -0.2005 -0.3800
 5971TIP3    H139404   5.092   5.817  16.752 -0.0768  0.0484  0.2540
 5971TIP3    H239405   4.958   5.783  16.690  0.0532  0.0937 -0.0547
 5972TIP3   OH239406   4.987   6.650  14.146 -0.3541  0.8391 -0.3015
 5972TIP3    H139407   4.998   6.688  14.233  0.9195 -0.1729  0.0251
 5972TIP3    H239408   5.030   6.712  14.087 -0.3630  1.0597 -0.0781
 5973TIP3   OH239409   5.557   6.457   6.026 -0.2194  0.1202  0.0599
 5973TIP3    H139410   5.482   6.398   6.027  0.2446 -0.4774  0.8850
 5973TIP3    H239411   5.520   6.543   6.042 -1.1388  0.4155 -2.9183
 5974TIP3   OH239412   4.621   5.293   4.903 -0.2284 -0.8269  0.1648
 5974TIP3    H139413   4.706   5.329   4.927 -0.1730 -0.0752 -1.0900
 5974TIP3    H239414   4.641   5.222   4.842 -0.4649 -1.1706  0.4846
 5975TIP3   OH239415   5.690   5.137  15.624  0.5360  0.4497 -0.4608
 5975TIP3    H139416   5.679   5.052  15.582 -0.2486 -0.3297  1.2176
 5975TIP3    H239417   5.779   5.164  15.603  0.7892 -0.7881 -1.0101
 5976TIP3   OH239418   2.554   3.301   5.492 -0.1810 -0.0309 -0.0037
 5976TIP3    H139419   2.622   3.368   5.502 -0.7874  0.8165 -1.2225
 5976TIP3    H239420   2.512   3.296   5.578 -0.0751  1.1350  0.1360
 5977TIP3   OH239421   5.371   2.518  13.178  0.2901 -0.1733  0.6377
 5977TIP3    H139422   5.446   2.486  13.228  1.5496  1.7391  0.0790
 5977TIP3    H239423   5.400   2.514  13.087 -0.5859 -0.1111  0.3479
 5978TIP3   OH239424   5.242   1.899  13.627  0.0445 -0.0632 -0.5437
 5978TIP3    H139425   5.218   1.856  13.710 -0.2686  1.8022  0.3964
 5978TIP3    H239426   5.230   1.992  13.645 -0.2961  0.3742 -2.8080
 5979TIP3   OH239427   3.170   1.596  15.063  0.1509 -0.3183  0.3998
 5979TIP3    H139428   3.218   1.523  15.102  0.8072  0.0815  0.3581
 5979TIP3    H239429   3.107   1.555  15.004 -0.6800 -0.9270  1.6748
 5980TIP3   OH239430   1.360   0.210   2.901 -0.3141  0.3719 -0.3785
 5980TIP3    H139431   1.450   0.185   2.881 -1.6955 -3.4688 -2.9868
 5980TIP3    H239432   1.321   0.230   2.816 -2.3971  0.0049  0.4223
 5981TIP3   OH239433   6.527   4.427   0.213 -0.3029 -0.0829  0.2676
 5981TIP3    H139434   6.522   4.354   0.152  0.6140  0.8819 -1.0215
 5981TIP3    H239435   6.437   4.442   0.241 -0.4555 -1.9713  0.9304
 5982TIP3   OH239436   0.374   3.313   4.816  0.0539 -0.0136  0.2445
 5982TIP3    H139437   0.429   3.324   4.739 -0.4145 -0.4211 -0.1582
 5982TIP3    H239438   0.392   3.223   4.845 -1.9172 -0.9406 -1.1409
 5983TIP3   OH239439   1.305   4.873   3.665 -0.2240 -0.6389 -0.6728
 5983TIP3    H139440   1.398   4.894   3.668  0.3544 -2.9608  0.0979
 5983TIP3    H239441   1.272   4.921   3.590  1.3879  0.9062 -0.4708
 5984TIP3   OH239442   0.905   2.502  11.387 -0.3063 -0.6141  0.1640
 5984TIP3    H139443   0.895   2.527  11.479  1.5590  0.3252  0.1663
 5984TIP3    H239444   0.947   2.578  11.347  2.4337 -2.3876 -0.5989
 5985TIP3   OH239445   1.635   2.572   4.832 -0.1886  0.7069  0.1167
 5985TIP3    H139446   1.708   2.624   4.796  0.9747 -1.1973 -0.4713
 5985TIP3    H239447   1.634   2.593   4.925  0.1036  1.9267 -0.1386
 5986TIP3   OH239448   3.773   4.139  12.864 -0.1969 -0.5362 -0.3853
 5986TIP3    H139449   3.776   4.174  12.775 -0.4085  0.1519 -0.1284
 5986TIP3    H239450   3.758   4.216  12.919 -0.1032 -0.9637  0.2418
 5987TIP3   OH239451   1.394   2.338  16.678  0.8816 -0.2059 -0.5656
 5987TIP3    H139452   1.425   2.287  16.603 -1.0210  0.3152 -1.7700
 5987TIP3    H239453   1.349   2.413  16.639 -0.6740 -0.2215  1.0928
 5988TIP3   OH239454   5.848   3.245  14.211 -0.1644 -0.4447  0.0514
 5988TIP3    H139455   5.901   3.246  14.291 -1.1481 -0.7147  0.7157
 5988TIP3    H239456   5.816   3.335  14.203  0.6332 -0.2037 -0.5218
 5989TIP3   OH239457   6.394   5.681  15.227  0.0480  0.8699  0.9166
 5989TIP3    H139458   6.433   5.657  15.143 -1.3503  1.0366  0.1891
 5989TIP3    H239459   6.440   5.762  15.252  0.9127  0.4815  0.6476
 5990TIP3   OH239460   1.338   6.639  15.050  0.4507  0.1888  0.0537
 5990TIP3    H139461   1.307   6.681  15.130  1.0849 -0.3410  0.5790
 5990TIP3    H239462   1.324   6.546  15.064  0.7165  0.0796 -0.3945
 5991TIP3   OH239463   5.793   6.300   3.281  0.1701  0.0222  0.8330
 5991TIP3    H139464   5.879   6.260   3.292  0.5381 -0.2609 -2.1182
 5991TIP3    H239465   5.810   6.394   3.282  0.6232 -0.0329 -0.1023
 5992TIP3   OH239466   5.142   4.928   4.264 -0.1064  0.1216 -0.0059
 5992TIP3    H139467   5.112   4.905   4.352  0.3088  0.1310  0.1380
 5992TIP3    H239468   5.088   5.003   4.239 -0.3536  0.0008  0.1632
 5993TIP3   OH239469   0.915   4.336  12.414 -0.4715  0.2969 -0.3677
 5993TIP3    H139470   0.832   4.381  12.428  0.3518  1.8468 -0.1101
 5993TIP3    H239471   0.928   4.338  12.319 -1.1147 -0.6990 -0.4784
 5994TIP3   OH239472   4.095   0.598   5.283 -0.2537 -0.0652 -0.6063
 5994TIP3    H139473   4.040   0.562   5.214 -1.2749  0.0620  0.1148
 5994TIP3    H239474   4.047   0.675   5.314  0.2028 -0.1001  0.2087
 5995TIP3   OH239475   5.647   4.013  12.984  0.5487 -0.6127 -0.6134
 5995TIP3    H139476   5.718   4.005  13.048  1.0799  0.4981 -1.0326
 5995TIP3    H239477   5.643   3.927  12.943  1.4544 -0.7898 -0.3699
 5996TIP3   OH239478   4.156   5.558  15.831 -0.0330  0.1298  0.1688
 5996TIP3    H139479   4.217   5.487  15.812  1.6590  1.6390 -0.2488
 5996TIP3    H239480   4.160   5.569  15.926  0.7857  0.5811  0.0888
 5997TIP3   OH239481   4.750   6.171  13.014  0.0991 -0.4606  0.2443
 5997TIP3    H139482   4.678   6.142  13.071  0.3177  0.5718  1.0664
 5997TIP3    H239483   4.765   6.262  13.038  0.9088 -0.3113 -0.7486
 5998TIP3   OH239484   1.086   0.246  17.232 -0.5470  0.0880  0.0254
 5998TIP3    H139485   1.101   0.214  17.321  1.3636  1.6755  0.3615
 5998TIP3    H239486   1.010   0.304  17.241 -1.1388 -0.7220  0.3504
 5999TIP3   OH239487   4.442   1.842  14.041 -0.0202  0.5233 -0.1362
 5999TIP3    H139488   4.467   1.795  13.961  1.3375  0.9211  0.0387
 5999TIP3    H239489   4.493   1.923  14.038 -0.6853  0.9840  0.6673
 6000TIP3   OH239490   0.936   4.253  14.073 -0.6939 -0.1237  0.1523
 6000TIP3    H139491   0.929   4.163  14.106  1.8838 -0.6777 -0.5654
 6000TIP3    H239492   0.893   4.250  13.988 -2.1257 -0.2003  0.8465
 6001TIP3   OH239493   4.485   3.215  10.760 -0.3397 -0.2322  0.1493
 6001TIP3    H139494   4.566   3.179  10.796 -0.3376  0.0930  0.4779
 6001TIP3    H239495   4.511   3.255  10.678 -0.3661 -1.0874 -0.2889
 6002TIP3   OH239496   2.858   2.342   5.474 -0.3480 -0.3749  0.3145
 6002TIP3    H139497   2.879   2.375   5.387 -0.7667  0.0290  0.3635
 6002TIP3    H239498   2.787   2.279   5.459 -1.0092  0.3301  0.4551
 6003TIP3   OH239499   5.542   3.326  15.259 -0.2879 -0.3743  0.1850
 6003TIP3    H139500   5.584   3.302  15.342 -0.4075 -0.6177  0.1755
 6003TIP3    H239501   5.481   3.396  15.282  1.1241  0.9731 -0.0228
 6004TIP3   OH239502   4.748   5.411   2.781  0.5470  0.1138  0.6203
 6004TIP3    H139503   4.722   5.436   2.692  1.0803  0.3861  0.5348
 6004TIP3    H239504   4.752   5.315   2.779  0.2750  0.1051  0.4324
 6005TIP3   OH239505   1.140   0.132   4.122  0.1395  0.3595  0.1992
 6005TIP3    H139506   1.192   0.136   4.202  1.0177  1.7980 -0.4129
 6005TIP3    H239507   1.051   0.117   4.152  0.5963 -0.1128  1.3794
 6006TIP3   OH239508   1.359   6.671   1.324 -0.3142  0.1029 -0.5799
 6006TIP3    H139509   1.450   6.694   1.343  0.0062 -2.2664  1.2254
 6006TIP3    H239510   1.339   6.718   1.243  1.3561  3.4090  0.7395
 6007TIP3   OH239511   2.830   5.952   1.947  0.2368 -0.2767 -0.2173
 6007TIP3    H139512   2.816   6.010   2.021 -0.6981 -0.0074 -0.5820
 6007TIP3    H239513   2.834   5.864   1.985 -3.0401 -0.4761 -0.0165
 6008TIP3   OH239514   0.521   6.416  12.558 -0.1554 -0.3093 -0.3930
 6008TIP3    H139515   0.587   6.438  12.493 -0.8552  0.2653 -0.9247
 6008TIP3    H239516   0.566   6.424  12.642  0.3441  0.4832 -0.7231
 6009TIP3   OH239517   2.738   0.524   3.102 -0.1833 -0.1036 -0.0583
 6009TIP3    H139518   2.745   0.540   3.196 -1.4194 -0.6108  0.1356
 6009TIP3    H239519   2.655   0.565   3.077  0.4893  0.7114 -1.0978
 6010TIP3   OH239520   0.222   0.960  16.850  0.4189  0.2716  0.8602
 6010TIP3    H139521   0.279   0.995  16.918  3.2808 -0.5355 -0.9428
 6010TIP3    H239522   0.210   1.033  16.789 -0.0213  0.2707  0.9423
 6011TIP3   OH239523   0.134   4.532  13.077  0.2567 -0.1426 -0.6043
 6011TIP3    H139524   0.098   4.483  13.150  1.4931 -1.7229 -0.9887
 6011TIP3    H239525   0.212   4.575  13.113 -0.6307  1.3172 -0.3551
 6012TIP3   OH239526   0.893   5.032   6.165  0.5639  0.2411 -0.3994
 6012TIP3    H139527   0.892   5.053   6.259  0.8319  2.1742 -0.7775
 6012TIP3    H239528   0.836   4.956   6.156 -1.6142  1.6021  1.0010
 6013TIP3   OH239529   1.871   4.081  14.780 -0.3215 -0.5294  0.5558
 6013TIP3    H139530   1.825   4.141  14.838  2.8088  1.6798  1.0310
 6013TIP3    H239531   1.858   4.117  14.692 -0.7718 -0.8087  0.5093
 6014TIP3   OH239532   5.058   1.647  11.366 -0.1655  0.3871 -0.0188
 6014TIP3    H139533   5.037   1.705  11.439 -1.4311  1.5592 -1.2605
 6014TIP3    H239534   5.035   1.697  11.288 -0.1269 -1.3288 -1.1840
 6015TIP3   OH239535   5.552   3.640   2.694 -0.3775 -0.5522  0.1907
 6015TIP3    H139536   5.635   3.684   2.674 -1.6140  0.8365 -2.6099
 6015TIP3    H239537   5.550   3.565   2.634 -1.1304 -0.5627  0.2237
 6016TIP3   OH239538   4.179   3.389  12.430  0.9158  0.0935  0.7874
 6016TIP3    H139539   4.228   3.467  12.403  0.6256 -0.1554 -0.5263
 6016TIP3    H239540   4.157   3.345  12.348 -0.7301 -0.2769  1.3979
 6017TIP3   OH239541   0.106   5.400  13.470  0.3550 -0.4873  0.5987
 6017TIP3    H139542   0.043   5.335  13.500  0.2791 -0.8781 -0.3721
 6017TIP3    H239543   0.140   5.365  13.388  1.0797  0.2104  0.5822
 6018TIP3   OH239544   3.252   4.673  12.924 -0.6592 -0.4345  0.1795
 6018TIP3    H139545   3.208   4.747  12.963  1.1496 -0.3128  2.1610
 6018TIP3    H239546   3.284   4.621  12.998  1.0911 -1.3399 -1.1261
 6019TIP3   OH239547   5.610   5.222   4.056  0.0195 -0.3522 -0.4024
 6019TIP3    H139548   5.589   5.310   4.024 -0.0412 -0.8827 -1.8898
 6019TIP3    H239549   5.525   5.181   4.074  0.0580  0.0961  0.9860
 6020TIP3   OH239550   5.206   2.682  14.166  0.0766  0.1865  0.0811
 6020TIP3    H139551   5.222   2.726  14.250 -1.2389 -0.2423  0.5830
 6020TIP3    H239552   5.171   2.596  14.191  1.0507 -0.5282 -0.9037
 6021TIP3   OH239553   1.782   4.183  12.647 -0.0573 -0.0442  0.6049
 6021TIP3    H139554   1.827   4.139  12.719 -0.1532  1.3311  1.5334
 6021TIP3    H239555   1.799   4.276  12.661 -0.9049  0.3180 -0.5971
 6022TIP3   OH239556   0.557   5.890   1.243 -0.3033 -0.2116  0.0300
 6022TIP3    H139557   0.569   5.816   1.303 -0.2348 -0.5390 -0.3855
 6022TIP3    H239558   0.487   5.942   1.284  0.7702  0.3939  1.1797
 6023TIP3   OH239559   6.562   6.501   5.762 -0.1352  0.3454  0.8033
 6023TIP3    H139560   6.562   6.440   5.836 -0.0068 -0.8038 -0.1019
 6023TIP3    H239561   6.654   6.507   5.737 -0.2669  0.0310  0.2124
 6024TIP3   OH239562   5.214   4.267   1.742 -0.3959 -0.3771 -0.0528
 6024TIP3    H139563   5.133   4.293   1.786 -0.4869  1.1361 -1.0534
 6024TIP3    H239564   5.187   4.239   1.655  0.2159  1.1426 -0.7719
 6025TIP3   OH239565   5.905   0.414   4.173 -0.0864 -0.3057  0.3114
 6025TIP3    H139566   5.976   0.374   4.122 -0.6586 -2.2147  0.8939
 6025TIP3    H239567   5.826   0.371   4.140 -0.5912 -0.7293  1.9604
 6026TIP3   OH239568   1.299   3.725  11.699 -0.3996  0.4412 -0.2032
 6026TIP3    H139569   1.317   3.800  11.756 -0.0534  1.5272 -1.6782
 6026TIP3    H239570   1.385   3.688  11.679 -0.3099  1.3560 -1.6581
 6027TIP3   OH239571   0.227   1.962   4.010 -0.2482  0.3375 -0.4050
 6027TIP3    H139572   0.247   1.982   3.919  0.7677 -0.7952 -0.4539
 6027TIP3    H239573   0.159   1.895   4.006  1.2916 -1.2865 -0.4113
 6028TIP3   OH239574   0.636   2.079   3.807 -0.4891  0.7022 -0.0645
 6028TIP3    H139575   0.631   2.159   3.755  0.6886  0.4409 -0.6204
 6028TIP3    H239576   0.635   2.008   3.743 -1.6872  0.2420  0.4298
 6029TIP3   OH239577   6.527   1.634  13.008  0.5751 -0.1490  0.2352
 6029TIP3    H139578   6.522   1.566  13.075 -1.5850 -1.6380 -1.2843
 6029TIP3    H239579   6.476   1.707  13.043  0.9227 -0.2365  0.9245
 6030TIP3   OH239580   2.378   5.693   4.892  0.8428 -0.3092 -0.4747
 6030TIP3    H139581   2.416   5.644   4.965  2.0453  0.2977 -0.6630
 6030TIP3    H239582   2.367   5.628   4.822  2.4987 -0.3347 -0.7533
 6031TIP3   OH239583   5.109   3.967   2.497  0.0205  0.1167  0.2302
 6031TIP3    H139584   5.103   3.921   2.581  0.5366  1.7142  1.1706
 6031TIP3    H239585   5.197   3.949   2.466  0.2374  0.4985  0.6196
 6032TIP3   OH239586   0.479   0.426   5.040 -0.3589  0.1756  0.2903
 6032TIP3    H139587   0.420   0.354   5.058 -0.2680  0.0868  0.2376
 6032TIP3    H239588   0.560   0.404   5.086  0.5242 -0.9717 -1.6478
 6033TIP3   OH239589   0.499   1.690  11.452  0.3314 -0.0289  0.7115
 6033TIP3    H139590   0.531   1.600  11.444  0.2634  0.0366 -0.4086
 6033TIP3    H239591   0.578   1.743  11.464  0.3825 -0.2041  1.2080
 6034TIP3   OH239592   4.209   2.850  11.026  0.3770 -0.8997  0.1023
 6034TIP3    H139593   4.131   2.807  10.990 -1.3739  1.6370  0.5887
 6034TIP3    H239594   4.213   2.822  11.117 -0.1308 -0.8314  0.1462
 6035TIP3   OH239595   4.327   0.925   4.580  0.3937 -0.3282 -0.2245
 6035TIP3    H139596   4.358   0.908   4.492 -1.9802 -2.5176 -0.7464
 6035TIP3    H239597   4.233   0.905   4.578  0.6670 -2.9948  3.3260
 6036TIP3   OH239598   5.409   4.594  13.263 -0.0487 -0.3270  0.5705
 6036TIP3    H139599   5.459   4.673  13.243 -0.5956  0.2691  1.4884
 6036TIP3    H239600   5.319   4.616  13.238 -0.7243  0.3702  3.3345
 6037TIP3   OH239601   5.004   5.078  13.733  0.2475  0.3907 -0.0268
 6037TIP3    H139602   4.922   5.084  13.684  0.6295  1.3487 -0.5745
 6037TIP3    H239603   5.043   5.165  13.726  0.8193  0.2486  1.1090
 6038TIP3   OH239604   2.795   1.718  11.437  0.1701 -0.2795  0.0523
 6038TIP3    H139605   2.822   1.690  11.350 -1.1703 -0.0803 -0.4468
 6038TIP3    H239606   2.817   1.811  11.439 -1.2737  0.1015 -0.6984
 6039TIP3   OH239607   2.973   3.482   3.081  0.5731  0.3123  0.1108
 6039TIP3    H139608   3.000   3.395   3.112  0.0492  0.3162  0.5959
 6039TIP3    H239609   2.965   3.534   3.161  2.3044  1.2308 -0.2792
 6040TIP3   OH239610   0.187   5.369  11.570 -0.1899  0.2651  0.2009
 6040TIP3    H139611   0.213   5.311  11.498  0.6228  0.2080  0.5241
 6040TIP3    H239612   0.153   5.310  11.637 -0.2360  0.2484  0.1630
 6041TIP3   OH239613   6.661   3.941  17.246 -0.3820  0.0586 -0.0931
 6041TIP3    H139614   6.709   3.868  17.205  0.2456  0.1450  0.4762
 6041TIP3    H239615   6.573   3.907  17.259 -0.9889  0.4074 -2.6110
 6042TIP3   OH239616   0.212   1.984  13.167 -0.0497 -0.2982 -0.4065
 6042TIP3    H139617   0.271   2.018  13.100  0.3397 -0.2943 -0.0605
 6042TIP3    H239618   0.191   1.895  13.137 -1.0873  0.2238 -1.3191
 6043TIP3   OH239619   2.460   5.128  17.179  0.3022  0.5857  0.0808
 6043TIP3    H139620   2.496   5.149  17.093 -1.0382 -2.3257 -1.3467
 6043TIP3    H239621   2.365   5.132  17.168  0.0826 -0.9598  1.0480
 6044TIP3   OH239622   2.721   4.655  15.853  0.1637  0.1436 -0.0111
 6044TIP3    H139623   2.709   4.734  15.906  0.6946  0.6681 -0.6733
 6044TIP3    H239624   2.670   4.588  15.900  0.0397  0.7686  0.7736
 6045TIP3   OH239625   6.150   5.201  11.334 -0.5935  0.5898 -0.2695
 6045TIP3    H139626   6.102   5.188  11.252 -1.3475 -1.7753  0.4635
 6045TIP3    H239627   6.088   5.173  11.402  1.4075 -1.6430  0.7805
 6046TIP3   OH239628   6.774   2.924   4.164 -0.6178  0.0555 -0.3096
 6046TIP3    H139629   6.855   2.975   4.174 -1.1315  1.0407 -1.0088
 6046TIP3    H239630   6.799   2.848   4.112  0.0164 -0.0454  0.1338
 6047TIP3   OH239631   2.432   2.265  17.074 -0.3714 -0.1591 -0.4296
 6047TIP3    H139632   2.432   2.196  17.140  1.2897 -1.2920 -1.5354
 6047TIP3    H239633   2.417   2.219  16.991  0.3957  0.8285 -1.1440
 6048TIP3   OH239634   4.029   0.502   4.813  0.1806  0.7950 -0.1910
 6048TIP3    H139635   4.090   0.430   4.829 -0.3643  0.3296 -0.1561
 6048TIP3    H239636   4.080   0.581   4.830  0.9082  0.4342 -0.6150
 6049TIP3   OH239637   6.038   0.147   1.880  0.1755 -0.4636 -0.7124
 6049TIP3    H139638   5.958   0.095   1.886 -0.4126  0.3918 -0.9455
 6049TIP3    H239639   6.048   0.187   1.966 -0.6916  0.8936 -1.2010
 6050TIP3   OH239640   4.949   6.364   1.629  0.2294  0.5056  0.4604
 6050TIP3    H139641   4.921   6.272   1.632 -4.1633  1.6044  0.5612
 6050TIP3    H239642   4.969   6.386   1.720  0.9012 -0.2058  0.4948
 6051TIP3   OH239643   4.663   0.937  11.706  0.5492 -0.2788 -0.3224
 6051TIP3    H139644   4.726   0.867  11.692 -0.5696 -0.9348 -2.3415
 6051TIP3    H239645   4.650   0.977  11.620 -0.7264  0.7779  0.3131
 6052TIP3   OH239646   1.026   0.776   0.033 -0.6285 -0.3861 -0.4448
 6052TIP3    H139647   1.063   0.702   0.080  1.8205 -0.7318 -2.7022
 6052TIP3    H239648   1.022   0.748  -0.058 -2.9110  1.0879 -0.8969
 6053TIP3   OH239649   2.467   0.723  13.977  0.3976  0.3693 -0.3016
 6053TIP3    H139650   2.425   0.641  14.003 -0.2854  0.8536  0.1271
 6053TIP3    H239651   2.529   0.696  13.909  1.0031 -0.6659  0.6193
 6054TIP3   OH239652   6.257   3.608   0.896 -0.0197  0.0825 -0.2347
 6054TIP3    H139653   6.196   3.602   0.822 -0.3360  0.3446  0.0028
 6054TIP3    H239654   6.236   3.532   0.950  0.2216 -0.1174 -0.4179
 6055TIP3   OH239655   0.538   5.252  13.801 -0.1988  0.6575  0.2253
 6055TIP3    H139656   0.550   5.306  13.879 -0.6064  0.2740  0.5552
 6055TIP3    H239657   0.489   5.308  13.741 -0.3384  0.7670  0.4414
 6056TIP3   OH239658   1.099   0.053  15.537 -0.2035  0.4130 -0.0044
 6056TIP3    H139659   1.111   0.083  15.627 -1.6923  1.0377  0.0258
 6056TIP3    H239660   1.148   0.116  15.484  0.2926  0.3160  0.3362
 6057TIP3   OH239661   4.248   6.197  12.409 -0.0272 -0.0917  0.2518
 6057TIP3    H139662   4.198   6.270  12.372 -2.0884 -0.3372  2.2992
 6057TIP3    H239663   4.227   6.198  12.502  2.3909 -1.4114  0.8976
 6058TIP3   OH239664   5.041   3.665   1.701  0.2555  0.2775 -0.3118
 6058TIP3    H139665   5.082   3.608   1.766 -1.6930  0.3132  1.0335
 6058TIP3    H239666   5.100   3.740   1.695  1.5160 -0.6714 -0.1349
 6059TIP3   OH239667   0.461   4.397  13.168  0.9955 -0.5465  0.1858
 6059TIP3    H139668   0.499   4.473  13.124 -1.0836  0.1358 -0.5446
 6059TIP3    H239669   0.448   4.332  13.098  0.0632 -0.4367  0.2437
 6060TIP3   OH239670   0.291   1.491   5.090 -0.1240  0.5646  0.3089
 6060TIP3    H139671   0.315   1.584   5.085  0.0037  0.5206  0.1153
 6060TIP3    H239672   0.281   1.464   4.999  1.1168  0.0516  0.3122
 6061TIP3   OH239673   3.349   2.940  12.978 -0.6614 -0.5255  0.1206
 6061TIP3    H139674   3.263   2.937  12.936 -0.2815  0.4407 -0.7607
 6061TIP3    H239675   3.409   2.901  12.914 -0.6169 -2.4800  1.2723
 6062TIP3   OH239676   0.001   4.363  12.880 -0.0184  0.0546  0.1579
 6062TIP3    H139677   0.036   4.407  12.958  0.1666  1.2199 -0.5527
 6062TIP3    H239678   0.061   4.290  12.865 -0.6909 -0.8639  1.7301
 6063TIP3   OH239679   6.092   2.894  12.848  0.1809 -0.3024 -0.5475
 6063TIP3    H139680   6.111   2.809  12.889 -0.4080  0.2945  1.0190
 6063TIP3    H239681   6.007   2.920  12.884  0.0410  0.6579 -1.5195
 6064TIP3   OH239682   2.089   3.469   1.368 -0.3547 -0.5178  0.1671
 6064TIP3    H139683   2.119   3.534   1.304 -0.2933 -1.7737 -1.1372
 6064TIP3    H239684   1.998   3.453   1.345 -1.5214  1.6496  2.7285
 6065TIP3   OH239685   1.387   6.597   3.670 -0.2861  0.4449  0.4061
 6065TIP3    H139686   1.473   6.639   3.667 -0.5597  1.3452  2.8580
 6065TIP3    H239687   1.341   6.633   3.594  0.0886  3.3747  1.4116
 6066TIP3   OH239688   2.902   5.563  16.165 -0.5076 -0.0842 -0.3572
 6066TIP3    H139689   2.895   5.554  16.260 -1.9067 -1.2088 -0.5431
 6066TIP3    H239690   2.976   5.624  16.152  0.8407 -1.2627  1.3848
 6067TIP3   OH239691   5.098   0.277  14.571 -0.1872 -0.2236 -0.0322
 6067TIP3    H139692   5.191   0.255  14.565 -0.4432 -1.1120 -1.1922
 6067TIP3    H239693   5.090   0.362  14.528  0.3630  0.7939  1.8065
 6068TIP3   OH239694   3.675   6.396   0.380  0.2586 -0.7362  0.1199
 6068TIP3    H139695   3.752   6.360   0.423 -0.0974  0.1194  1.5527
 6068TIP3    H239696   3.669   6.348   0.297  2.2372 -0.9149  0.0224
 6069TIP3   OH239697   3.471   6.762   1.454  0.2819  0.2593 -0.8120
 6069TIP3    H139698   3.442   6.853   1.450  0.0432  0.6063  3.5832
 6069TIP3    H239699   3.514   6.755   1.539  2.2050 -3.2898 -1.8710
 6070TIP3   OH239700   3.200   4.583   2.619 -0.3266  0.2715  0.1062
 6070TIP3    H139701   3.168   4.621   2.701 -0.1712  1.6777 -0.4511
 6070TIP3    H239702   3.244   4.656   2.575 -0.5445 -0.4193 -1.2993
 6071TIP3   OH239703   5.109   3.740   1.422 -0.0544 -0.4372 -0.3481
 6071TIP3    H139704   5.052   3.745   1.499  2.3220  4.1586  1.5150
 6071TIP3    H239705   5.196   3.763   1.455  1.7389 -1.2449 -3.9916
 6072TIP3   OH239706   3.643   0.946  13.514  0.0458 -0.0632 -0.2016
 6072TIP3    H139707   3.723   0.962  13.564  1.4369 -2.7889 -1.3184
 6072TIP3    H239708   3.673   0.902  13.434 -2.3977  0.8978 -1.7597
 6073TIP3   OH239709   0.062   6.092   2.953  0.3259 -1.4297  0.0562
 6073TIP3    H139710  -0.012   6.141   2.988  1.7971 -0.7545  2.4914
 6073TIP3    H239711   0.038   6.001   2.966  0.3648 -1.2152  2.0420
 6074TIP3   OH239712   2.118   4.831  12.112  0.0347  0.0384 -0.0809
 6074TIP3    H139713   2.195   4.848  12.166 -0.3166 -2.2734  1.2843
 6074TIP3    H239714   2.148   4.840  12.022  2.5152 -2.7804  0.3138
 6075TIP3   OH239715   0.769   2.283  16.199 -0.6740  0.0017  0.1906
 6075TIP3    H139716   0.701   2.237  16.149 -0.7266 -1.2097  1.3267
 6075TIP3    H239717   0.722   2.355  16.241 -1.3912 -1.0986  1.3381
 6076TIP3   OH239718   2.062   3.232   3.438 -0.6788  0.0114 -1.0062
 6076TIP3    H139719   2.128   3.201   3.501  0.1046 -0.9402 -2.2343
 6076TIP3    H239720   1.983   3.242   3.490 -0.2392 -1.4111  0.0292
 6077TIP3   OH239721   6.730   5.999   1.610 -0.4140 -0.2637 -0.3284
 6077TIP3    H139722   6.655   5.964   1.657 -2.4023  3.9896  0.0299
 6077TIP3    H239723   6.695   6.029   1.526  0.4085  3.1525  0.4050
 6078TIP3   OH239724   4.238   4.058  13.115 -0.3320 -0.0583 -0.4662
 6078TIP3    H139725   4.181   4.013  13.052 -1.0561 -0.6927  0.6052
 6078TIP3    H239726   4.282   4.125  13.064 -0.3802 -0.9934 -1.7974
 6079TIP3   OH239727   3.383   6.520  12.504  1.0481 -0.6170 -0.1676
 6079TIP3    H139728   3.382   6.430  12.471 -0.3036 -0.5569 -0.3075
 6079TIP3    H239729   3.397   6.511  12.599 -1.8598 -1.1627  0.2896
 6080TIP3   OH239730   2.402   4.518   0.566 -0.0090 -0.5819  0.4950
 6080TIP3    H139731   2.428   4.569   0.643  0.0929 -0.9396  0.6994
 6080TIP3    H239732   2.406   4.427   0.595  1.5026 -0.8158 -0.3843
 6081TIP3   OH239733   6.553   2.708   5.069  0.2022 -0.3144  0.0058
 6081TIP3    H139734   6.605   2.771   5.019  2.6749 -2.6029 -0.5393
 6081TIP3    H239735   6.468   2.708   5.026  0.2059  2.3389 -0.1691
 6082TIP3   OH239736   5.453   4.516   3.957  0.3126  0.6976 -0.0939
 6082TIP3    H139737   5.443   4.488   4.048  1.3667 -1.4811 -0.5567
 6082TIP3    H239738   5.380   4.475   3.911  1.5506 -0.9691 -0.6926
 6083TIP3   OH239739   2.529   4.909   3.067  0.5987  0.2935 -0.1646
 6083TIP3    H139740   2.539   5.003   3.076  2.0138  0.3024 -1.4600
 6083TIP3    H239741   2.440   4.891   3.098  1.1789  1.6470  2.6561
 6084TIP3   OH239742   4.762   5.079  11.755  0.1158  0.1736  0.1517
 6084TIP3    H139743   4.752   5.159  11.806  0.0680  0.2147  0.0788
 6084TIP3    H239744   4.812   5.106  11.678 -1.4950  0.5396 -0.8222
 6085TIP3   OH239745   1.693   3.685  17.120  0.0465 -0.5801  0.9203
 6085TIP3    H139746   1.727   3.690  17.031  0.1968  1.9965  1.0299
 6085TIP3    H239747   1.682   3.777  17.146  0.5050 -1.2414  3.7464
 6086TIP3   OH239748   5.051   5.734   6.421 -0.4031 -0.1136  0.1582
 6086TIP3    H139749   5.032   5.797   6.491  0.6261  1.0109 -0.5440
 6086TIP3    H239750   5.097   5.784   6.355 -2.0741 -0.9537 -1.7543
 6087TIP3   OH239751   1.849   2.710   1.184  0.0064 -0.5669  0.0116
 6087TIP3    H139752   1.801   2.668   1.255 -1.5654  0.9135 -0.1271
 6087TIP3    H239753   1.938   2.675   1.192 -0.1730 -0.6547  2.5548
 6088TIP3   OH239754   1.860   0.866  14.732  0.0051  0.6745 -0.7107
 6088TIP3    H139755   1.930   0.815  14.692 -1.4665 -1.7804 -0.3818
 6088TIP3    H239756   1.808   0.897  14.659  0.8413  1.6744 -0.9080
 6089TIP3   OH239757   5.845   1.185  13.001 -0.2962  0.0290  0.0035
 6089TIP3    H139758   5.854   1.091  13.018 -1.8487  0.0235  1.1089
 6089TIP3    H239759   5.908   1.226  13.061  1.0817 -0.3058 -1.1686
 6090TIP3   OH239760   2.490   1.748  13.285 -0.3833 -0.8591 -0.2790
 6090TIP3    H139761   2.400   1.717  13.276 -1.5745  1.5792  1.9366
 6090TIP3    H239762   2.543   1.669  13.282 -2.9720 -2.9469  2.4497
 6091TIP3   OH239763   5.202   4.303   2.784  0.1266 -0.6914 -0.0387
 6091TIP3    H139764   5.177   4.348   2.865 -1.0357 -0.2062 -0.6518
 6091TIP3    H239765   5.298   4.299   2.788  0.1777  0.6709  0.6489
 6092TIP3   OH239766   4.916   4.231   2.418  0.4511 -0.4140 -0.5106
 6092TIP3    H139767   5.003   4.206   2.448 -0.0773 -1.0652  0.5516
 6092TIP3    H239768   4.879   4.282   2.490  0.4098  0.9821 -1.4761
 6093TIP3   OH239769   5.985   5.467   4.006  0.2885 -0.6863  0.5482
 6093TIP3    H139770   5.914   5.469   3.942 -1.4983 -1.2097  2.3942
 6093TIP3    H239771   6.050   5.528   3.971 -1.0439 -0.1778 -1.2338
 6094TIP3   OH239772   0.614   2.715   3.275 -0.5078 -0.0134 -0.5373
 6094TIP3    H139773   0.572   2.750   3.196 -1.1356 -0.3845 -0.3806
 6094TIP3    H239774   0.611   2.788   3.337  0.2111  0.3574 -0.9315
 6095TIP3   OH239775   0.822   4.950   5.471  0.3598 -0.2317  0.1061
 6095TIP3    H139776   0.895   4.889   5.482 -0.4401 -1.0681  1.0911
 6095TIP3    H239777   0.791   4.965   5.561  0.7716  1.9564 -0.0648
 6096TIP3   OH239778   4.044   4.706  13.831 -0.1845  0.2984  0.3327
 6096TIP3    H139779   4.003   4.620  13.820 -2.1256  1.1721  0.2420
 6096TIP3    H239780   4.057   4.714  13.925  1.6450 -0.7649  0.2130
 6097TIP3   OH239781   6.155   1.186   1.066 -0.2730  0.4407 -0.0464
 6097TIP3    H139782   6.219   1.195   0.996  0.9545 -0.0338  0.9817
 6097TIP3    H239783   6.070   1.197   1.022  0.4618  0.3464 -1.5614
 6098TIP3   OH239784   2.713   1.445  11.475  0.3437  0.0464  0.1638
 6098TIP3    H139785   2.628   1.478  11.444  0.9683  1.5078 -0.0708
 6098TIP3    H239786   2.767   1.523  11.483  1.1596 -0.6426  1.9837
 6099TIP3   OH239787   3.075   5.353   4.734 -0.5205 -0.7613 -0.1203
 6099TIP3    H139788   2.995   5.399   4.708  0.0237  0.0306 -0.4512
 6099TIP3    H239789   3.140   5.381   4.670  0.4802  0.0630  1.2073
 6100TIP3   OH239790   1.741   4.639   2.890 -0.1179  0.0908  0.1371
 6100TIP3    H139791   1.771   4.548   2.895  0.6861  0.4217  2.4116
 6100TIP3    H239792   1.699   4.655   2.974  0.3685  2.0340  0.0493
 6101TIP3   OH239793   5.539   2.586   5.650  0.0881 -0.0761  0.2915
 6101TIP3    H139794   5.605   2.569   5.717 -0.6390 -0.0787  1.0252
 6101TIP3    H239795   5.506   2.673   5.670  0.7276  0.4449 -0.8226
 6102TIP3   OH239796   0.996   3.578  11.633 -0.3843  0.1019  0.1086
 6102TIP3    H139797   1.036   3.634  11.700 -0.9808  3.1477 -1.8749
 6102TIP3    H239798   1.065   3.566  11.567 -0.9111  0.2833 -0.4822
 6103TIP3   OH239799   4.701   6.562  16.994 -0.4960 -0.8157  0.1440
 6103TIP3    H139800   4.784   6.516  17.006 -0.6929 -0.8119  1.7159
 6103TIP3    H239801   4.642   6.496  16.956 -0.2851 -1.3747  0.7594
 6104TIP3   OH239802   1.713   2.279  16.140  0.0913 -0.3602 -0.2258
 6104TIP3    H139803   1.737   2.200  16.091  0.0104 -1.3634  1.2859
 6104TIP3    H239804   1.649   2.322  16.084 -1.8489 -2.7308 -0.0294
 6105TIP3   OH239805   6.558   3.472   6.091  0.3685  0.9659 -0.5327
 6105TIP3    H139806   6.526   3.394   6.046 -1.3235  1.2241  0.1366
 6105TIP3    H239807   6.647   3.450   6.118  0.0939 -0.5492 -0.7731
 6106TIP3   OH239808   0.713   0.463   3.762  0.3598  0.0481 -0.1211
 6106TIP3    H139809   0.670   0.526   3.819 -0.1170  0.1112 -0.5432
 6106TIP3    H239810   0.674   0.379   3.785 -0.3162  0.1664 -0.8053
 6107TIP3   OH239811   0.709   2.447   2.258  0.2566  0.1204  0.0506
 6107TIP3    H139812   0.754   2.371   2.295  1.2371  1.1747  1.0902
 6107TIP3    H239813   0.770   2.480   2.192  1.0146  1.4717  1.3667
 6108TIP3   OH239814   2.364   3.501   3.533 -0.7057  0.9199 -0.2141
 6108TIP3    H139815   2.348   3.589   3.570 -0.0776  0.6982  0.6192
 6108TIP3    H239816   2.325   3.442   3.598  1.0487  0.4884  0.5027
 6109TIP3   OH239817   5.920   0.191   5.981 -0.6614  0.0235  0.6073
 6109TIP3    H139818   5.915   0.284   6.004  0.3168  0.3584 -0.4376
 6109TIP3    H239819   5.866   0.183   5.902 -0.9851 -0.3686  0.8619
 6110TIP3   OH239820   1.732   0.482  11.746 -0.9466  0.5514 -0.6306
 6110TIP3    H139821   1.708   0.556  11.689 -0.1705  1.9119  0.7457
 6110TIP3    H239822   1.656   0.470  11.803  0.1666  2.6359  1.4573
 6111TIP3   OH239823   6.664   3.986   1.085 -0.1626  0.4860  0.2321
 6111TIP3    H139824   6.597   4.012   1.149 -0.7774 -0.2269 -0.1006
 6111TIP3    H239825   6.627   3.909   1.043  0.0167  1.2288 -1.3298
 6112TIP3   OH239826   2.279   4.122  11.502 -0.4560  0.1709 -0.4087
 6112TIP3    H139827   2.362   4.118  11.550 -0.7366 -0.5809  0.0532
 6112TIP3    H239828   2.270   4.035  11.463 -0.9587  0.2904 -0.5692
 6113TIP3   OH239829   2.320   2.866  13.346 -0.6916  0.1608 -0.4230
 6113TIP3    H139830   2.345   2.792  13.401 -2.1081  0.6919  1.0393
 6113TIP3    H239831   2.343   2.840  13.257 -0.7096 -1.8258  0.1089
 6114TIP3   OH239832   5.274   3.414   5.061  0.0045 -0.5223  0.0217
 6114TIP3    H139833   5.194   3.466   5.068  0.0560 -0.2735 -1.1438
 6114TIP3    H239834   5.302   3.424   4.971  0.3348 -2.1030 -0.0891
 6115TIP3   OH239835   6.559   5.443  13.681 -0.0586  0.1301 -0.1627
 6115TIP3    H139836   6.550   5.359  13.726  0.4314  0.7167  1.0754
 6115TIP3    H239837   6.643   5.477  13.711 -0.9795  1.8128  0.6514
 6116TIP3   OH239838   3.149   0.394   1.262 -0.3759  0.0559 -0.1413
 6116TIP3    H139839   3.124   0.351   1.180 -0.8504  0.4253 -0.1934
 6116TIP3    H239840   3.197   0.472   1.234  1.4281 -0.9636 -0.0398
 6117TIP3   OH239841   6.703   3.008  15.536 -0.0498  0.7564 -0.3976
 6117TIP3    H139842   6.678   2.917  15.552 -1.4488  0.8869 -1.5860
 6117TIP3    H239843   6.778   3.023  15.593  0.6111 -1.3289 -0.6347
 6118TIP3   OH239844   3.645   4.367   5.237 -0.1692 -0.2334  0.7683
 6118TIP3    H139845   3.724   4.327   5.202 -1.2596 -0.3531 -1.7689
 6118TIP3    H239846   3.676   4.426   5.306  1.8884 -1.8189  1.3079
 6119TIP3   OH239847   3.596   5.181   4.520  0.7525 -0.1156  0.4010
 6119TIP3    H139848   3.537   5.109   4.498  0.0690  0.6218 -0.2840
 6119TIP3    H239849   3.567   5.253   4.463  0.9962  0.8877  1.5159
 6120TIP3   OH239850   4.376   6.259   5.550 -0.2535 -0.3407  0.2871
 6120TIP3    H139851   4.281   6.253   5.536 -0.0842 -0.7858 -0.7354
 6120TIP3    H239852   4.390   6.349   5.579 -0.9883 -0.2808  0.4943
 6121TIP3   OH239853   2.101   3.310  12.433  0.3027 -0.1276 -0.2913
 6121TIP3    H139854   2.145   3.282  12.513  0.9693  0.4315 -0.4504
 6121TIP3    H239855   2.134   3.399  12.417 -1.5943  0.7177  0.1036
 6122TIP3   OH239856   3.570   3.225   1.796 -0.2718  0.4448  0.6386
 6122TIP3    H139857   3.578   3.226   1.701 -0.7470 -1.7752  0.5241
 6122TIP3    H239858   3.623   3.300   1.825  0.3838  0.8052 -1.3085
 6123TIP3   OH239859   3.033   1.220  15.264  0.4393 -0.5213 -0.8166
 6123TIP3    H139860   3.123   1.196  15.243  0.1982 -2.3465 -0.0106
 6123TIP3    H239861   3.040   1.276  15.341  0.8537 -2.2185  0.4434
 6124TIP3   OH239862   4.652   0.970  16.936  0.1868  0.2406  0.2289
 6124TIP3    H139863   4.715   0.934  16.998  0.6942  0.6984 -0.0166
 6124TIP3    H239864   4.667   0.923  16.855  1.0806  1.2198 -0.1886
 6125TIP3   OH239865   4.793   4.168  16.591 -0.4697  0.0081  0.1821
 6125TIP3    H139866   4.718   4.157  16.533 -0.9246 -0.7533  0.8916
 6125TIP3    H239867   4.804   4.082  16.633  0.6049  0.1993  0.3150
 6126TIP3   OH239868   2.002   5.447   1.339 -0.0163  0.3125 -0.6087
 6126TIP3    H139869   1.959   5.369   1.305 -0.9481  0.1288  0.8776
 6126TIP3    H239870   1.989   5.442   1.434  1.3096  1.4512 -0.3303
 6127TIP3   OH239871   5.441   5.755   4.645  0.1447 -0.3033 -0.0669
 6127TIP3    H139872   5.428   5.681   4.704  0.4168 -0.8837 -0.7260
 6127TIP3    H239873   5.486   5.821   4.699  1.2120 -1.1743  0.1412
 6128TIP3   OH239874   1.721   0.398  15.020  0.1142 -0.5795  0.7890
 6128TIP3    H139875   1.741   0.340  15.094  2.6659  0.0143  0.6839
 6128TIP3    H239876   1.698   0.482  15.060  0.5181 -0.5337  0.9290
 6129TIP3   OH239877   1.983   1.481   2.281 -0.1187  0.5877 -0.2322
 6129TIP3    H139878   1.995   1.455   2.190  1.8333  2.0685 -0.4720
 6129TIP3    H239879   1.994   1.576   2.280 -2.0163  0.8991  1.2987
 6130TIP3   OH239880   0.846   2.894  13.027 -0.0131 -0.0070  0.1586
 6130TIP3    H139881   0.843   2.847  13.110  1.0340 -1.0571 -0.3575
 6130TIP3    H239882   0.877   2.829  12.964 -0.9849  0.7047 -1.1120
 6131TIP3   OH239883   3.839   6.055  14.506  0.5862  0.1596  0.3755
 6131TIP3    H139884   3.781   6.080  14.434 -0.3181 -3.1347 -0.2116
 6131TIP3    H239885   3.803   6.099  14.583  0.5585  2.3880 -0.8286
 6132TIP3   OH239886   6.193   2.002  15.588  0.5439 -0.4314  0.1411
 6132TIP3    H139887   6.203   2.097  15.587  0.7802 -0.4269  1.3897
 6132TIP3    H239888   6.109   1.986  15.545  0.9813  0.2565 -1.0158
 6133TIP3   OH239889   2.769   5.466   2.561  0.3096  0.3764 -0.3072
 6133TIP3    H139890   2.729   5.552   2.557 -0.3958  0.0744  0.0685
 6133TIP3    H239891   2.852   5.475   2.514  0.3802  1.3291 -0.0037
 6134TIP3   OH239892   3.486   2.388  13.056 -0.2645  0.4535 -0.3468
 6134TIP3    H139893   3.460   2.370  13.146  0.8746 -0.5238 -0.1924
 6134TIP3    H239894   3.454   2.477  13.039 -0.8179  0.5067  0.8829
 6135TIP3   OH239895   2.856   2.666  11.590  0.3838  0.0430 -0.0762
 6135TIP3    H139896   2.898   2.752  11.589  2.0510 -0.7083  0.8881
 6135TIP3    H239897   2.786   2.675  11.655  1.4707  0.2977  1.0974
 6136TIP3   OH239898   0.547   3.707  15.842  0.0752 -0.1547  0.4866
 6136TIP3    H139899   0.546   3.754  15.926  0.0603 -0.8604  0.8836
 6136TIP3    H239900   0.464   3.732  15.801  0.7013  1.3170  0.0369
 6137TIP3   OH239901   3.379   6.167  15.820 -0.2130  0.0642  0.0927
 6137TIP3    H139902   3.467   6.197  15.839 -0.5947 -0.1620  2.5594
 6137TIP3    H239903   3.328   6.247  15.809  0.4155  0.2007 -2.2816
 6138TIP3   OH239904   6.235   3.291  14.235  0.5554 -0.7792 -0.2030
 6138TIP3    H139905   6.241   3.325  14.324 -0.7660 -0.5718 -0.1726
 6138TIP3    H239906   6.257   3.198  14.244  4.4016 -0.0604 -0.3251
 6139TIP3   OH239907   3.201   0.740  15.877  0.3500 -0.4229 -0.5387
 6139TIP3    H139908   3.173   0.651  15.857 -1.5881  0.1288 -0.4838
 6139TIP3    H239909   3.125   0.794  15.857  0.3185  0.8649  2.5093
 6140TIP3   OH239910   3.293   6.784   6.133 -0.5629 -0.5325 -0.2442
 6140TIP3    H139911   3.252   6.786   6.047  1.4407 -1.1937 -1.2794
 6140TIP3    H239912   3.387   6.784   6.115 -0.0820 -1.1967  1.9316
 6141TIP3   OH239913   2.126   2.214  15.697  0.2432  0.5580  0.7999
 6141TIP3    H139914   2.135   2.126  15.659  0.4353  0.1348  1.7935
 6141TIP3    H239915   2.080   2.199  15.779  2.9426  0.9885  2.4851
 6142TIP3   OH239916   3.684   5.014  16.752  0.1345  0.1303 -0.1247
 6142TIP3    H139917   3.751   5.039  16.815  0.5726 -1.5729  0.1311
 6142TIP3    H239918   3.732   4.998  16.671 -0.2254  0.7400 -0.4684
 6143TIP3   OH239919   4.581   0.988  11.034 -0.2021 -0.7742  0.3143
 6143TIP3    H139920   4.662   1.004  11.083 -0.4214 -1.8128  1.0561
 6143TIP3    H239921   4.602   1.013  10.944  0.5858  0.0448  0.7059
 6144TIP3   OH239922   2.384   2.475   1.680  0.2290  0.0556  0.2598
 6144TIP3    H139923   2.453   2.413   1.657  0.5865  0.6871 -0.3965
 6144TIP3    H239924   2.315   2.421   1.718 -0.4190 -1.0794 -2.3171
 6145TIP3   OH239925   0.520   2.261   5.122 -0.6087 -0.1989 -0.6040
 6145TIP3    H139926   0.589   2.316   5.086 -2.6372  2.1819 -1.1371
 6145TIP3    H239927   0.492   2.306   5.201 -2.4789 -0.3247 -1.1518
 6146TIP3   OH239928   6.617   2.717   4.298  0.0961  0.1011 -0.7364
 6146TIP3    H139929   6.535   2.742   4.342 -0.0854 -0.9478 -0.4567
 6146TIP3    H239930   6.647   2.798   4.256 -0.7477  0.6538 -0.3056
 6147TIP3   OH239931   5.570   6.770   3.136  0.1682  0.5114 -0.0781
 6147TIP3    H139932   5.661   6.791   3.111  0.3202 -1.3082 -1.2469
 6147TIP3    H239933   5.521   6.849   3.115  1.2537  0.9996 -0.8758
 6148TIP3   OH239934   1.952   1.978  11.834 -0.2666 -0.6407 -0.5263
 6148TIP3    H139935   1.958   1.952  11.926  3.4424 -1.8553 -0.9513
 6148TIP3    H239936   1.957   2.074  11.836 -0.6158 -0.6258  0.5000
 6149TIP3   OH239937   6.627   2.947  12.326 -0.2867 -0.1690 -0.1131
 6149TIP3    H139938   6.632   2.855  12.354 -0.9940 -0.1660  0.0345
 6149TIP3    H239939   6.602   2.995  12.404 -1.8101 -0.0980 -0.6152
 6150TIP3   OH239940   5.393   1.813  12.309  0.3989 -0.9735  0.6143
 6150TIP3    H139941   5.385   1.784  12.219 -0.3594 -0.9960  0.6843
 6150TIP3    H239942   5.354   1.900  12.310 -2.3414 -2.0987  1.4827
 6151TIP3   OH239943   6.003   2.536   3.997  0.4908 -0.2287 -0.5473
 6151TIP3    H139944   6.023   2.451   3.957  0.1165  0.2957 -1.9209
 6151TIP3    H239945   5.911   2.529   4.022  0.8467 -0.7163  0.6746
 6152TIP3   OH239946   0.907   1.579   6.691 -0.0992  0.1468 -0.3372
 6152TIP3    H139947   0.968   1.626   6.634  0.1544 -0.2651 -0.4118
 6152TIP3    H239948   0.868   1.647   6.746  0.5247  0.3965 -0.2004
 6153TIP3   OH239949   2.944   6.540   2.571  0.1978  0.0271 -0.0753
 6153TIP3    H139950   2.936   6.628   2.534 -0.5047  0.1909  0.4495
 6153TIP3    H239951   2.890   6.485   2.515  2.1380 -0.4705 -1.5772
 6154TIP3   OH239952   6.127   0.334  10.639  0.6512  0.5365 -0.2889
 6154TIP3    H139953   6.048   0.366  10.596 -0.4827  0.5334  1.7188
 6154TIP3    H239954   6.183   0.411  10.647  0.1873  0.8732 -0.2716
 6155TIP3   OH239955   0.326   5.914  14.375 -0.0582  0.0612  0.5674
 6155TIP3    H139956   0.344   5.871  14.291  2.2287  1.8488  0.0348
 6155TIP3    H239957   0.407   5.903  14.425 -0.0321  2.0940  1.0705
 6156TIP3   OH239958   0.782   6.164   0.894  0.0261 -0.3961 -0.2703
 6156TIP3    H139959   0.860   6.112   0.877  1.0885  1.5472 -1.6372
 6156TIP3    H239960   0.788   6.239   0.835 -1.1700  1.5718  1.8999
 6157TIP3   OH239961   6.159   6.473  12.509 -0.7785  0.1175 -0.0281
 6157TIP3    H139962   6.168   6.447  12.417  0.0590 -0.6338  0.2502
 6157TIP3    H239963   6.219   6.415  12.556  1.7323  2.9258  0.5703
 6158TIP3   OH239964   5.171   4.683   1.023  0.2057 -0.0967 -0.3639
 6158TIP3    H139965   5.081   4.714   1.019  0.6418  1.1116 -1.1697
 6158TIP3    H239966   5.218   4.733   0.956  1.6292 -0.1822  0.5155
 6159TIP3   OH239967   4.678   6.545  15.025 -0.3690  0.0357 -0.3675
 6159TIP3    H139968   4.593   6.562  14.983  0.5465  0.7835 -1.9801
 6159TIP3    H239969   4.702   6.630  15.064 -0.2945 -0.1513  0.0009
 6160TIP3   OH239970   1.534   4.170  16.531  0.0533  0.1624 -0.5902
 6160TIP3    H139971   1.485   4.089  16.547  2.5502 -1.3483 -0.1555
 6160TIP3    H239972   1.587   4.183  16.609  0.1368  1.9226 -0.9001
 6161TIP3   OH239973   6.501   5.421   6.073 -0.5114 -0.0193 -0.4010
 6161TIP3    H139974   6.550   5.367   6.135 -1.0999 -1.4144 -1.1089
 6161TIP3    H239975   6.411   5.420   6.107 -0.3926  1.1985  0.0084
 6162TIP3   OH239976   1.764   2.128   0.149  0.6329 -0.2118  0.3531
 6162TIP3    H139977   1.684   2.122   0.097  0.8081 -0.4304  0.1068
 6162TIP3    H239978   1.834   2.097   0.090  1.4024  2.8184 -0.4933
 6163TIP3   OH239979   2.918   0.994  11.951  0.0829  0.3258  0.0365
 6163TIP3    H139980   2.930   0.901  11.933 -0.2415  0.3628 -0.3732
 6163TIP3    H239981   2.885   0.997  12.040  0.0480  0.0458  0.0342
 6164TIP3   OH239982   3.684   2.268   4.216  0.3530 -0.0009  0.2084
 6164TIP3    H139983   3.670   2.359   4.190  2.2794  0.4479  0.5940
 6164TIP3    H239984   3.728   2.228   4.141 -0.1356 -0.5165  0.1920
 6165TIP3   OH239985   5.566   4.271  13.615  0.1564 -0.0921  0.2947
 6165TIP3    H139986   5.498   4.269  13.682 -0.9494  1.7795 -0.6898
 6165TIP3    H239987   5.537   4.339  13.553  2.2753 -0.1529 -0.8559
 6166TIP3   OH239988   0.133   1.159   1.821  0.2833 -0.5573 -0.5251
 6166TIP3    H139989   0.074   1.143   1.895  1.7309 -1.7569  0.4374
 6166TIP3    H239990   0.075   1.179   1.748 -1.2069  3.1715  1.4130
 6167TIP3   OH239991   4.101   5.102  15.458  0.6890  0.8644 -0.0428
 6167TIP3    H139992   4.050   5.132  15.383 -0.3747  0.6752  0.5875
 6167TIP3    H239993   4.042   5.109  15.532  1.0894 -0.7682  0.4813
 6168TIP3   OH239994   3.778   1.555  15.560  0.0952 -0.3165  0.1367
 6168TIP3    H139995   3.727   1.498  15.503  0.1723 -1.1534  0.8817
 6168TIP3    H239996   3.760   1.523  15.648 -0.0742  0.9941  0.6044
 6169TIP3   OH239997   1.220   2.965   3.706 -0.5638 -0.2761  0.2919
 6169TIP3    H139998   1.187   3.045   3.667  0.1507 -0.5556 -0.9492
 6169TIP3    H239999   1.273   2.994   3.781 -1.6373  0.2895  0.8530
 6170TIP3   OH240000   0.471   0.120  15.621  0.5294 -0.5900 -0.1828
 6170TIP3    H140001   0.557   0.092  15.590  0.2221 -1.2088 -0.4923
 6170TIP3    H240002   0.481   0.214  15.637  0.8426 -0.3252 -1.7071
 6171TIP3   OH240003   4.829   3.788   4.967 -0.1781  0.4759 -0.7766
 6171TIP3    H140004   4.764   3.797   4.897 -0.5454 -0.7988 -0.6198
 6171TIP3    H240005   4.894   3.727   4.931  0.1007  0.5169 -0.3418
 6172TIP3   OH240006   1.200   6.082  15.022 -0.0328 -0.2687  0.3535
 6172TIP3    H140007   1.184   6.049  15.110  0.3458 -1.0092  0.1527
 6172TIP3    H240008   1.267   6.024  14.986 -0.5586 -0.3062 -0.6062
 6173TIP3   OH240009   1.517   1.800  11.675 -0.2087  0.2064 -0.3297
 6173TIP3    H140010   1.611   1.794  11.690  0.0411  0.6087 -1.6251
 6173TIP3    H240011   1.487   1.867  11.737  0.6816  1.4221 -1.1632
 6174TIP3   OH240012   0.606   5.218  16.834  0.2652 -0.3809  1.0370
 6174TIP3    H140013   0.599   5.310  16.809 -0.4257  0.0896  2.7770
 6174TIP3    H240014   0.697   5.207  16.862  0.6333 -0.5309 -0.1538
 6175TIP3   OH240015   0.987   0.225   0.353 -0.9146  0.4527  0.0125
 6175TIP3    H140016   0.894   0.244   0.368 -0.2752  2.5365  1.7347
 6175TIP3    H240017   1.018   0.189   0.435 -0.2154 -0.4299 -0.6198
 6176TIP3   OH240018   1.048   1.145   4.873  0.5306  0.2360 -0.2536
 6176TIP3    H140019   1.119   1.136   4.810  0.2305  0.8838 -0.6973
 6176TIP3    H240020   0.969   1.124   4.823  0.1765  1.7970 -0.4039
 6177TIP3   OH240021   2.225   5.715  11.371 -0.1898  0.6578 -0.0930
 6177TIP3    H140022   2.320   5.729  11.374  0.0319 -0.7236 -0.1132
 6177TIP3    H240023   2.206   5.694  11.280 -0.4122  0.2758  0.0389
 6178TIP3   OH240024   4.908   1.769   2.116  0.0150  0.3580  0.1134
 6178TIP3    H140025   4.819   1.749   2.085 -0.6943  0.0049  2.2418
 6178TIP3    H240026   4.916   1.864   2.103 -1.3697  0.7038  1.4988
 6179TIP3   OH240027   4.075   4.499  13.190  0.0488  0.2207 -0.1852
 6179TIP3    H140028   4.067   4.479  13.096  0.6152  1.3856 -0.5118
 6179TIP3    H240029   4.050   4.591  13.196 -0.3071  0.0626  0.8699
 6180TIP3   OH240030   5.491   2.917   0.132 -0.4982 -0.2119  0.4078
 6180TIP3    H140031   5.530   2.979   0.195 -1.5216 -1.6398  2.5562
 6180TIP3    H240032   5.521   2.949   0.047 -1.1710  3.4052  1.3352
 6181TIP3   OH240033   0.793   1.087   5.337 -0.3090 -0.1010 -0.2974
 6181TIP3    H140034   0.760   1.076   5.247 -1.0536 -2.0549  0.1536
 6181TIP3    H240035   0.836   1.004   5.356  2.1927  1.2400  0.2783
 6182TIP3   OH240036   0.073   2.955  12.237 -0.9175 -0.3970 -0.4813
 6182TIP3    H140037  -0.021   2.948  12.253 -0.7536 -1.0931  0.2517
 6182TIP3    H240038   0.111   2.971  12.323 -0.3274 -0.5481 -0.7081
 6183TIP3   OH240039   3.821   5.564   2.996 -0.2134 -0.2562 -0.2187
 6183TIP3    H140040   3.799   5.630   2.930  0.6773  0.8577  0.5620
 6183TIP3    H240041   3.885   5.507   2.953 -2.0883 -1.5889 -1.4120
 6184TIP3   OH240042   0.726   4.839   3.906 -0.3463 -0.4588 -0.3056
 6184TIP3    H140043   0.814   4.808   3.886 -0.5816 -1.2759 -0.0983
 6184TIP3    H240044   0.719   4.833   4.002  0.0245  1.4109 -0.1179
 6185TIP3   OH240045   6.062   0.367   5.539  0.1239 -0.4046  0.3112
 6185TIP3    H140046   6.007   0.444   5.554 -1.3748 -1.5450  0.8918
 6185TIP3    H240047   6.083   0.371   5.446  0.2192  0.7689  0.3566
 6186TIP3   OH240048   6.206   5.097  16.777 -0.9223  0.0839  0.2852
 6186TIP3    H140049   6.180   5.101  16.685 -1.4300 -0.8241  0.3711
 6186TIP3    H240050   6.289   5.144  16.781 -1.5602  1.3121 -0.3737
 6187TIP3   OH240051   2.097   6.766  10.962 -0.0979 -0.4990 -0.2031
 6187TIP3    H140052   2.146   6.692  10.995  1.5287 -0.1000 -1.5781
 6187TIP3    H240053   2.082   6.821  11.039 -0.6334 -1.8308  0.6824
 6188TIP3   OH240054   3.272   0.530   2.167 -0.0046 -0.7542 -0.1712
 6188TIP3    H140055   3.178   0.543   2.151 -0.5071 -2.4720  1.0803
 6188TIP3    H240056   3.304   0.487   2.088 -0.6707 -1.7209  0.0649
 6189TIP3   OH240057   5.225   0.800  11.417 -0.2014 -0.0699  0.2628
 6189TIP3    H140058   5.315   0.775  11.394  0.5002  2.1376  0.3202
 6189TIP3    H240059   5.231   0.828  11.509 -1.1460 -0.6730  0.5218
 6190TIP3   OH240060   6.493   2.680  14.170 -1.1898 -0.8078 -0.3353
 6190TIP3    H140061   6.539   2.624  14.233 -0.0627  0.0055 -0.4182
 6190TIP3    H240062   6.478   2.623  14.094 -0.5176 -1.1491 -0.2191
 6191TIP3   OH240063   3.086   2.579  13.800  0.1812  0.3787  0.4113
 6191TIP3    H140064   3.002   2.614  13.829 -1.2646 -0.4640 -2.3737
 6191TIP3    H240065   3.135   2.656  13.771 -0.3315  0.7151  0.4280
 6192TIP3   OH240066   1.131   5.775  14.597  0.6198 -0.3571  0.5529
 6192TIP3    H140067   1.172   5.746  14.515 -0.2879 -0.0616 -0.0155
 6192TIP3    H240068   1.203   5.814  14.647  1.0807 -0.0310 -0.3420
 6193TIP3   OH240069   1.065   4.561  15.288 -0.7715 -0.4995 -0.1642
 6193TIP3    H140070   1.003   4.511  15.234 -2.6711  0.7449  0.7282
 6193TIP3    H240071   1.033   4.651  15.283  0.5974  0.0796  0.8891
 6194TIP3   OH240072   1.985   6.399   2.187 -0.0670 -0.1674  0.4585
 6194TIP3    H140073   1.977   6.492   2.208 -0.0976  0.1956 -1.0375
 6194TIP3    H240074   1.898   6.363   2.200 -0.6947  0.5809 -1.4124
 6195TIP3   OH240075   6.200   5.449   2.482  0.1754 -0.5394 -0.2817
 6195TIP3    H140076   6.136   5.474   2.414  1.6755  2.6707 -0.6868
 6195TIP3    H240077   6.252   5.381   2.440 -0.8927 -0.8581 -1.1711
 6196TIP3   OH240078   3.395   4.010  14.995 -0.0791 -0.7534 -0.4360
 6196TIP3    H140079   3.350   3.963  14.925 -0.3744 -2.1659  0.6490
 6196TIP3    H240080   3.403   3.945  15.066  1.3120  0.2518  0.3710
 6197TIP3   OH240081   1.564   5.880  12.344  0.0459 -0.6209 -0.6921
 6197TIP3    H140082   1.597   5.812  12.286  0.2628 -0.8748 -0.2780
 6197TIP3    H240083   1.481   5.907  12.305  0.5938 -0.1803 -1.5794
 6198TIP3   OH240084   5.183   0.195   2.877 -0.3722 -0.1512  0.1989
 6198TIP3    H140085   5.117   0.168   2.942  1.3869 -3.2459  0.9426
 6198TIP3    H240086   5.135   0.195   2.794 -1.2757 -3.3690  0.5411
 6199TIP3   OH240087   6.772   4.267   2.742 -0.2332 -0.0661 -0.3486
 6199TIP3    H140088   6.801   4.339   2.798  1.0605  0.4858 -1.6609
 6199TIP3    H240089   6.728   4.310   2.668  3.2109 -0.2441 -2.7596
 6200TIP3   OH240090   4.604   2.020  15.034 -0.6686 -0.1013 -0.2354
 6200TIP3    H140091   4.518   2.048  15.003 -0.5224  0.7170  0.0794
 6200TIP3    H240092   4.588   1.933  15.072 -1.0148 -0.7442 -1.7545
 6201TIP3   OH240093   5.458   5.661  12.607  0.4612 -0.9198 -0.3461
 6201TIP3    H140094   5.381   5.669  12.664  0.4514 -2.5054 -0.0893
 6201TIP3    H240095   5.506   5.743  12.619 -1.4795  0.4079 -0.9888
 6202TIP3   OH240096   3.475   1.893  12.517 -0.0820  0.0086  0.1665
 6202TIP3    H140097   3.432   1.839  12.584  0.1528 -0.0424  0.2811
 6202TIP3    H240098   3.404   1.922  12.460 -0.2896  0.0772  0.4561
 6203TIP3   OH240099   5.594   1.411  17.075  0.2605 -0.2179  0.2327
 6203TIP3    H140100   5.610   1.362  16.994  2.1010  2.4819 -1.1640
 6203TIP3    H240101   5.681   1.438  17.104 -0.6516  1.9914  1.0762
 6204TIP3   OH240102   1.973   5.305  13.816 -0.1609  0.3138  0.1397
 6204TIP3    H140103   1.925   5.341  13.891 -0.8901  1.2762 -0.7477
 6204TIP3    H240104   2.007   5.382  13.771  0.5152 -0.2683 -0.3655
 6205TIP3   OH240105   0.685   2.626   1.665  0.2970 -0.2581 -0.5930
 6205TIP3    H140106   0.670   2.556   1.601 -1.5971  0.2902 -0.8001
 6205TIP3    H240107   0.627   2.605   1.738 -0.4421  1.1798 -0.7378
 6206TIP3   OH240108   2.794   4.246   1.130 -0.6415 -0.0276 -0.4413
 6206TIP3    H140109   2.806   4.177   1.196 -0.5509 -1.3199 -1.7505
 6206TIP3    H240110   2.703   4.236   1.102 -0.8149  0.8159 -0.2224
 6207TIP3   OH240111   4.721   3.766   3.457  0.6626 -0.2639  0.0441
 6207TIP3    H140112   4.661   3.692   3.471  1.9894 -1.1447  1.4654
 6207TIP3    H240113   4.675   3.842   3.493 -0.3871 -0.5388 -0.6831
 6208TIP3   OH240114   6.095   3.661  15.503  0.1335  0.0076 -0.1505
 6208TIP3    H140115   6.156   3.702  15.442 -0.6977  0.6590 -0.5692
 6208TIP3    H240116   6.138   3.665  15.588  1.0346 -0.3267 -0.5840
 6209TIP3   OH240117   5.629   4.738  12.633 -0.8838 -0.3037 -0.4424
 6209TIP3    H140118   5.557   4.687  12.595  0.0195 -0.6774 -1.7458
 6209TIP3    H240119   5.707   4.686  12.613 -0.3754 -0.8175  2.5176
 6210TIP3   OH240120   6.320   2.414  17.148 -0.1342  0.1957  0.1278
 6210TIP3    H140121   6.266   2.376  17.078 -0.3038 -2.0872  1.3882
 6210TIP3    H240122   6.340   2.502  17.118  0.6103 -0.9862 -3.2670
 6211TIP3   OH240123   1.145   4.905   1.192 -0.3523 -0.4879 -0.2816
 6211TIP3    H140124   1.056   4.871   1.184 -0.3120 -0.6040 -0.2347
 6211TIP3    H240125   1.199   4.848   1.137 -0.0415 -1.4287  0.9425
 6212TIP3   OH240126   0.410   1.506   0.903 -0.2874  0.5081  0.2388
 6212TIP3    H140127   0.343   1.449   0.942 -0.9774  0.2464 -1.2719
 6212TIP3    H240128   0.415   1.478   0.812  1.8793  0.5554  0.2899
 6213TIP3   OH240129   5.361   2.764  14.663 -0.0531  0.3384  0.0044
 6213TIP3    H140130   5.372   2.713  14.583  0.4874 -0.7392  0.7439
 6213TIP3    H240131   5.353   2.699  14.733 -0.7983  1.2477  0.8038
 6214TIP3   OH240132   5.140   1.337   2.150  0.3773 -0.6288 -0.3983
 6214TIP3    H140133   5.114   1.247   2.171 -2.8258  0.0817 -0.8837
 6214TIP3    H240134   5.204   1.359   2.218  0.1456 -2.7686  0.6042
 6215TIP3   OH240135   4.421   3.972  12.737 -0.7295  0.1710  0.0728
 6215TIP3    H140136   4.377   4.023  12.805 -1.0866  1.2942 -0.9710
 6215TIP3    H240137   4.419   4.028  12.660  0.1255 -0.8738 -0.7339
 6216TIP3   OH240138   4.257   1.902   4.947  0.4694 -0.0571 -0.4348
 6216TIP3    H140139   4.344   1.936   4.969  0.3582  0.5805 -0.9584
 6216TIP3    H240140   4.272   1.810   4.926  1.1704  0.2710 -1.4212
 6217TIP3   OH240141   1.122   0.013   4.724 -0.0413 -0.1537 -0.0691
 6217TIP3    H140142   1.060  -0.053   4.754  0.1246 -1.3947 -2.2184
 6217TIP3    H240143   1.089   0.040   4.638  1.1303  0.8797 -0.2303
 6218TIP3   OH240144   6.306   6.681  15.690 -0.0584 -0.0209  0.2551
 6218TIP3    H140145   6.231   6.642  15.735  0.2429  0.3976  1.1573
 6218TIP3    H240146   6.354   6.607  15.654  0.0454 -0.4347  1.2086
 6219TIP3   OH240147   1.242   6.236   4.194 -0.1409  0.5217  0.8075
 6219TIP3    H140148   1.240   6.330   4.176  4.2088  0.6179 -0.1660
 6219TIP3    H240149   1.258   6.231   4.288  0.3147  0.7701  0.7439
 6220TIP3   OH240150   1.508   5.799   5.242  0.9729 -0.5658  0.1148
 6220TIP3    H140151   1.587   5.782   5.294  1.2778 -0.5466 -0.3380
 6220TIP3    H240152   1.453   5.721   5.256  1.4391 -0.9683 -0.2428
 6221TIP3   OH240153   5.059   3.193   2.469  0.0017 -0.5428  0.4530
 6221TIP3    H140154   4.970   3.226   2.459  0.9897  2.4291  0.3681
 6221TIP3    H240155   5.089   3.229   2.553  1.1170 -1.4828  0.4836
 6222TIP3   OH240156   2.570   0.456  11.637 -0.4536 -0.5049 -0.3636
 6222TIP3    H140157   2.517   0.421  11.566  0.7278 -1.0208 -1.0155
 6222TIP3    H240158   2.645   0.396  11.644 -0.6785 -0.6450  1.5131
 6223TIP3   OH240159   5.410   4.157   3.937 -0.1970  0.0486 -0.1938
 6223TIP3    H140160   5.419   4.245   3.902  1.1461  0.6186  1.4678
 6223TIP3    H240161   5.498   4.131   3.962 -0.8595 -0.8759  1.3756
 6224TIP3   OH240162   2.377   5.663  13.407  0.6768 -0.2032 -0.0010
 6224TIP3    H140163   2.375   5.693  13.498 -0.3622 -1.2722  0.3658
 6224TIP3    H240164   2.306   5.598  13.402 -0.0790  0.6857 -1.8773
 6225TIP3   OH240165   1.101   5.766  12.623  0.1872  0.2985  0.4929
 6225TIP3    H140166   1.115   5.774  12.529  0.1248 -1.4563  0.3091
 6225TIP3    H240167   1.189   5.759  12.660  0.2167  1.1008  0.5923
 6226TIP3   OH240168   4.188   2.665   2.429  0.2585  0.5011 -0.0308
 6226TIP3    H140169   4.201   2.749   2.386 -1.0463  0.3135 -0.8388
 6226TIP3    H240170   4.103   2.634   2.396  0.2481 -0.6567  1.0256
 6227TIP3   OH240171   1.054   2.382  16.199  0.4851 -0.1417 -0.2023
 6227TIP3    H140172   0.975   2.328  16.200  0.4202 -0.0462 -0.0558
 6227TIP3    H240173   1.102   2.353  16.122  0.5195 -0.5110 -0.0459
 6228TIP3   OH240174   0.109   5.845  15.818  0.2350  0.0808  0.5350
 6228TIP3    H140175   0.088   5.804  15.902  0.6895 -1.6673 -0.1616
 6228TIP3    H240176   0.199   5.876  15.827 -0.0319  0.7448  0.9897
 6229TIP3   OH240177   1.193   2.396  12.121 -0.3563  0.6585 -0.4145
 6229TIP3    H140178   1.117   2.347  12.153 -0.5068  0.5926 -0.8593
 6229TIP3    H240179   1.185   2.392  12.026  1.1481 -0.8319 -0.5153
 6230TIP3   OH240180   3.847   0.143   0.027  0.2110 -0.6362  0.3326
 6230TIP3    H140181   3.754   0.122   0.020  0.1908 -1.0877  1.6260
 6230TIP3    H240182   3.855   0.188   0.111  0.9899  0.4412 -0.3030
 6231TIP3   OH240183   5.712   5.258  11.636 -0.2613 -0.1216  0.2059
 6231TIP3    H140184   5.694   5.256  11.730  0.6195  1.2757  0.4421
 6231TIP3    H240185   5.651   5.323  11.601 -1.0935 -1.1670 -0.3331
 6232TIP3   OH240186   0.221   6.553  13.754 -0.0764 -0.3453  0.2364
 6232TIP3    H140187   0.159   6.614  13.714  0.5164  0.0836 -0.0283
 6232TIP3    H240188   0.168   6.475  13.773 -1.2697  0.8598  2.2075
 6233TIP3   OH240189   5.949   4.601  14.346 -0.0196  0.0185 -0.3902
 6233TIP3    H140190   5.868   4.583  14.299 -0.5205 -0.0051  0.4760
 6233TIP3    H240191   5.934   4.685  14.389  0.1066 -0.3810  0.4426
 6234TIP3   OH240192   3.468   3.962   3.798 -0.5063 -0.1676 -0.2496
 6234TIP3    H140193   3.433   3.905   3.730  1.8645  0.2124 -1.8986
 6234TIP3    H240194   3.529   3.907   3.847 -0.7737  0.0727  0.3741
 6235TIP3   OH240195   5.471   1.902   1.053 -0.5320 -0.3156  0.0390
 6235TIP3    H140196   5.503   1.825   1.005 -0.8238 -0.7349  0.5012
 6235TIP3    H240197   5.549   1.935   1.099 -0.6120 -0.9802  0.6866
 6236TIP3   OH240198   0.656   6.262   4.348  0.1692 -0.1116 -0.0467
 6236TIP3    H140199   0.611   6.258   4.263  1.7617  0.5285 -0.9570
 6236TIP3    H240200   0.690   6.174   4.361  0.0718 -0.1671 -0.1525
 6237TIP3   OH240201   1.206   5.584  14.366  0.0280 -0.1845 -0.2947
 6237TIP3    H140202   1.237   5.523  14.434 -0.5195  0.0297  0.1503
 6237TIP3    H240203   1.156   5.529  14.306  0.0765 -0.2849 -0.2438
 6238TIP3   OH240204   0.232   1.042  14.532 -0.3798 -0.2798  0.0927
 6238TIP3    H140205   0.227   1.072  14.623  1.8139  1.2469 -0.2239
 6238TIP3    H240206   0.197   1.115  14.481  0.0090 -0.4273 -0.3842
 6239TIP3   OH240207   0.133   2.492  16.703 -0.1497 -0.1735 -0.0494
 6239TIP3    H140208   0.105   2.576  16.666  1.0873 -0.1840 -1.1015
 6239TIP3    H240209   0.225   2.485  16.677 -0.1881 -1.7784  0.1785
 6240TIP3   OH240210   0.610   5.534  16.421 -0.1125 -0.2107  0.9306
 6240TIP3    H140211   0.627   5.602  16.355  0.0527 -1.1286 -0.0066
 6240TIP3    H240212   0.515   5.519  16.416 -0.0031 -0.7645  0.3949
 6241TIP3   OH240213   0.922   0.481   5.811  0.2269  0.1085 -0.7627
 6241TIP3    H140214   0.884   0.460   5.896 -0.7769 -0.6103 -1.3552
 6241TIP3    H240215   0.958   0.397   5.780  2.2864  0.7477 -0.2561
 6242TIP3   OH240216   6.456   3.669   4.081  0.0011  0.1617  0.2122
 6242TIP3    H140217   6.511   3.737   4.042 -0.9719  0.8242 -0.0781
 6242TIP3    H240218   6.373   3.676   4.033 -0.6519 -0.1544  1.2585
 6243TIP3   OH240219   2.719   0.621   3.365  0.3269 -0.1925  0.1070
 6243TIP3    H140220   2.655   0.561   3.404  2.0882 -1.4060  1.3433
 6243TIP3    H240221   2.766   0.658   3.440  0.9247  0.8360 -0.7434
 6244TIP3   OH240222   2.552   4.869  17.184 -0.3977  0.2398  0.4971
 6244TIP3    H140223   2.541   4.964  17.175  1.4275  0.5039  0.5658
 6244TIP3    H240224   2.515   4.848  17.269 -1.5871  0.7410  0.1191
 6245TIP3   OH240225   2.230   2.309   5.092 -0.1491  0.6063  0.4346
 6245TIP3    H140226   2.201   2.378   5.033  1.4494  1.9764  1.1499
 6245TIP3    H240227   2.322   2.331   5.112  0.5880 -2.0079  0.3287
 6246TIP3   OH240228   6.139   2.113   5.156  0.6294 -0.1254  0.3296
 6246TIP3    H140229   6.185   2.189   5.193 -0.6035  1.2872 -0.8722
 6246TIP3    H240230   6.192   2.087   5.081 -0.8957  2.1690 -1.7014
 6247TIP3   OH240231   4.542   4.115   5.321  0.0118 -0.0244  0.1912
 6247TIP3    H140232   4.608   4.181   5.299  0.4695 -0.4999  0.1085
 6247TIP3    H240233   4.458   4.160   5.309  0.3279  0.7321  0.7716
 6248TIP3   OH240234   2.908   1.217   3.153  0.0621  0.0339 -0.5249
 6248TIP3    H140235   2.969   1.265   3.209  0.0710  0.0737 -0.5689
 6248TIP3    H240236   2.935   1.239   3.064  1.3308 -1.6156 -0.5902
 6249TIP3   OH240237   2.756   5.811  14.942  0.0110 -0.4805  0.2337
 6249TIP3    H140238   2.836   5.861  14.956 -0.9135  1.2733 -0.4783
 6249TIP3    H240239   2.750   5.801  14.847 -1.1735  0.3982  0.2001
 6250TIP3   OH240240   4.909   5.946  11.484  0.0851 -0.0583  0.0236
 6250TIP3    H140241   4.910   5.851  11.496  2.9081 -0.1339 -0.1238
 6250TIP3    H240242   4.895   5.958  11.390 -0.5414 -0.2985  0.0791
 6251TIP3   OH240243   3.811   1.423  12.593 -0.4003  0.1814 -0.1605
 6251TIP3    H140244   3.800   1.366  12.669 -2.1571 -0.6639 -0.9799
 6251TIP3    H240245   3.880   1.380  12.541 -0.8508 -0.5562 -0.1694
 6252TIP3   OH240246   6.614   1.849   2.203  0.1241  0.0557  0.3056
 6252TIP3    H140247   6.639   1.763   2.238 -2.7899 -1.0443 -0.0910
 6252TIP3    H240248   6.615   1.906   2.280 -1.7263 -1.2879  1.4056
 6253TIP3   OH240249   0.678   1.049   5.091  0.2034  0.6528  0.3722
 6253TIP3    H140250   0.610   1.113   5.069 -0.4701 -0.2144 -0.1120
 6253TIP3    H240251   0.735   1.049   5.014  0.0122  0.4192  0.2315
 6254TIP3   OH240252   0.829   3.062  14.706  0.3873 -0.4486  0.4670
 6254TIP3    H140253   0.802   3.106  14.625 -2.0026 -2.0538  0.3006
 6254TIP3    H240254   0.812   3.127  14.774 -1.1896 -0.3460  0.0263
 6255TIP3   OH240255   5.021   2.382   5.293 -0.7232  0.3367 -0.2923
 6255TIP3    H140256   4.972   2.378   5.211 -2.0355  2.7517  0.2538
 6255TIP3    H240257   5.087   2.450   5.279 -1.1366  0.9779  0.6664
 6256TIP3   OH240258   2.807   5.970  15.817 -0.0200  0.0978 -0.2406
 6256TIP3    H140259   2.778   5.916  15.890  0.6872  0.3673  0.2510
 6256TIP3    H240260   2.903   5.961  15.816 -0.0413 -0.1451 -1.3263
 6257TIP3   OH240261   1.842   4.544  14.090 -0.2697 -0.5903  0.1845
 6257TIP3    H140262   1.759   4.532  14.136 -0.5106  0.5430  0.0588
 6257TIP3    H240263   1.900   4.583  14.156 -0.2626 -0.0577 -0.1366
 6258TIP3   OH240264   0.317   5.519  14.990  0.2784  0.1908  0.9819
 6258TIP3    H140265   0.370   5.532  14.911  0.8399  1.6994  1.5673
 6258TIP3    H240266   0.233   5.487  14.957  1.0967 -0.9442 -0.0684
 6259TIP3   OH240267   4.553   4.734   0.573  0.1399 -0.0242  0.1484
 6259TIP3    H140268   4.643   4.764   0.559  0.5326 -1.0479  0.3699
 6259TIP3    H240269   4.560   4.639   0.578 -0.8325 -0.0725  1.0461
 6260TIP3   OH240270   2.440   4.862   2.147  0.1243 -0.4428  0.1337
 6260TIP3    H140271   2.471   4.952   2.138 -1.5228  0.2935  1.2503
 6260TIP3    H240272   2.411   4.838   2.058 -1.2867  0.9072  0.1790
 6261TIP3   OH240273   5.755   5.287  15.012 -0.5571 -0.0410 -0.0646
 6261TIP3    H140274   5.819   5.333  14.957  1.6539 -0.5139  1.9203
 6261TIP3    H240275   5.726   5.354  15.074 -1.0084 -0.1600 -0.1472
 6262TIP3   OH240276   2.694   0.126  16.704  0.4585 -0.1633 -0.4070
 6262TIP3    H140277   2.626   0.182  16.666 -1.2848 -1.9379 -0.0380
 6262TIP3    H240278   2.685   0.042  16.659  0.3163 -1.3944  1.7928
 6263TIP3   OH240279   6.797   2.774   2.536 -1.1687 -0.2825 -0.1542
 6263TIP3    H140280   6.753   2.690   2.552  0.0070 -1.2186 -1.5960
 6263TIP3    H240281   6.755   2.809   2.458 -2.0250  0.7980  0.7393
 6264TIP3   OH240282   5.232   5.346  13.315  0.9488 -0.3475  0.5332
 6264TIP3    H140283   5.303   5.283  13.300  1.1062 -0.2978  1.0507
 6264TIP3    H240284   5.243   5.373  13.406 -1.3286 -2.3848  1.5462
 6265TIP3   OH240285   5.631   6.391  13.703 -0.2331 -0.3635 -0.1728
 6265TIP3    H140286   5.541   6.365  13.725 -0.2724  1.0884  1.6304
 6265TIP3    H240287   5.679   6.308  13.700 -1.4076 -1.0839 -0.1186
 6266TIP3   OH240288   3.174   0.918  16.720 -0.0060  0.1941 -0.1044
 6266TIP3    H140289   3.195   0.884  16.807 -1.0747 -1.9320 -0.5875
 6266TIP3    H240290   3.106   0.858  16.688  1.3093  0.0738 -2.9175
 6267TIP3   OH240291   6.509   4.167   5.629 -0.4980  0.2313  0.5578
 6267TIP3    H140292   6.602   4.163   5.605 -0.5051 -1.9738  0.7261
 6267TIP3    H240293   6.496   4.092   5.687 -2.8688 -0.8706 -1.2501
 6268TIP3   OH240294   4.970   0.226  12.755  0.0562 -0.2881 -0.2368
 6268TIP3    H140295   5.043   0.280  12.723 -0.5145  0.1780 -0.7897
 6268TIP3    H240296   4.894   0.258  12.706 -0.4086 -1.1828 -0.1233
 6269TIP3   OH240297   6.806   2.733  15.049 -0.1833 -0.1070  0.1033
 6269TIP3    H140298   6.752   2.800  15.008 -0.8307 -0.9484 -0.4394
 6269TIP3    H240299   6.783   2.738  15.142  1.0477  1.5775  0.3810
 6270TIP3   OH240300   2.724   0.994  12.959  0.1138 -0.2002 -0.3549
 6270TIP3    H140301   2.697   0.919  13.011 -2.3940  0.9357  0.1573
 6270TIP3    H240302   2.799   1.030  13.006 -0.3785 -0.8042  0.9402
 6271TIP3   OH240303   6.650   5.822   5.197  0.1735 -0.2478 -0.6057
 6271TIP3    H140304   6.665   5.911   5.166 -2.0480  0.7917  1.0180
 6271TIP3    H240305   6.633   5.831   5.291  0.3482 -2.4620 -0.2917
 6272TIP3   OH240306   3.039   5.995  14.070 -0.3536 -0.4321 -0.4103
 6272TIP3    H140307   2.992   5.914  14.091  1.0210 -1.1161  0.1533
 6272TIP3    H240308   3.083   6.019  14.151  0.9038 -0.2527 -1.1190
 6273TIP3   OH240309   0.411   3.178  12.146 -0.3157  0.0272  0.1015
 6273TIP3    H140310   0.463   3.145  12.219 -0.3138  1.0703  0.5924
 6273TIP3    H240311   0.464   3.250  12.110 -0.4740 -0.2485 -0.7127
 6274TIP3   OH240312   2.141   0.956  11.655 -0.4861 -0.1507 -0.1533
 6274TIP3    H140313   2.075   0.974  11.722 -0.9692  0.0211 -0.6663
 6274TIP3    H240314   2.173   0.868  11.676  1.0466  0.7597  1.6767
 6275TIP3   OH240315   4.110   0.784  16.272  0.4495  0.1172  0.7907
 6275TIP3    H140316   4.162   0.862  16.290  0.8326  0.1322 -0.2805
 6275TIP3    H240317   4.135   0.759  16.183 -0.0393 -0.9354  0.9315
 6276TIP3   OH240318   2.137   3.680   2.265 -0.4505  0.0801  0.1711
 6276TIP3    H140319   2.100   3.735   2.195  0.0022 -0.6248 -0.6452
 6276TIP3    H240320   2.149   3.594   2.224  2.1785  0.2864  0.3509
 6277TIP3   OH240321   6.294   2.854  12.505 -0.3654 -0.0550  0.2024
 6277TIP3    H140322   6.242   2.922  12.547 -1.3530  0.9538 -2.4372
 6277TIP3    H240323   6.311   2.888  12.417 -1.3278 -3.4210 -1.4401
 6278TIP3   OH240324   3.601   4.708   3.086  0.2197  0.7465 -0.0180
 6278TIP3    H140325   3.621   4.797   3.113 -0.1929  0.3342  1.7465
 6278TIP3    H240326   3.687   4.666   3.076  0.3989  1.1771 -0.2907
 6279TIP3   OH240327   0.102   0.919  11.493  0.0782  0.4398  0.2862
 6279TIP3    H140328   0.016   0.917  11.536 -0.4406 -1.4459 -0.7341
 6279TIP3    H240329   0.086   0.963  11.409  0.1074  0.0642  0.0847
 6280TIP3   OH240330   2.179   5.832  15.132 -0.4174  0.0825  0.2638
 6280TIP3    H140331   2.242   5.893  15.171 -0.0830 -0.2457  0.2449
 6280TIP3    H240332   2.096   5.880  15.132  0.2469  1.3160 -1.6431
 6281TIP3   OH240333   3.775   6.344  12.705 -0.1353  0.7327  0.7330
 6281TIP3    H140334   3.782   6.433  12.671  3.5678  0.3321  0.0445
 6281TIP3    H240335   3.816   6.349  12.791  0.6275 -0.3810  0.4500
 6282TIP3   OH240336   5.477   6.657  12.045  0.5766  0.3140 -0.0506
 6282TIP3    H140337   5.542   6.611  12.097  1.5100 -1.1523 -2.3590
 6282TIP3    H240338   5.503   6.749  12.049  1.3087  0.0792  1.0392
 6283TIP3   OH240339   3.415   5.924   3.296 -0.3006 -0.3251  0.3470
 6283TIP3    H140340   3.453   6.012   3.290 -1.6091  0.1811 -1.8046
 6283TIP3    H240341   3.450   5.878   3.220 -1.3429 -0.9185  0.2112
 6284TIP3   OH240342   0.961   2.300   0.070  0.0082  0.5955  0.4312
 6284TIP3    H140343   0.978   2.394   0.078 -1.1949  0.8804 -0.1456
 6284TIP3    H240344   1.047   2.262   0.049  0.4884  1.5644  0.5863
 6285TIP3   OH240345   5.602   4.205  14.108  0.3441 -0.0040 -0.1766
 6285TIP3    H140346   5.661   4.258  14.055  0.9012  0.3393  0.7644
 6285TIP3    H240347   5.546   4.269  14.153 -0.1377 -0.2905 -0.3571
 6286TIP3   OH240348   1.607   4.078  11.421 -0.0317  0.3325 -0.0219
 6286TIP3    H140349   1.593   4.122  11.337 -1.7533  0.1406  0.1209
 6286TIP3    H240350   1.548   4.003  11.418  0.0261  0.2141  1.2826
 6287TIP3   OH240351   5.536   6.222  11.607 -0.5021  0.2286  0.1945
 6287TIP3    H140352   5.478   6.278  11.555 -2.4813 -2.0807 -0.2489
 6287TIP3    H240353   5.477   6.173  11.664  1.0069 -2.1237 -0.1270
 6288TIP3   OH240354   1.086   4.828   5.735  0.8917  0.0860  0.4632
 6288TIP3    H140355   1.015   4.764   5.742  1.0318 -0.2478 -0.9020
 6288TIP3    H240356   1.093   4.866   5.823  0.2873 -1.2115  1.1013
 6289TIP3   OH240357   0.315   3.899   4.728 -0.2518  0.0858  0.3681
 6289TIP3    H140358   0.248   3.967   4.722  0.2229  0.4999 -0.5480
 6289TIP3    H240359   0.398   3.947   4.729  0.0858 -0.4640 -0.2998
 6290TIP3   OH240360   6.142   4.522  16.376 -0.3307 -0.2855  0.4909
 6290TIP3    H140361   6.234   4.547  16.363 -0.1614 -0.2959  1.6034
 6290TIP3    H240362   6.092   4.596  16.341  0.1321  0.4342  1.3137
 6291TIP3   OH240363   3.244   6.546   3.984 -0.3179 -0.2342 -0.4079
 6291TIP3    H140364   3.193   6.496   3.921  0.6911 -2.2074  0.2474
 6291TIP3    H240365   3.216   6.513   4.070  0.0053  0.7161  0.0814
 6292TIP3   OH240366   6.352   0.511  16.804  0.1377  0.0095 -0.3218
 6292TIP3    H140367   6.444   0.497  16.826  0.3980 -0.1756 -1.4640
 6292TIP3    H240368   6.306   0.440  16.847  0.5302  0.0832  0.2302
 6293TIP3   OH240369   4.233   2.674  10.153  0.0102  0.1150  0.4641
 6293TIP3    H140370   4.236   2.769  10.139 -0.9024  0.1661  0.5378
 6293TIP3    H240371   4.278   2.660  10.236  0.2432  0.4689  0.4006
 6294TIP3   OH240372   0.248   5.169  11.394  0.2765  0.2996  0.3125
 6294TIP3    H140373   0.193   5.091  11.386  1.1551 -0.1287 -4.6319
 6294TIP3    H240374   0.328   5.138  11.437  0.0453 -1.2213 -0.2901
 6295TIP3   OH240375   4.125   1.440  12.036 -0.9049 -0.3517  0.1252
 6295TIP3    H140376   4.146   1.346  12.040  0.3936 -0.0331  2.1071
 6295TIP3    H240377   4.196   1.478  11.984 -1.3254 -0.4387 -0.5144
 6296TIP3   OH240378   3.820   5.559   1.757  0.2281  0.5338  0.5404
 6296TIP3    H140379   3.835   5.505   1.835  0.3785 -2.3156 -1.2930
 6296TIP3    H240380   3.731   5.592   1.767  0.0055 -0.3399  1.6305
 6297TIP3   OH240381   3.130   5.502  15.947 -0.0383 -0.5357 -0.2326
 6297TIP3    H140382   3.113   5.540  16.034  0.0241 -0.0899 -0.4092
 6297TIP3    H240383   3.137   5.578  15.890  2.1214 -0.6821 -0.2577
 6298TIP3   OH240384   2.548   1.701  11.593  0.5862  0.5611  0.2165
 6298TIP3    H140385   2.636   1.728  11.567  1.3405 -1.1997  0.8080
 6298TIP3    H240386   2.498   1.702  11.512  1.7875 -0.7116 -0.5940
 6299TIP3   OH240387   6.750   1.040   0.738  0.3338  0.2575 -0.3110
 6299TIP3    H140388   6.718   0.963   0.785 -0.6310  0.4521 -0.6177
 6299TIP3    H240389   6.800   1.004   0.665  1.5200 -0.0487  0.6289
 6300TIP3   OH240390   4.754   5.151  13.893 -0.0003 -0.3284  0.3276
 6300TIP3    H140391   4.693   5.100  13.841  0.4989 -0.8151  0.2069
 6300TIP3    H240392   4.799   5.086  13.948  0.4311  0.0120  0.3852
 6301TIP3   OH240393   4.318   0.839   0.997 -0.0384  0.2079  0.6412
 6301TIP3    H140394   4.241   0.831   0.940  0.0135 -2.0152  0.8210
 6301TIP3    H240395   4.341   0.932   0.992 -2.3612  0.8324  0.1152
 6302TIP3   OH240396   6.469   0.060   2.759  0.1031  0.2829 -0.6318
 6302TIP3    H140397   6.536   0.077   2.825  1.1593  1.0374 -1.8584
 6302TIP3    H240398   6.517   0.050   2.677 -1.2671  0.7741 -1.5371
 6303TIP3   OH240399   0.227   1.123  16.635 -0.9598 -0.6589 -0.5038
 6303TIP3    H140400   0.213   1.217  16.646  0.0729 -0.4632 -0.7479
 6303TIP3    H240401   0.161   1.096  16.571 -1.7966 -0.2739  0.1716
 6304TIP3   OH240402   2.138   5.086   0.452 -0.1549  0.2262 -0.0696
 6304TIP3    H140403   2.202   5.053   0.515 -0.5381 -0.7123 -0.1455
 6304TIP3    H240404   2.114   5.009   0.400 -0.3521  0.8409 -0.9155
 6305TIP3   OH240405   3.707   5.186   2.996 -0.1970 -0.0187 -0.1388
 6305TIP3    H140406   3.788   5.164   2.952  0.1276 -1.0383  0.9077
 6305TIP3    H240407   3.639   5.141   2.946 -0.1658  1.0237 -1.1498
 6306TIP3   OH240408   4.027   4.835  16.357  0.1104  0.3098 -0.1614
 6306TIP3    H140409   4.114   4.806  16.330  0.0710 -1.3526  1.3177
 6306TIP3    H240410   3.969   4.764  16.329 -0.3902  0.2016  1.0899
 6307TIP3   OH240411   6.450   4.403   3.265  0.2306  0.4608 -1.0687
 6307TIP3    H140412   6.458   4.326   3.208  0.0036 -1.2233  1.0168
 6307TIP3    H240413   6.355   4.415   3.274 -0.0004 -2.2102  2.3784
 6308TIP3   OH240414   0.743   4.099  11.195 -0.1358  0.6009  0.4578
 6308TIP3    H140415   0.676   4.057  11.248 -0.4792 -0.5458 -0.8349
 6308TIP3    H240416   0.818   4.039  11.199 -0.5752 -0.1150 -1.2808
 6309TIP3   OH240417   3.929   5.421   0.438  0.6872 -0.7125 -0.0807
 6309TIP3    H140418   3.875   5.500   0.435  0.8430 -0.5272 -4.1684
 6309TIP3    H240419   3.866   5.348   0.437  0.3494 -0.4955 -2.7326
 6310TIP3   OH240420   5.940   0.549  14.928 -0.4872  0.4163 -0.0876
 6310TIP3    H140421   6.036   0.543  14.931 -0.3142  2.0835 -0.8232
 6310TIP3    H240422   5.910   0.478  14.984  1.2192  0.8036  1.4413
 6311TIP3   OH240423   1.609   5.217   2.092 -0.7720 -0.5848 -0.1715
 6311TIP3    H140424   1.597   5.236   1.999 -1.8358  0.2781  0.1208
 6311TIP3    H240425   1.613   5.304   2.133 -0.5256 -0.9639  0.6162
 6312TIP3   OH240426   4.971   1.970   5.528  0.0243 -0.0001  0.2393
 6312TIP3    H140427   4.946   2.015   5.447 -0.1151 -0.2288  0.1532
 6312TIP3    H240428   4.891   1.968   5.580 -0.4446 -1.6312 -0.4578
 6313TIP3   OH240429   5.698   3.066   2.216 -0.2231 -0.3117 -0.2407
 6313TIP3    H140430   5.684   3.142   2.158 -0.7252 -0.5610 -0.4558
 6313TIP3    H240431   5.782   3.083   2.258 -1.4371  1.6104  1.6308
 6314TIP3   OH240432   6.252   1.419   5.261  0.3513 -0.2061 -0.0304
 6314TIP3    H140433   6.234   1.422   5.167 -1.7721  0.6268  0.3639
 6314TIP3    H240434   6.341   1.385   5.267  0.0765 -1.4885 -2.2933
 6315TIP3   OH240435   4.966   2.958   5.648 -0.6488  0.1456  0.1434
 6315TIP3    H140436   5.044   2.954   5.592 -2.0661  0.7792 -2.0055
 6315TIP3    H240437   4.963   2.873   5.691  1.3014  0.1635  0.4325
 6316TIP3   OH240438   4.250   2.770  14.308  0.1114 -0.1118  0.0491
 6316TIP3    H140439   4.244   2.836  14.377 -2.3416  1.8795 -1.8712
 6316TIP3    H240440   4.297   2.814  14.237 -0.4568 -0.8305 -0.7943
 6317TIP3   OH240441   5.428   0.904  10.501 -0.0016  0.6113 -0.0489
 6317TIP3    H140442   5.429   0.928  10.594  0.4655  2.8285 -0.5861
 6317TIP3    H240443   5.512   0.862  10.486  0.2511  0.9600  0.3696
 6318TIP3   OH240444   5.118   0.963   3.304  0.3743 -0.3365  0.6476
 6318TIP3    H140445   5.197   1.016   3.288 -0.4460  0.6932 -0.1367
 6318TIP3    H240446   5.062   1.019   3.357 -1.3296  0.4355 -1.7858
 6319TIP3   OH240447   5.776   2.212  11.416 -0.1013 -0.3901 -0.1827
 6319TIP3    H140448   5.795   2.229  11.508 -0.9931  1.0366 -0.2275
 6319TIP3    H240449   5.725   2.288  11.388  0.5519 -0.5730 -1.9841
 6320TIP3   OH240450   4.418   6.114  11.780  0.5436 -0.9024  0.5003
 6320TIP3    H140451   4.359   6.071  11.842  0.3970 -0.0927  0.9264
 6320TIP3    H240452   4.364   6.129  11.702 -0.5605  1.8981  1.6700
 6321TIP3   OH240453   2.990   3.760   0.580  0.2198  0.1728 -0.9406
 6321TIP3    H140454   2.901   3.784   0.605 -0.2527  0.1979 -2.5729
 6321TIP3    H240455   3.008   3.811   0.501  1.2045 -0.8016 -1.3698
 6322TIP3   OH240456   2.826   2.902  14.168 -0.2080 -0.1616  0.5939
 6322TIP3    H140457   2.812   2.923  14.260  0.0841  0.4484  0.5035
 6322TIP3    H240458   2.917   2.925  14.151 -0.0160 -1.0275  0.3498
 6323TIP3   OH240459   1.235   1.179   4.228  0.2708  0.6080  0.1486
 6323TIP3    H140460   1.155   1.143   4.267  0.7946 -1.5096 -0.6173
 6323TIP3    H240461   1.304   1.121   4.258  1.6036  2.4726  0.8898
 6324TIP3   OH240462   1.030   6.220   5.207 -0.1522  0.3985 -0.1146
 6324TIP3    H140463   1.035   6.139   5.259  2.6577  0.0940 -0.7084
 6324TIP3    H240464   1.069   6.196   5.123  0.4073  2.3062 -0.4246
 6325TIP3   OH240465   1.032   3.091   5.872 -0.2911 -0.2391 -0.1596
 6325TIP3    H140466   0.984   3.172   5.859 -0.2145 -0.1510  0.1115
 6325TIP3    H240467   1.117   3.118   5.906 -1.0032 -0.5337  1.9997
 6326TIP3   OH240468   0.043   0.200  15.884  0.0573  0.0515 -0.5838
 6326TIP3    H140469   0.011   0.132  15.943  0.4291 -0.2570 -0.7302
 6326TIP3    H240470   0.096   0.153  15.819 -0.4351  0.3705 -1.2305
 6327TIP3   OH240471   1.997   2.803   3.838  0.4771  0.6953 -0.4695
 6327TIP3    H140472   2.037   2.737   3.894  4.0162  2.8741 -0.1555
 6327TIP3    H240473   2.033   2.787   3.751  0.1511  1.2737 -0.7243
 6328TIP3   OH240474   3.875   4.002  12.409  0.2125  0.8610 -0.4212
 6328TIP3    H140475   3.939   4.009  12.338  0.7299  1.3945  0.0785
 6328TIP3    H240476   3.889   3.915  12.446 -0.6236  0.2598 -1.4854
 6329TIP3   OH240477   1.844   2.840  14.819  0.1149  0.1609  0.1567
 6329TIP3    H140478   1.930   2.807  14.847 -0.4401 -1.4602  0.0804
 6329TIP3    H240479   1.787   2.823  14.895 -0.9721 -2.4811 -1.1068
 6330TIP3   OH240480   6.233   4.680  11.621  0.0213  0.0369  1.0542
 6330TIP3    H140481   6.301   4.618  11.645 -0.0054  0.5449  2.5714
 6330TIP3    H240482   6.263   4.719  11.539  0.9851 -0.5640  1.1119
 6331TIP3   OH240483   1.814   6.405   4.466  0.5096  0.1732 -0.2031
 6331TIP3    H140484   1.821   6.450   4.550  1.1942 -0.6290  0.1871
 6331TIP3    H240485   1.722   6.378   4.461  0.2634  0.9663 -0.1169
 6332TIP3   OH240486   4.282   2.386   0.837  0.4293  0.0170  0.5736
 6332TIP3    H140487   4.296   2.467   0.787 -0.3930  0.2540  0.6996
 6332TIP3    H240488   4.308   2.316   0.778 -2.6839  0.1280 -1.1670
 6333TIP3   OH240489   2.182   6.682   2.224  0.3037 -0.5962 -0.2413
 6333TIP3    H140490   2.244   6.749   2.252  1.3687 -1.1469 -1.2312
 6333TIP3    H240491   2.215   6.651   2.140 -1.4394 -0.7564 -0.9135
 6334TIP3   OH240492   3.659   3.368  11.397  0.5702 -0.4013  0.7096
 6334TIP3    H140493   3.571   3.403  11.411  0.7764  0.2365  0.4521
 6334TIP3    H240494   3.717   3.430  11.442  0.7725 -1.8137  2.5091
 6335TIP3   OH240495   5.935   2.745   5.107  0.8533  0.1966  0.1324
 6335TIP3    H140496   5.927   2.834   5.072 -0.7472  0.8784  2.0444
 6335TIP3    H240497   6.019   2.745   5.153  1.4078  0.3201 -0.8475
 6336TIP3   OH240498   5.449   4.075   5.515 -0.3336  0.0400  0.4518
 6336TIP3    H140499   5.461   4.170   5.507  0.5224 -0.1009 -0.0354
 6336TIP3    H240500   5.354   4.063   5.514 -0.4679  0.9323  1.0356
 6337TIP3   OH240501   2.550   0.591  15.754  0.3740  0.2220 -0.7297
 6337TIP3    H140502   2.573   0.668  15.701  0.5127  0.2550 -0.6218
 6337TIP3    H240503   2.456   0.601  15.771  0.5809  0.8941  0.1232
 6338TIP3   OH240504   4.610   3.835   1.510 -0.7052 -0.2794 -0.2104
 6338TIP3    H140505   4.593   3.758   1.455 -2.7323 -1.3890  1.8016
 6338TIP3    H240506   4.648   3.799   1.590 -2.4066  0.6660  1.0789
 6339TIP3   OH240507   0.419   0.405  11.257  0.5267 -0.4882 -0.4021
 6339TIP3    H140508   0.339   0.403  11.204 -1.0518  2.4454  1.6186
 6339TIP3    H240509   0.394   0.363  11.339  0.9833  0.6042  0.3083
 6340TIP3   OH240510   0.475   6.108  14.142  0.3471  0.1102  0.0695
 6340TIP3    H140511   0.537   6.044  14.107  0.8691  0.5403  0.1860
 6340TIP3    H240512   0.391   6.062  14.144  0.8823 -0.8709  0.9716
 6341TIP3   OH240513   0.347   2.858   0.787 -0.6910  0.3120 -0.9385
 6341TIP3    H140514   0.416   2.801   0.753  0.2442 -0.3648  1.8299
 6341TIP3    H240515   0.393   2.916   0.848 -2.4132  0.5297  0.2075
 6342TIP3   OH240516   4.346   3.114   0.759 -0.0386 -0.6269  0.1673
 6342TIP3    H140517   4.274   3.095   0.699  0.2876 -0.3298 -0.3260
 6342TIP3    H240518   4.312   3.183   0.816 -0.0824 -0.3432 -0.1966
 6343TIP3   OH240519   1.638   3.298  11.248 -0.6657 -0.5321 -0.0447
 6343TIP3    H140520   1.616   3.206  11.238 -3.1464  0.0991 -1.1813
 6343TIP3    H240521   1.694   3.302  11.325 -1.3515 -2.8605  0.6345
 6344TIP3   OH240522   0.156   4.550  16.497 -0.3320 -0.1148  0.2272
 6344TIP3    H140523   0.105   4.630  16.514 -1.2501 -1.0266  2.0796
 6344TIP3    H240524   0.113   4.483  16.549 -0.1072 -2.0659 -1.9425
 6345TIP3   OH240525   1.752   2.917  13.534  0.3212 -0.1219 -0.3706
 6345TIP3    H140526   1.843   2.909  13.504  0.6537  1.3212  0.1573
 6345TIP3    H240527   1.755   2.889  13.625  0.3004  0.1589 -0.2812
 6346TIP3   OH240528   5.509   2.880   1.417  0.2808 -0.3126  0.5868
 6346TIP3    H140529   5.442   2.941   1.447  1.0013  1.4864 -1.2447
 6346TIP3    H240530   5.514   2.814   1.486 -1.7508  0.7321  1.8330
 6347TIP3   OH240531   1.341   3.286  14.211  0.5125 -0.3080  0.3624
 6347TIP3    H140532   1.283   3.301  14.286  0.4731  2.1399 -0.1041
 6347TIP3    H240533   1.320   3.197  14.183  0.2478 -1.1673  2.9886
 6348TIP3   OH240534   1.775   0.069  12.362  0.0461 -0.1752  0.0677
 6348TIP3    H140535   1.858   0.075  12.315  0.2491 -1.5470  0.2069
 6348TIP3    H240536   1.718   0.133  12.318  1.1976  0.8891  0.0622
 6349TIP3   OH240537   2.582   5.587  14.591 -0.2008  0.0765 -0.1045
 6349TIP3    H140538   2.667   5.586  14.635 -0.3815  1.6471  0.3413
 6349TIP3    H240539   2.601   5.561  14.501  0.7279  0.1916  0.0451
 6350TIP3   OH240540   3.623   6.042  10.825  0.6183  0.1030 -0.7254
 6350TIP3    H140541   3.607   6.051  10.731  1.6892 -2.5477 -1.2300
 6350TIP3    H240542   3.548   5.991  10.857  1.8066 -1.7411 -0.7838
 6351TIP3   OH240543   5.992   6.441   3.518  0.1305 -0.6242 -0.6273
 6351TIP3    H140544   6.066   6.400   3.473  0.1554  0.0024 -1.1730
 6351TIP3    H240545   5.954   6.499   3.453  0.1282  0.2615  0.1443
 6352TIP3   OH240546   4.324   2.094  14.943  0.1046 -0.0754  0.4460
 6352TIP3    H140547   4.318   2.158  15.013 -1.6472 -0.5906  0.8056
 6352TIP3    H240548   4.234   2.068  14.925  0.6594 -1.4416 -0.6161
 6353TIP3   OH240549   0.135   3.473   0.620  0.0761 -0.3012 -0.1489
 6353TIP3    H140550   0.067   3.530   0.655 -0.3298  0.2359 -1.7078
 6353TIP3    H240551   0.088   3.405   0.572  0.5289  1.3103 -3.1581
 6354TIP3   OH240552   2.231   4.224   1.588 -0.5536 -0.2351 -0.3238
 6354TIP3    H140553   2.239   4.273   1.506  1.0840  1.8665  0.9683
 6354TIP3    H240554   2.142   4.188   1.586 -1.1325  1.1271 -2.2825
 6355TIP3   OH240555   0.882   0.923   0.608  0.5333 -0.3633  0.0872
 6355TIP3    H140556   0.964   0.938   0.656 -0.3136 -0.1731  1.5487
 6355TIP3    H240557   0.817   0.910   0.677 -0.5397 -1.2535 -1.0577
 6356TIP3   OH240558   2.741   2.322   0.705  0.0153  0.2606 -0.1862
 6356TIP3    H140559   2.711   2.406   0.670 -0.0323 -0.4498 -1.9477
 6356TIP3    H240560   2.801   2.288   0.639 -1.0676 -1.7515 -0.2282
 6357TIP3   OH240561   4.985   0.994  16.750  0.1043 -0.0474  0.5696
 6357TIP3    H140562   4.965   0.956  16.665  2.6668  0.6721 -0.4424
 6357TIP3    H240563   4.901   1.024  16.784 -1.1612 -1.5613 -1.0694
 6358TIP3   OH240564   3.369   6.657  16.494 -0.3885 -0.4093 -0.0108
 6358TIP3    H140565   3.435   6.725  16.498  0.1982 -1.0288  1.3358
 6358TIP3    H240566   3.415   6.577  16.520 -1.0587 -1.3375 -1.5273
 6359TIP3   OH240567   1.679   6.118   5.770 -0.1133  0.6843 -0.4383
 6359TIP3    H140568   1.639   6.034   5.749  0.6882  0.0792  0.3674
 6359TIP3    H240569   1.618   6.183   5.735 -0.5392 -0.2281 -1.4366
 6360TIP3   OH240570   5.067   4.663  16.335 -0.1330 -0.1099 -0.5356
 6360TIP3    H140571   5.021   4.640  16.254 -2.0393 -0.1144  0.4856
 6360TIP3    H240572   5.148   4.613  16.332 -0.8656 -1.2752 -1.7451
 6361TIP3   OH240573   1.734   2.107   4.722  0.3397  0.2040 -0.4863
 6361TIP3    H140574   1.638   2.105   4.720  0.3240 -0.3950  0.3695
 6361TIP3    H240575   1.754   2.189   4.767  0.1399 -1.1128  2.1633
 6362TIP3   OH240576   6.091   0.234   3.264  0.0990  0.1032 -0.8781
 6362TIP3    H140577   6.154   0.250   3.334 -0.4921  0.0214 -0.3081
 6362TIP3    H240578   6.111   0.145   3.233  0.4213  0.1746 -0.8780
 6363TIP3   OH240579   0.322   0.212   5.103 -0.1282 -0.3982  0.0397
 6363TIP3    H140580   0.282   0.183   5.184 -1.5115 -1.2038 -0.8970
 6363TIP3    H240581   0.250   0.248   5.051  0.8408  0.7934 -0.5504
 6364TIP3   OH240582   2.307   4.073   0.070 -0.5427  0.0295 -0.0218
 6364TIP3    H140583   2.297   4.163   0.038  0.1899  0.0554 -0.1854
 6364TIP3    H240584   2.230   4.027   0.037 -1.5318  0.8668  1.0286
 6365TIP3   OH240585   1.951   6.354  12.475  0.1843  0.0246 -0.1546
 6365TIP3    H140586   1.956   6.260  12.489  3.4059 -0.1308 -1.5271
 6365TIP3    H240587   1.992   6.392  12.552  0.2075  0.2392 -0.2723
 6366TIP3   OH240588   1.558   0.928  11.244  0.0421  0.2631 -0.1414
 6366TIP3    H140589   1.612   0.855  11.214 -1.0512 -0.4053 -0.5277
 6366TIP3    H240590   1.468   0.894  11.241 -0.3171  0.9621  1.5923
 6367TIP3   OH240591   3.238   4.258   0.129  0.1309  0.2313 -0.4979
 6367TIP3    H140592   3.169   4.195   0.148  0.4594 -0.1384 -0.5227
 6367TIP3    H240593   3.201   4.343   0.154 -0.1383 -0.0276 -0.0164
 6368TIP3   OH240594   1.726   0.046   0.771  0.3467 -0.4693 -0.4549
 6368TIP3    H140595   1.806   0.095   0.791 -0.0755  0.3722 -0.7616
 6368TIP3    H240596   1.656   0.112   0.778 -0.2524 -1.0646 -0.7646
 6369TIP3   OH240597   1.687   0.064   4.688  0.2530 -0.3661  0.1676
 6369TIP3    H140598   1.726  -0.023   4.700 -1.0675 -1.4580 -2.5682
 6369TIP3    H240599   1.595   0.045   4.667  0.4135  1.4827 -2.7106
 6370TIP3   OH240600   3.072   6.444   3.785 -0.0513 -0.5722  0.9341
 6370TIP3    H140601   3.090   6.509   3.717  0.5386  1.0741  2.5580
 6370TIP3    H240602   2.980   6.455   3.806  0.2134  0.3184  1.7160
 6371TIP3   OH240603   3.358   5.711  13.248 -0.3857 -0.1907 -0.0679
 6371TIP3    H140604   3.377   5.766  13.172  1.9069 -0.5904  0.1596
 6371TIP3    H240605   3.298   5.644  13.215 -0.7944  0.6392 -1.0800
 6372TIP3   OH240606   4.346   4.209   2.472 -0.0444  0.1756 -0.7208
 6372TIP3    H140607   4.284   4.219   2.399 -1.2717 -1.2754  0.0520
 6372TIP3    H240608   4.337   4.117   2.498  2.0314  0.0756 -0.1779
 6373TIP3   OH240609   5.998   1.029   5.035 -0.8482  0.1305  0.2514
 6373TIP3    H140610   6.026   1.118   5.055  1.7030 -0.7020  0.7114
 6373TIP3    H240611   5.953   1.036   4.951 -0.6464  1.8236  0.2511
 6374TIP3   OH240612   6.232   4.643   2.477 -0.2308  0.1298  0.4575
 6374TIP3    H140613   6.219   4.734   2.504 -0.2495  0.5699 -0.9382
 6374TIP3    H240614   6.171   4.593   2.530 -0.9285  1.0516  0.5457
 6375TIP3   OH240615   4.090   0.329   1.181  0.1042 -0.0349 -0.0602
 6375TIP3    H140616   4.032   0.406   1.184  0.3226  0.1345 -0.1273
 6375TIP3    H240617   4.036   0.259   1.146 -0.0155  0.1636 -0.2721
 6376TIP3   OH240618   1.323   1.550   3.270 -0.2141  0.3237  0.3021
 6376TIP3    H140619   1.415   1.560   3.293 -0.7304  0.8007  2.3996
 6376TIP3    H240620   1.309   1.613   3.199  1.2326 -0.3660 -0.6381
 6377TIP3   OH240621   3.673   2.948  16.485  0.3904 -0.0968 -0.1006
 6377TIP3    H140622   3.714   2.872  16.443  0.3260  0.2841 -0.8807
 6377TIP3    H240623   3.580   2.939  16.466  0.3640  0.0961 -0.0685
 6378TIP3   OH240624   1.239   3.823   1.570 -0.4840  0.6301  0.5907
 6378TIP3    H140625   1.148   3.849   1.557 -1.0310 -1.5157 -0.2401
 6378TIP3    H240626   1.282   3.840   1.487 -0.6018 -0.1077  0.3708
 6379TIP3   OH240627   5.616   3.878  17.162  0.2500  0.3467 -0.0107
 6379TIP3    H140628   5.659   3.805  17.206 -2.5909 -1.2444  0.3808
 6379TIP3    H240629   5.627   3.859  17.069  0.5331  0.0656  0.0743
 6380TIP3   OH240630   2.785   2.805  13.693  0.4316 -0.0756 -0.0507
 6380TIP3    H140631   2.732   2.884  13.703 -0.7961 -0.6502 -1.5071
 6380TIP3    H240632   2.739   2.754  13.626  2.8392 -0.6321 -1.3953
 6381TIP3   OH240633   1.728   5.715  11.658  0.2968 -0.0285 -0.4095
 6381TIP3    H140634   1.759   5.625  11.665  0.8347  0.1325 -0.6792
 6381TIP3    H240635   1.647   5.716  11.708  0.6076 -0.5123  0.1101
 6382TIP3   OH240636   6.027   5.599  12.512 -0.4500  0.0824 -0.2651
 6382TIP3    H140637   6.021   5.503  12.508 -0.6972  0.0188  1.0830
 6382TIP3    H240638   6.078   5.616  12.591 -2.2776  1.0929  0.7564
 6383TIP3   OH240639   6.240   6.176   2.837 -0.6733 -0.3188  0.2012
 6383TIP3    H140640   6.304   6.124   2.886 -1.3427 -0.9395  0.4416
 6383TIP3    H240641   6.238   6.135   2.751 -0.3001  0.0897 -0.0059
 6384TIP3   OH240642   1.725   3.147  14.470  0.3453  0.3986 -0.2061
 6384TIP3    H140643   1.726   3.237  14.437 -2.4688  0.6410  0.1383
 6384TIP3    H240644   1.761   3.153  14.558 -0.0862  1.2468 -0.0791
 6385TIP3   OH240645   0.496   6.499   1.827 -0.4057 -0.5860 -0.0492
 6385TIP3    H140646   0.564   6.494   1.895 -1.6220 -1.1976  1.1632
 6385TIP3    H240647   0.533   6.450   1.753  1.5529  1.3119 -0.4368
 6386TIP3   OH240648   3.144   5.138  11.935 -0.0665  0.5798  0.3747
 6386TIP3    H140649   3.202   5.191  11.880 -0.1081  1.1734  0.8924
 6386TIP3    H240650   3.190   5.131  12.019 -0.4896  0.5902  0.6129
 6387TIP3   OH240651   6.374   0.142   0.971  0.3181  0.4021  0.7651
 6387TIP3    H140652   6.288   0.103   0.989  0.5476 -1.0171 -0.9554
 6387TIP3    H240653   6.435   0.086   1.018  0.5798 -0.9526 -1.0765
 6388TIP3   OH240654   6.530   5.946   4.431  0.1376 -0.1897 -0.2227
 6388TIP3    H140655   6.497   5.946   4.521  0.0072 -0.7728 -0.2649
 6388TIP3    H240656   6.579   5.864   4.424 -0.9188 -0.7835 -1.0655
 6389TIP3   OH240657   4.630   6.578   5.338  0.4051  0.4803  0.0022
 6389TIP3    H140658   4.657   6.651   5.282  0.5393 -0.0582 -0.6490
 6389TIP3    H240659   4.712   6.546   5.376  1.0098 -1.9155 -2.8924
 6390TIP3   OH240660   0.763   3.999  16.720  0.3304  0.2579 -0.5652
 6390TIP3    H140661   0.744   4.065  16.786 -0.6650  0.2188 -0.7952
 6390TIP3    H240662   0.716   4.029  16.642 -1.0935 -1.2723 -0.3599
 6391TIP3   OH240663   3.860   5.175   5.866  0.2608 -0.2544 -0.1861
 6391TIP3    H140664   3.848   5.266   5.837 -0.2216 -0.5882 -1.0602
 6391TIP3    H240665   3.922   5.138   5.804  1.0426 -0.3267  0.6189
 6392TIP3   OH240666   2.633   1.674  15.539  0.1526 -0.5137 -0.5226
 6392TIP3    H140667   2.656   1.758  15.499 -0.6563 -0.8264 -1.7056
 6392TIP3    H240668   2.563   1.695  15.600  1.9270  0.0911  1.3926
 6393TIP3   OH240669   3.920   2.008  15.978 -0.7594 -0.0911 -0.3858
 6393TIP3    H140670   3.976   2.068  15.927 -0.6539  1.0777  1.0370
 6393TIP3    H240671   3.855   2.065  16.018 -2.6080 -1.3566 -1.4571
 6394TIP3   OH240672   0.615   3.966  15.082 -0.0927 -0.1767  0.0984
 6394TIP3    H140673   0.565   4.046  15.091 -3.3587 -1.2886 -4.4015
 6394TIP3    H240674   0.660   3.975  14.997  0.9055 -2.4017  0.3112
 6395TIP3   OH240675   2.318   4.190   3.017  0.1099 -0.4897  0.3501
 6395TIP3    H140676   2.266   4.126   2.968  1.3975 -0.7999 -0.6786
 6395TIP3    H240677   2.331   4.149   3.103  1.4151 -1.9589 -0.4814
 6396TIP3   OH240678   5.561   5.647  13.590 -0.3381  0.0059 -0.1369
 6396TIP3    H140679   5.578   5.685  13.676  1.1855  0.3206 -0.5474
 6396TIP3    H240680   5.647   5.639  13.550 -0.7485 -2.4723 -0.6824
 6397TIP3   OH240681   3.055   1.975   3.404 -0.5558 -0.4741 -0.4939
 6397TIP3    H140682   3.017   1.915   3.468  0.1000 -0.6240 -0.2454
 6397TIP3    H240683   3.075   2.055   3.454  2.6048 -1.5587  0.1895
 6398TIP3   OH240684   3.979   3.522  14.312  0.0721  0.0851 -0.9040
 6398TIP3    H140685   4.010   3.540  14.223 -1.3405  1.0391 -1.2493
 6398TIP3    H240686   3.884   3.510  14.302 -0.4163  2.0518  0.6822
 6399TIP3   OH240687   1.449   3.103  15.366  0.7368 -0.1317  0.0699
 6399TIP3    H140688   1.369   3.131  15.320 -0.3504 -1.6505  0.9450
 6399TIP3    H240689   1.477   3.181  15.414 -0.4017  0.3436  0.0024
 6400TIP3   OH240690   0.691   2.366   1.076 -0.1696 -0.0465 -0.1873
 6400TIP3    H140691   0.657   2.305   1.141 -1.8167 -1.3827 -2.1586
 6400TIP3    H240692   0.785   2.351   1.076 -0.2853 -0.9014  0.9834
 6401TIP3   OH240693   2.685   2.467  14.443  0.0008 -0.2665 -0.4689
 6401TIP3    H140694   2.686   2.447  14.349 -1.9369 -1.0851 -0.3523
 6401TIP3    H240695   2.755   2.531  14.454  0.7786 -0.7267 -2.3381
 6402TIP3   OH240696   4.318   6.035  15.084  0.3909  0.4050  0.0859
 6402TIP3    H140697   4.303   5.968  15.018  1.7671 -0.0426  0.1959
 6402TIP3    H240698   4.231   6.073  15.100 -0.2137 -0.5439 -0.8215
 6403TIP3   OH240699   2.701   6.510  16.841  0.3135 -0.1259  0.3118
 6403TIP3    H140700   2.695   6.565  16.762 -1.0043  0.4129  0.7473
 6403TIP3    H240701   2.792   6.518  16.869  0.5754  0.4283 -0.6296
 6404TIP3   OH240702   2.909   5.640  15.102 -0.2717 -0.0754  0.3552
 6404TIP3    H140703   2.901   5.682  15.016  1.9460  2.5783  1.2972
 6404TIP3    H240704   2.869   5.702  15.163 -0.6550 -1.3111  1.3936
 6405TIP3   OH240705   2.534   4.218   1.034 -0.0176 -0.2008  0.2275
 6405TIP3    H140706   2.526   4.125   1.051  0.2770 -0.4029 -0.6928
 6405TIP3    H240707   2.470   4.259   1.092 -0.8346 -1.0480 -0.0565
 6406TIP3   OH240708   5.557   0.052   2.386 -0.5258 -0.2807 -0.2831
 6406TIP3    H140709   5.613   0.047   2.463  0.6779 -0.9580 -1.1686
 6406TIP3    H240710   5.538   0.145   2.375 -0.0629 -0.1101  0.3759
 6407TIP3   OH240711   1.103   4.962   5.230 -0.4474 -0.3071  0.0283
 6407TIP3    H140712   1.150   4.899   5.175  2.3947  0.9918  0.7498
 6407TIP3    H240713   1.076   4.911   5.306  2.2772 -0.7161  0.8618
 6408TIP3   OH240714   4.314   3.362  11.487  0.1448 -0.0818  0.5168
 6408TIP3    H140715   4.380   3.373  11.418  1.5869  3.6184  2.1841
 6408TIP3    H240716   4.358   3.310  11.554 -0.3537 -1.5317 -0.2499
 6409TIP3   OH240717   5.254   2.580   4.847  0.1288 -0.5353 -0.6180
 6409TIP3    H140718   5.287   2.580   4.757  1.5307  1.7236 -0.1714
 6409TIP3    H240719   5.229   2.671   4.864  0.4913 -0.7665  1.4727
 6410TIP3   OH240720   3.194   3.555   5.864 -0.0754  0.3740  0.1041
 6410TIP3    H140721   3.140   3.586   5.937  1.4795  0.0473  1.4407
 6410TIP3    H240722   3.198   3.460   5.877 -0.0136  0.2777 -0.5898
 6411TIP3   OH240723   2.493   1.112  17.069 -0.1037  0.4626  0.9198
 6411TIP3    H140724   2.588   1.116  17.078 -0.1666  0.3772  1.6582
 6411TIP3    H240725   2.459   1.170  17.138 -0.6030 -0.1144  1.1763
 6412TIP3   OH240726   1.039   1.561   1.902  0.4104  0.1420 -0.2780
 6412TIP3    H140727   1.105   1.596   1.961 -0.9762  0.1604  1.3329
 6412TIP3    H240728   1.043   1.617   1.825  1.2761  1.0461  0.4123
 6413TIP3   OH240729   6.563   3.223   2.326  0.3998  0.7009 -1.0118
 6413TIP3    H140730   6.504   3.147   2.329  2.2316 -0.8094 -1.0347
 6413TIP3    H240731   6.609   3.221   2.410 -0.1535  2.3460 -0.6510
 6414TIP3   OH240732   2.976   5.713   2.053  0.1294 -0.1351 -0.6446
 6414TIP3    H140733   2.902   5.654   2.038 -0.5420  0.8283 -1.2153
 6414TIP3    H240734   3.016   5.680   2.134 -0.8502 -0.7355 -0.3818
 6415TIP3   OH240735   0.051   0.046   2.364  0.0653 -0.1188 -0.0128
 6415TIP3    H140736   0.147   0.052   2.362  0.2006 -1.2893  1.0444
 6415TIP3    H240737   0.027   0.083   2.449 -0.4975  0.8064 -0.5641
 6416TIP3   OH240738   4.206   6.569   5.505  0.3608  0.0375 -0.0782
 6416TIP3    H140739   4.189   6.636   5.570  2.7733 -0.9032  1.6686
 6416TIP3    H240740   4.160   6.492   5.537 -1.2085  0.4094 -1.3195
 6417TIP3   OH240741   5.968   5.314  12.561 -0.0627 -0.2356 -0.0869
 6417TIP3    H140742   5.950   5.266  12.481 -0.8147  1.5107 -1.0095
 6417TIP3    H240743   5.925   5.263  12.630  1.4842 -2.3297 -0.5574
 6418TIP3   OH240744   6.563   2.087  14.741 -0.3697 -1.0113  0.3021
 6418TIP3    H140745   6.556   2.181  14.755  1.3581 -0.6321 -1.0499
 6418TIP3    H240746   6.650   2.074  14.702 -0.9784 -3.0354 -0.5544
 6419TIP3   OH240747   4.360   4.616   3.122 -0.3399  0.8565  0.3431
 6419TIP3    H140748   4.389   4.560   3.195  0.2648  2.2818  1.2355
 6419TIP3    H240749   4.441   4.639   3.077 -0.4676  1.7553  0.5516
 6420TIP3   OH240750   4.995   4.674   3.532 -0.0219 -0.0642  0.2500
 6420TIP3    H140751   5.020   4.756   3.574  1.5372  0.5764 -1.7397
 6420TIP3    H240752   4.955   4.701   3.449  0.1806 -1.2978 -0.2786
 6421TIP3   OH240753   5.563   2.948  13.656 -0.5539  0.3720 -0.3226
 6421TIP3    H140754   5.470   2.965  13.662 -1.0055 -1.7098 -0.6428
 6421TIP3    H240755   5.589   2.924  13.745 -0.7288 -0.7490 -0.5558
 6422TIP3   OH240756   1.188   1.569  16.080 -0.3253  0.5958  0.3494
 6422TIP3    H140757   1.247   1.516  16.027 -1.1740  0.3525 -0.3824
 6422TIP3    H240758   1.228   1.570  16.167  0.8556  0.6237 -0.1751
 6423TIP3   OH240759   2.987   1.621   3.896  0.3605 -0.1078  0.1219
 6423TIP3    H140760   2.895   1.635   3.921  0.0100 -2.2298  0.1996
 6423TIP3    H240761   2.988   1.638   3.802 -0.3503 -0.9873 -0.0599
 6424TIP3   OH240762   1.271   2.097  13.855 -0.7540 -0.0695 -0.5725
 6424TIP3    H140763   1.275   2.192  13.845 -1.2555 -0.0288 -0.4303
 6424TIP3    H240764   1.362   2.069  13.851 -0.5151  0.5211  0.4716
 6425TIP3   OH240765   5.497   1.283   5.070 -0.2021 -0.3017  0.1196
 6425TIP3    H140766   5.510   1.190   5.054 -2.5022 -0.6917  0.1654
 6425TIP3    H240767   5.552   1.327   5.006 -0.5026 -1.7231 -1.1716
 6426TIP3   OH240768   6.725   3.765  11.371  0.2793  0.0570  0.2419
 6426TIP3    H140769   6.811   3.777  11.411  0.6745 -0.0580 -0.5564
 6426TIP3    H240770   6.663   3.782  11.442  0.9483  0.6084  0.7092
 6427TIP3   OH240771   4.995   2.941   2.294 -0.3334 -0.5695  0.1210
 6427TIP3    H140772   4.983   2.968   2.203 -1.4698 -0.9264  0.1513
 6427TIP3    H240773   5.070   2.993   2.324 -1.2136  1.0904 -0.4050
 6428TIP3   OH240774   3.492   0.623   1.967  0.0457  0.2212 -0.2519
 6428TIP3    H140775   3.583   0.646   1.984  0.0583 -0.8777  1.4176
 6428TIP3    H240776   3.485   0.531   1.993 -1.7404  0.5430  0.5543
 6429TIP3   OH240777   2.731   2.531   0.939  0.2082 -0.0729 -0.1460
 6429TIP3    H140778   2.738   2.438   0.958  2.3909 -0.0011 -0.2681
 6429TIP3    H240779   2.657   2.539   0.879  0.8256 -1.9172 -1.2292
 6430TIP3   OH240780   0.285   4.926  13.417 -0.5308 -0.1339 -0.1474
 6430TIP3    H140781   0.264   4.959  13.504 -1.7836  2.6050 -1.3370
 6430TIP3    H240782   0.326   5.001  13.372  0.5944 -1.6291 -1.7541
 6431TIP3   OH240783   1.609   0.785   0.931 -0.3686  0.7171 -0.0038
 6431TIP3    H140784   1.579   0.697   0.951  0.1373  0.2211 -1.3229
 6431TIP3    H240785   1.607   0.790   0.836 -0.0714  2.0209  0.0418
 6432TIP3   OH240786   2.748   5.823  15.585  0.1681  0.0937 -0.3191
 6432TIP3    H140787   2.756   5.874  15.666  1.7245  2.2517 -1.7297
 6432TIP3    H240788   2.802   5.745  15.600 -0.7720 -0.2879  1.2307
 6433TIP3   OH240789   5.558   4.590   4.643 -0.0502  0.5291  0.3721
 6433TIP3    H140790   5.483   4.640   4.676  0.1756  0.9012  0.3286
 6433TIP3    H240791   5.554   4.507   4.691 -0.3526  0.6407  0.5447
 6434TIP3   OH240792   0.143   2.657   6.761  0.2649  0.3423  0.1836
 6434TIP3    H140793   0.202   2.639   6.688 -0.5362 -0.3700 -0.3025
 6434TIP3    H240794   0.178   2.606   6.834  0.4098  0.1367 -0.0273
 6435TIP3   OH240795   4.833   4.654   1.842 -0.5669  0.2869 -0.0211
 6435TIP3    H140796   4.916   4.674   1.799  1.1992 -1.3063  2.3716
 6435TIP3    H240797   4.825   4.720   1.911 -2.0265  1.2261 -1.0320
 6436TIP3   OH240798   3.896   5.087   4.784 -0.1537 -0.1106  0.2864
 6436TIP3    H140799   3.846   5.113   4.862 -1.2606  1.8147 -0.9691
 6436TIP3    H240800   3.982   5.128   4.796 -0.6738  1.0931  0.0449
 6437TIP3   OH240801   5.325   5.594   0.345 -0.1024  0.1671 -0.4252
 6437TIP3    H140802   5.382   5.574   0.271  0.5457  0.0198  0.1004
 6437TIP3    H240803   5.363   5.673   0.384 -0.2091  0.0280 -0.0282
 6438TIP3   OH240804   5.870   0.039  17.289  0.9393 -0.6189  0.4742
 6438TIP3    H140805   5.853   0.124  17.329  0.5392  0.0913 -1.1139
 6438TIP3    H240806   5.789  -0.010  17.300 -0.0661  0.4821 -1.5844
 6439TIP3   OH240807   0.704   0.850  15.087  0.4431  0.1052 -0.1765
 6439TIP3    H140808   0.611   0.845  15.109  0.5397  1.7583  0.7887
 6439TIP3    H240809   0.708   0.910  15.012  0.6883 -0.5458 -0.6980
 6440TIP3   OH240810   2.973   4.702   3.796  0.0320  0.0353  0.4251
 6440TIP3    H140811   3.020   4.756   3.859  1.5787 -1.1614  0.3518
 6440TIP3    H240812   2.908   4.655   3.848  0.2594  0.2024  0.8658
 6441TIP3   OH240813   6.482   4.415  16.787  0.2707 -0.2153 -0.1609
 6441TIP3    H140814   6.473   4.383  16.697 -0.5869 -0.9827  0.1710
 6441TIP3    H240815   6.401   4.463  16.804  0.0287 -0.8257  0.4767
 6442TIP3   OH240816   0.979   5.350   2.025  0.4832 -0.5001  0.2382
 6442TIP3    H140817   0.999   5.402   2.103 -0.0637 -0.5683  0.4277
 6442TIP3    H240818   0.895   5.308   2.045  0.4591 -0.7090 -0.2903
 6443TIP3   OH240819   5.572   1.348  11.120 -0.3126  0.4100 -0.1067
 6443TIP3    H140820   5.622   1.395  11.187 -1.5662  0.5375  0.7741
 6443TIP3    H240821   5.556   1.262  11.158 -1.0711  0.4957 -0.2168
 6444TIP3   OH240822   6.091   6.767   1.570 -0.4488  0.2092  0.1716
 6444TIP3    H140823   5.999   6.742   1.569 -0.5755  0.6254 -1.1454
 6444TIP3    H240824   6.097   6.833   1.639 -1.3573  0.9018 -0.3892
 6445TIP3   OH240825   6.022   4.577  14.639  0.3718  0.3945 -0.5460
 6445TIP3    H140826   5.981   4.507  14.690  0.5434  1.0814  0.5513
 6445TIP3    H240827   6.006   4.552  14.548 -1.6383  0.1408 -0.1722
 6446TIP3   OH240828   1.148   4.539  15.863  0.0906 -0.7109 -0.1081
 6446TIP3    H140829   1.161   4.551  15.769  1.1926  1.6201  0.2944
 6446TIP3    H240830   1.235   4.518  15.896 -0.3538 -1.8416  0.3829
 6447TIP3   OH240831   3.369   0.948  17.282  0.1619  0.3646 -0.1273
 6447TIP3    H140832   3.442   1.010  17.280  0.9425 -0.5309 -0.5061
 6447TIP3    H240833   3.411   0.863  17.298 -0.7647 -0.2155 -0.7095
 6448TIP3   OH240834   3.397   4.145  14.048  0.3800  0.3069  0.1567
 6448TIP3    H140835   3.435   4.098  14.122  2.3118  1.7878  0.1848
 6448TIP3    H240836   3.360   4.077  13.992 -1.5205 -0.8345  2.6307
 6449TIP3   OH240837   6.112   1.308  16.152 -0.0234 -0.0493 -0.4831
 6449TIP3    H140838   6.192   1.329  16.103  0.9308 -0.7189  0.7496
 6449TIP3    H240839   6.076   1.232  16.107 -0.4826  0.7753 -1.5786
 6450TIP3   OH240840   1.106   5.217   5.275 -0.5363 -0.1087 -0.0802
 6450TIP3    H140841   1.172   5.247   5.212 -0.8334 -1.6182 -1.1987
 6450TIP3    H240842   1.110   5.121   5.268 -1.4380 -0.2660  1.3286
 6451TIP3   OH240843   2.901   5.286  13.638 -0.5774  0.2810  0.3968
 6451TIP3    H140844   2.952   5.260  13.561 -2.2161 -0.1337 -0.6102
 6451TIP3    H240845   2.964   5.329  13.695  0.6223  1.0151 -1.3697
 6452TIP3   OH240846   0.121   2.446   5.582  0.8716 -0.5537 -0.8111
 6452TIP3    H140847   0.209   2.426   5.614  1.3002  0.0492 -1.5813
 6452TIP3    H240848   0.066   2.445   5.661  1.5006 -1.2584 -0.3710
 6453TIP3   OH240849   0.075   6.564  15.264 -0.2095 -0.1874  0.6814
 6453TIP3    H140850   0.119   6.545  15.181 -0.8908  0.7508  0.0875
 6453TIP3    H240851   0.035   6.480  15.289  0.4872 -0.6203  0.3653
 6454TIP3   OH240852   6.704   6.672   2.429  0.3493  0.2770  0.2024
 6454TIP3    H140853   6.746   6.601   2.380 -0.2133  0.2499 -0.2573
 6454TIP3    H240854   6.758   6.749   2.412  0.6765  0.0708  0.2933
 6455TIP3   OH240855   5.581   2.234   5.109  0.3277 -0.0878 -0.7192
 6455TIP3    H140856   5.536   2.309   5.070  0.1382  0.1112 -0.1255
 6455TIP3    H240857   5.589   2.171   5.037 -2.1406 -0.7178 -0.5250
 6456TIP3   OH240858   2.699   1.387   1.506  0.0650  0.5886  0.1232
 6456TIP3    H140859   2.770   1.326   1.488  1.4601  2.5493 -1.4521
 6456TIP3    H240860   2.723   1.429   1.588 -0.1409  0.0848  0.4442
 6457TIP3   OH240861   4.382   2.672   3.763  0.5847  0.2802  0.0290
 6457TIP3    H140862   4.382   2.767   3.761  1.8484  0.3328  1.2619
 6457TIP3    H240863   4.290   2.648   3.774  0.3488  1.3950  0.6143
 6458TIP3   OH240864   1.564   5.807  15.352 -0.3333 -0.3815  0.2937
 6458TIP3    H140865   1.618   5.870  15.304  2.6435 -1.7782  1.5312
 6458TIP3    H240866   1.574   5.725  15.303 -2.2198 -0.4977  0.0252
 6459TIP3   OH240867   4.661   0.561   3.563 -0.2009  0.0407  0.3823
 6459TIP3    H140868   4.697   0.473   3.551 -1.8805 -0.6939  0.3390
 6459TIP3    H240869   4.609   0.577   3.484 -0.3254  0.8585  0.6164
 6460TIP3   OH240870   5.671   5.704   0.338 -0.0054  0.3984 -0.2858
 6460TIP3    H140871   5.750   5.694   0.390 -0.7255 -1.1748  0.5727
 6460TIP3    H240872   5.603   5.729   0.400 -0.9299 -1.7416 -0.3222
 6461TIP3   OH240873   0.596   5.695  13.695  0.2462 -0.6046 -0.4003
 6461TIP3    H140874   0.605   5.755  13.769 -0.9100 -0.3627 -0.4331
 6461TIP3    H240875   0.649   5.619  13.719  0.0476 -0.4492  0.5930
 6462TIP3   OH240876   3.810   3.603  11.492  0.3957  0.3413 -0.1171
 6462TIP3    H140877   3.793   3.688  11.533 -2.0820 -0.5715  0.9678
 6462TIP3    H240878   3.796   3.619  11.399  1.0592  1.3580 -0.0620
 6463TIP3   OH240879   1.274   2.840  14.410  0.2737 -0.3204 -0.1150
 6463TIP3    H140880   1.285   2.929  14.378 -1.6212  0.7827  1.9922
 6463TIP3    H240881   1.222   2.796  14.343  0.3171  0.4781 -0.6867
 6464TIP3   OH240882   5.329   2.228  16.257 -0.6240 -0.2074  0.3233
 6464TIP3    H140883   5.301   2.138  16.277 -0.9211 -0.7901 -2.3809
 6464TIP3    H240884   5.247   2.277  16.250 -0.5816 -0.2174 -0.2651
 6465TIP3   OH240885   0.195   2.854  10.338  0.1840  0.7611  0.2721
 6465TIP3    H140886   0.108   2.814  10.340  0.5549 -0.0747 -0.0057
 6465TIP3    H240887   0.180   2.942  10.303 -0.4149  0.2588 -0.7706
 6466TIP3   OH240888   1.989   0.159   5.269 -0.2697 -0.2442 -0.1278
 6466TIP3    H140889   1.938   0.171   5.189 -0.5369  0.4596  0.1343
 6466TIP3    H240890   1.938   0.097   5.321 -1.1556  0.8504  0.3572
 6467TIP3   OH240891   1.293   0.534   5.242 -0.4161 -0.4465 -0.1731
 6467TIP3    H140892   1.267   0.624   5.259 -2.5937 -0.9867 -0.2463
 6467TIP3    H240893   1.210   0.487   5.231  0.5561 -2.7734  1.4807
 6468TIP3   OH240894   3.057   0.924  15.409  0.0482  0.0426  0.0733
 6468TIP3    H140895   3.083   0.838  15.441  0.7621 -0.3375 -1.4584
 6468TIP3    H240896   3.085   0.926  15.317 -0.3822  1.7251 -0.0644
 6469TIP3   OH240897   6.325   6.593   4.134  0.3250  0.0169  0.4614
 6469TIP3    H140898   6.304   6.630   4.220  1.3642  0.3474  0.5801
 6469TIP3    H240899   6.357   6.505   4.153 -0.6451 -0.3785  0.3039
 6470TIP3   OH240900   0.755   3.718  15.146  0.1202  0.4199  0.4515
 6470TIP3    H140901   0.676   3.767  15.121  1.5699  1.7083 -1.9762
 6470TIP3    H240902   0.804   3.778  15.201 -0.0957 -0.0079  1.1268
 6471TIP3   OH240903   5.022   5.881   2.432  0.4843 -0.2164 -0.0610
 6471TIP3    H140904   5.031   5.937   2.509 -0.6144 -1.4654  1.0233
 6471TIP3    H240905   4.972   5.806   2.463 -1.2449 -0.1008 -2.3331
 6472TIP3   OH240906   3.921   3.747   1.221  0.2118  0.8048  0.0984
 6472TIP3    H140907   3.945   3.798   1.298 -0.0180  0.9004  0.1063
 6472TIP3    H240908   3.825   3.751   1.218 -0.0973 -2.4088  2.0162
 6473TIP3   OH240909   2.874   6.610   0.168 -0.6354 -0.0136  0.5260
 6473TIP3    H140910   2.961   6.641   0.144 -0.8887  0.7421  0.5464
 6473TIP3    H240911   2.816   6.684   0.149 -0.9940  0.2243  2.4166
 6474TIP3   OH240912   0.431   2.498  14.122 -0.0765  0.0945  0.4075
 6474TIP3    H140913   0.343   2.518  14.152  0.1458  1.3063  0.3125
 6474TIP3    H240914   0.488   2.534  14.190  0.3524 -0.6776  0.4668
 6475TIP3   OH240915   0.789   2.188  16.742 -0.7095  0.4188  0.5324
 6475TIP3    H140916   0.836   2.270  16.755 -0.9555  0.6610 -0.0666
 6475TIP3    H240917   0.759   2.192  16.651 -0.5080 -0.4425  0.4169
 6476TIP3   OH240918   2.184   6.649  14.031  0.1195  0.0616 -0.0359
 6476TIP3    H140919   2.263   6.667  14.083 -0.2976 -0.4169  0.7840
 6476TIP3    H240920   2.215   6.592  13.960  0.4725 -0.3550  0.4382
 6477TIP3   OH240921   6.119   1.226  17.143 -0.4021 -0.6612 -0.2010
 6477TIP3    H140922   6.100   1.174  17.065 -0.4460 -0.2288 -0.4808
 6477TIP3    H240923   6.198   1.275  17.120  0.0570 -1.1470  0.3271
 6478TIP3   OH240924   2.413   3.004   1.353 -0.5131 -0.2035 -0.4679
 6478TIP3    H140925   2.409   3.086   1.303 -1.1497 -0.0449 -0.1709
 6478TIP3    H240926   2.506   2.981   1.353  0.0207  1.5909  1.1098
 6479TIP3   OH240927   4.821   1.993   5.273  0.4253 -0.1858  0.1119
 6479TIP3    H140928   4.749   1.937   5.301  1.3327 -1.7992 -0.6255
 6479TIP3    H240929   4.876   1.937   5.218  2.2665  0.9563  0.6621
 6480TIP3   OH240930   6.486   4.432  14.223  0.2192  0.3964  0.6012
 6480TIP3    H140931   6.394   4.447  14.200  0.0690 -0.4434  0.6167
 6480TIP3    H240932   6.518   4.374  14.154  0.7398  0.6813  0.6014
 6481TIP3   OH240933   3.421   6.524  13.229  0.2078  0.0935  0.2360
 6481TIP3    H140934   3.357   6.557  13.292 -1.0983  2.3544 -2.0976
 6481TIP3    H240935   3.504   6.565  13.255 -0.0933  0.1957  1.0536
 6482TIP3   OH240936   1.773   2.455  11.299  0.4921  0.0136  0.1622
 6482TIP3    H140937   1.814   2.370  11.281  0.9903  0.2436  0.1916
 6482TIP3    H240938   1.719   2.472  11.221  0.2562 -0.4026  0.2276
 6483TIP3   OH240939   5.487   4.845   0.771 -0.0036  0.0624  0.2229
 6483TIP3    H140940   5.445   4.873   0.690  0.2386 -1.2883 -0.3994
 6483TIP3    H240941   5.565   4.901   0.778 -0.6511  0.9868  0.1588
 6484TIP3   OH240942   3.420   4.267  15.863  0.3378 -0.2294 -0.4371
 6484TIP3    H140943   3.471   4.248  15.943  2.0716 -0.0686 -1.4525
 6484TIP3    H240944   3.366   4.342  15.887  1.8068  0.6651  0.2322
 6485TIP3   OH240945   6.686   2.769   2.292  0.3986 -0.0365 -0.1134
 6485TIP3    H140946   6.695   2.833   2.222  0.8545 -1.4678 -1.3992
 6485TIP3    H240947   6.594   2.745   2.291  0.7028 -1.2605 -1.3568
 6486TIP3   OH240948   5.725   3.522   3.395  0.5274 -0.1595  0.0974
 6486TIP3    H140949   5.810   3.501   3.356  1.4868  1.8581  0.9557
 6486TIP3    H240950   5.737   3.503   3.488  0.4819  1.3213  0.4176
 6487TIP3   OH240951   4.990   2.120  12.338  0.0278 -0.8304  0.1521
 6487TIP3    H140952   4.920   2.178  12.367 -1.3888 -2.2068 -0.4187
 6487TIP3    H240953   5.008   2.065  12.414  1.1263  0.0585  0.5758
 6488TIP3   OH240954   6.588   3.420   0.167 -0.1959 -0.0084  0.1313
 6488TIP3    H140955   6.584   3.494   0.227 -0.3817 -0.9991  1.3750
 6488TIP3    H240956   6.675   3.382   0.181 -0.2928 -0.3282 -0.1150
 6489TIP3   OH240957   0.544   3.892   4.906  0.2192  0.0856 -0.4287
 6489TIP3    H140958   0.496   3.810   4.891 -1.0980  0.8077 -0.3735
 6489TIP3    H240959   0.565   3.924   4.819  0.0431  0.0709 -0.4776
 6490TIP3   OH240960   4.373   1.783   5.606 -0.1380  0.2809 -0.9954
 6490TIP3    H140961   4.385   1.855   5.668  1.4018  0.0836 -1.0248
 6490TIP3    H240962   4.401   1.817   5.522  0.2967 -0.2471 -1.0725
 6491TIP3   OH240963   5.463   6.563   2.881 -0.9089  0.4838 -0.0338
 6491TIP3    H140964   5.555   6.574   2.904 -0.3794 -0.6074 -1.4620
 6491TIP3    H240965   5.419   6.547   2.965  0.4757 -0.6686  0.5121
 6492TIP3   OH240966   5.250   4.865   5.492 -0.2190  0.1149  0.0248
 6492TIP3    H140967   5.273   4.801   5.560 -1.2099 -0.2682  0.0110
 6492TIP3    H240968   5.335   4.897   5.460  0.2834 -0.7966  0.4035
 6493TIP3   OH240969   1.655   6.191   2.272  0.3324  0.1536 -0.5378
 6493TIP3    H140970   1.635   6.098   2.261  0.9419  0.1331 -1.6281
 6493TIP3    H240971   1.723   6.193   2.338 -0.5581 -0.0609  0.4178
 6494TIP3   OH240972   0.547   3.422  12.756  0.8042  0.3239  0.6974
 6494TIP3    H140973   0.504   3.466  12.829  0.6522  2.4085 -0.5644
 6494TIP3    H240974   0.479   3.366  12.718  0.7275 -0.3351  1.7547
 6495TIP3   OH240975   4.795   6.743   1.338 -0.4165  0.4700  0.4717
 6495TIP3    H140976   4.768   6.796   1.263  2.8887  0.3907 -0.9259
 6495TIP3    H240977   4.880   6.778   1.363  1.3038 -3.1996  0.3761
 6496TIP3   OH240978   2.219   0.461  15.927  0.4204  0.4796  0.0939
 6496TIP3    H140979   2.255   0.549  15.936  0.9873  0.3259 -0.5644
 6496TIP3    H240980   2.129   0.469  15.958  0.5760  1.2054  0.3833
 6497TIP3   OH240981   2.546   3.448  13.851  0.3448 -0.0127 -0.2111
 6497TIP3    H140982   2.594   3.426  13.772  0.5453  0.1390 -0.1328
 6497TIP3    H240983   2.506   3.533  13.833 -1.4318 -0.9433 -0.9689
 6498TIP3   OH240984   0.361   0.333  13.944 -0.6393  0.1101  0.1800
 6498TIP3    H140985   0.282   0.310  13.894 -0.2638 -0.2981 -0.2435
 6498TIP3    H240986   0.358   0.428  13.951 -0.7468  0.1722 -0.5598
 6499TIP3   OH240987   2.407   1.400   4.720  0.0047  0.8881 -0.5272
 6499TIP3    H140988   2.417   1.354   4.636  0.0313  1.8319 -1.0587
 6499TIP3    H240989   2.312   1.411   4.729 -0.1400 -0.8348  0.4933
 6500TIP3   OH240990   5.737   5.157  16.084 -0.0729 -0.0370 -0.3102
 6500TIP3    H140991   5.686   5.136  16.162 -1.7589  0.2506 -1.2737
 6500TIP3    H240992   5.788   5.234  16.109 -0.8735  0.2803  0.4041
 6501TIP3   OH240993   1.191   0.187   5.298  0.4845  0.1973 -0.7014
 6501TIP3    H140994   1.144   0.172   5.380  1.9980  0.2504  0.2227
 6501TIP3    H240995   1.161   0.117   5.240 -0.9690  0.4453 -0.2674
 6502TIP3   OH240996   5.498   6.386  15.982 -0.2302  0.1001 -0.3385
 6502TIP3    H140997   5.540   6.353  16.062 -1.2921  1.4314  0.8111
 6502TIP3    H240998   5.478   6.478  16.001 -1.7916  0.0655 -1.6149
 6503TIP3   OH240999   3.152   5.613   4.330  0.2226  0.2680  0.1621
 6503TIP3    H141000   3.165   5.650   4.243 -0.1629  1.6022  0.6487
 6503TIP3    H241001   3.077   5.661   4.366 -1.3795 -2.1061  0.2288
 6504TIP3   OH241002   6.025   4.610   1.019  0.2208 -0.2567 -0.1209
 6504TIP3    H141003   5.986   4.597   1.106  0.5092  0.0099  0.0502
 6504TIP3    H241004   6.101   4.552   1.018  1.5399  1.3560  0.6627
 6505TIP3   OH241005   5.934   6.763  16.763  0.1958  0.5538  0.0143
 6505TIP3    H141006   5.997   6.702  16.724  0.0216  1.3956 -1.6652
 6505TIP3    H241007   5.938   6.744  16.857  2.2425 -0.0673 -0.1458
 6506TIP3   OH241008   0.406   6.251  15.638  0.2025 -0.3665 -0.4228
 6506TIP3    H141009   0.337   6.318  15.631 -1.1302 -1.0992  3.5088
 6506TIP3    H241010   0.389   6.193  15.564 -2.1696  0.5775 -0.7368
 6507TIP3   OH241011   2.023   4.557   3.035  0.3641 -0.2476  0.2531
 6507TIP3    H141012   2.033   4.547   3.129 -0.1404  0.9792  0.4643
 6507TIP3    H241013   2.103   4.520   2.998  1.1596  0.4040  1.2529
 6508TIP3   OH241014   2.083   4.140   4.303  0.2275 -0.0861 -0.4520
 6508TIP3    H141015   2.090   4.190   4.384 -2.3942 -1.0379  0.4475
 6508TIP3    H241016   2.137   4.189   4.240  0.0030  2.3045  1.0840
 6509TIP3   OH241017   4.490   4.747  13.461  0.1419 -0.1600 -0.5202
 6509TIP3    H141018   4.478   4.839  13.435 -0.8365 -0.6135 -1.7663
 6509TIP3    H241019   4.580   4.743  13.495 -0.4840  1.6963  1.6131
 6510TIP3   OH241020   4.808   0.125   5.318  0.5225 -0.3293 -0.0141
 6510TIP3    H141021   4.747   0.077   5.262  1.9301 -1.7372 -0.4043
 6510TIP3    H241022   4.818   0.210   5.275 -2.0262  0.4243  0.6986
 6511TIP3   OH241023   0.840   6.458   0.361 -0.0602 -0.7375  0.1860
 6511TIP3    H141024   0.888   6.478   0.441  0.5678 -0.7459 -0.1836
 6511TIP3    H241025   0.777   6.390   0.387 -1.6850  1.0574  1.2816
 6512TIP3   OH241026   6.377   6.688   1.313  0.3377 -0.4287 -0.2501
 6512TIP3    H141027   6.407   6.702   1.223  1.6066 -1.4519 -0.0149
 6512TIP3    H241028   6.319   6.612   1.307  1.3956 -1.2713 -0.0405
 6513TIP3   OH241029   5.619   1.973  13.576 -0.3538  0.0067 -0.5484
 6513TIP3    H141030   5.652   1.915  13.506 -0.6709  1.0350 -1.5763
 6513TIP3    H241031   5.693   1.984  13.635  0.1090 -0.3897 -1.0439
 6514TIP3   OH241032   3.369   1.139   4.212 -0.7924  0.0382  0.3950
 6514TIP3    H141033   3.430   1.079   4.254 -1.4688 -1.6130 -0.8712
 6514TIP3    H241034   3.289   1.089   4.202 -0.7692  0.4201 -2.5464
 6515TIP3   OH241035   4.999   1.630  12.438  0.0350 -0.5050  0.2950
 6515TIP3    H141036   4.979   1.573  12.364 -2.3938 -1.3998  1.5174
 6515TIP3    H241037   5.041   1.573  12.502  0.8297 -0.0580  0.1916
 6516TIP3   OH241038   1.092   1.161   0.474  0.0031  0.5326  0.0422
 6516TIP3    H141039   1.156   1.093   0.456 -0.4679  0.2236 -0.5085
 6516TIP3    H241040   1.027   1.152   0.404  0.0604  1.7053 -0.1809
 6517TIP3   OH241041   0.621   2.208   1.276 -0.3422  0.0019 -0.3259
 6517TIP3    H141042   0.541   2.175   1.318 -0.3506 -1.1977 -1.2203
 6517TIP3    H241043   0.691   2.185   1.337 -0.1725 -3.0608 -1.5033
 6518TIP3   OH241044   5.733   4.418   3.017  0.1999  0.3593  0.1124
 6518TIP3    H141045   5.704   4.327   3.018 -0.2013  0.4832  0.4300
 6518TIP3    H241046   5.656   4.467   3.048  0.4140  0.8020 -0.0497
 6519TIP3   OH241047   1.326   4.740   1.081 -0.3137 -0.8098 -0.3130
 6519TIP3    H141048   1.320   4.691   1.163 -1.2150  0.3905  0.3801
 6519TIP3    H241049   1.400   4.701   1.034  1.8930  0.1202  2.1901
 6520TIP3   OH241050   0.452   0.775   4.070 -0.0049 -0.0800  0.1228
 6520TIP3    H141051   0.440   0.699   4.127  0.9212 -1.5195 -1.4910
 6520TIP3    H241052   0.547   0.787   4.065 -0.1215  0.7917 -0.1291
 6521TIP3   OH241053   5.720   5.005   3.238 -0.4352 -0.4536 -0.0159
 6521TIP3    H141054   5.810   4.980   3.219  0.0417  0.8586  0.3783
 6521TIP3    H241055   5.688   4.938   3.299  0.3631 -0.7873  0.0395
 6522TIP3   OH241056   3.858   0.031   4.077  0.3326  0.6343 -0.3316
 6522TIP3    H141057   3.839   0.109   4.129 -0.0406 -1.2419  2.6486
 6522TIP3    H241058   3.952   0.033   4.064  0.5348  0.9191  0.9962
 6523TIP3   OH241059   0.689   4.673  11.892 -0.1238  0.0386 -0.7257
 6523TIP3    H141060   0.784   4.667  11.885  0.0730 -1.2451  1.8621
 6523TIP3    H241061   0.671   4.767  11.892  1.3154  0.3417  0.1563
 6524TIP3   OH241062   1.886   1.199  14.703  0.5687  0.2911 -0.1310
 6524TIP3    H141063   1.929   1.162  14.625  1.4456  1.8509 -0.4290
 6524TIP3    H241064   1.953   1.253  14.744 -0.4406  0.9553  0.6904
 6525TIP3   OH241065   2.979   0.791  13.352 -0.1870  0.0661  0.4158
 6525TIP3    H141066   3.045   0.722  13.344  0.8889  1.0489  0.5117
 6525TIP3    H241067   2.951   0.786  13.444  0.2867  0.1045  0.5657
 6526TIP3   OH241068   2.642   1.881  14.686  0.1466 -0.3786 -0.1664
 6526TIP3    H141069   2.589   1.934  14.745  0.1222 -0.0187 -0.5039
 6526TIP3    H241070   2.732   1.896  14.715  0.0774 -0.8412  0.2876
 6527TIP3   OH241071   0.243   4.680   0.740 -0.4477  0.2093  0.3758
 6527TIP3    H141072   0.234   4.716   0.828 -0.1875 -0.9059  0.8794
 6527TIP3    H241073   0.217   4.589   0.749 -0.8193  0.1846 -0.8010
 6528TIP3   OH241074   4.478   1.464   4.744 -0.0294  0.1210  0.3759
 6528TIP3    H141075   4.431   1.393   4.700 -1.1789  0.4877  0.9773
 6528TIP3    H241076   4.543   1.419   4.799  0.9912 -0.3605 -1.1467
 6529TIP3   OH241077   5.112   3.995   0.414  0.0384 -0.0793  0.3966
 6529TIP3    H141078   5.161   3.916   0.391 -0.9528 -0.8303  0.8054
 6529TIP3    H241079   5.179   4.062   0.426  0.8137 -0.4300 -1.5247
 6530TIP3   OH241080   1.801   6.260  16.290 -0.2540 -0.3160  0.1542
 6530TIP3    H141081   1.734   6.294  16.350 -2.4705 -0.8625 -1.8744
 6530TIP3    H241082   1.825   6.335  16.236 -0.2968 -0.4575 -0.0624
 6531TIP3   OH241083   3.065   4.765   2.254 -0.2833 -0.1293  0.1813
 6531TIP3    H141084   3.067   4.670   2.244 -0.0320 -0.1783  0.6945
 6531TIP3    H241085   3.092   4.781   2.344 -0.8239  0.4000  0.2620
 6532TIP3   OH241086   5.233   2.978  14.945  0.0853  0.2296 -0.6532
 6532TIP3    H141087   5.297   2.988  14.875  0.4104 -2.0872 -0.7487
 6532TIP3    H241088   5.280   3.004  15.024 -0.2587  2.7841 -1.1990
 6533TIP3   OH241089   2.082   1.658   0.836  0.2842  0.3000 -0.2371
 6533TIP3    H141090   2.169   1.619   0.825  0.3418  0.2911  0.2176
 6533TIP3    H241091   2.031   1.589   0.878 -0.0508  0.1716 -0.8430
 6534TIP3   OH241092   1.739   5.413   4.874 -0.2108 -0.3198  0.4910
 6534TIP3    H141093   1.663   5.435   4.821 -0.1034 -0.2155  0.3798
 6534TIP3    H241094   1.731   5.467   4.952  1.1217  1.6599 -0.6744
 6535TIP3   OH241095   3.062   1.305   5.668  0.4100  0.3973 -0.0789
 6535TIP3    H141096   3.155   1.300   5.688  0.3389 -0.3099  0.1127
 6535TIP3    H241097   3.019   1.308   5.754  0.2302  0.0306 -0.1526
 6536TIP3   OH241098   3.821   6.498  11.702  0.0832  0.3165  0.1474
 6536TIP3    H141099   3.816   6.575  11.645  2.3873  1.3423  1.2141
 6536TIP3    H241100   3.878   6.437  11.656  1.9556  1.1502  1.2776
 6537TIP3   OH241101   0.344   3.575  16.738  0.2785 -0.1052 -0.1161
 6537TIP3    H141102   0.309   3.486  16.740  0.5460 -0.2080  0.0804
 6537TIP3    H241103   0.297   3.621  16.808  2.1762 -0.8762  1.7688
 6538TIP3   OH241104   5.472   1.475   6.372  0.7486 -0.1781  0.4259
 6538TIP3    H141105   5.405   1.411   6.396  1.4253 -1.1167 -0.1179
 6538TIP3    H241106   5.532   1.477   6.446 -0.7616  1.9745  1.7032
 6539TIP3   OH241107   0.204   0.903   5.693  0.1460  0.6381 -0.2298
 6539TIP3    H141108   0.198   0.817   5.649 -0.1951  0.8191 -0.5435
 6539TIP3    H241109   0.189   0.966   5.623  1.0765  0.9794 -0.1277
 6540TIP3   OH241110   3.591   6.654   0.501 -0.6785  0.5882 -0.3039
 6540TIP3    H141111   3.604   6.568   0.461 -0.9185  0.4205 -0.0256
 6540TIP3    H241112   3.553   6.635   0.587 -1.5431  1.0061 -0.5781
 6541TIP3   OH241113   0.708   2.516   0.294 -0.0401  0.8262  0.6454
 6541TIP3    H141114   0.656   2.527   0.215  0.3875 -0.7998  0.1028
 6541TIP3    H241115   0.727   2.422   0.297  2.3551  1.2724  1.1361
 6542TIP3   OH241116   1.200   0.883  11.686  0.5339  0.3440  0.2402
 6542TIP3    H141117   1.112   0.909  11.659  0.5899  1.2222  0.8472
 6542TIP3    H241118   1.232   0.828  11.614  0.2515  1.6851 -0.9600
 6543TIP3   OH241119   3.570   1.885   3.511  0.0693 -0.0174  0.4529
 6543TIP3    H141120   3.623   1.816   3.552  0.3064  0.3330  0.7446
 6543TIP3    H241121   3.480   1.858   3.527  0.0993 -1.4352 -1.3839
 6544TIP3   OH241122   5.522   5.148   6.631 -0.1145 -0.0010 -0.2080
 6544TIP3    H141123   5.615   5.128   6.630  0.1224  0.7468 -3.4070
 6544TIP3    H241124   5.518   5.241   6.655 -0.0844 -0.1402  0.3445
 6545TIP3   OH241125   6.714   3.822  14.389 -0.5152  0.1589  0.1304
 6545TIP3    H141126   6.801   3.860  14.385  1.9402 -4.5696  1.0288
 6545TIP3    H241127   6.672   3.849  14.307  1.0224  3.8552  0.3711
 6546TIP3   OH241128   0.252   0.748   4.721  0.4524  0.4713 -0.0844
 6546TIP3    H141129   0.217   0.801   4.792  0.3052  1.5342 -0.9089
 6546TIP3    H241130   0.297   0.675   4.764  1.7259  1.9141  1.1718
 6547TIP3   OH241131   4.141   3.616  11.440  0.0336  0.2445 -0.3787
 6547TIP3    H141132   4.181   3.637  11.356 -0.8717  1.5223 -0.5196
 6547TIP3    H241133   4.165   3.524  11.456  1.7209  0.5164 -1.1407
 6548TIP3   OH241134   2.752   0.450   5.140  0.7402  0.3530  0.3128
 6548TIP3    H141135   2.660   0.424   5.150  0.9792 -1.0221 -0.6829
 6548TIP3    H241136   2.801   0.371   5.161  1.6035  0.5230 -0.9328
 6549TIP3   OH241137   2.001   5.479   5.474  0.2463  0.4859  0.5994
 6549TIP3    H141138   1.975   5.449   5.561 -0.8072  1.7201  0.7460
 6549TIP3    H241139   2.090   5.512   5.485  0.7989 -0.9998  0.7891
 6550TIP3   OH241140   1.319   1.600  15.089  0.2654  0.2481 -0.8130
 6550TIP3    H141141   1.349   1.631  15.175  0.8033  0.9588 -1.2495
 6550TIP3    H241142   1.278   1.677  15.049 -2.7184 -0.7742 -0.0364
 6551TIP3   OH241143   0.947   3.036  12.716  0.1395 -0.2719 -0.1328
 6551TIP3    H141144   0.896   3.114  12.697 -0.1185 -0.2838  0.4998
 6551TIP3    H241145   0.919   2.972  12.650  1.4113  0.6029 -1.6119
 6552TIP3   OH241146   4.582   5.033   3.852  0.0063 -0.0136  0.1655
 6552TIP3    H141147   4.549   5.041   3.941 -1.5086  1.2767 -0.4457
 6552TIP3    H241148   4.604   4.940   3.842 -0.5439 -0.3235  1.6146
 6553TIP3   OH241149   0.251   5.220   0.078  0.7222  0.6114  0.2287
 6553TIP3    H141150   0.246   5.126   0.098  1.1237  0.6451  0.5130
 6553TIP3    H241151   0.244   5.225  -0.017 -0.9430  0.4191  0.3158
 6554TIP3   OH241152   4.259   5.876  11.876 -0.0816  0.5638 -0.0062
 6554TIP3    H141153   4.222   5.791  11.852 -0.2750  0.9199 -1.0202
 6554TIP3    H241154   4.352   5.859  11.889 -0.2429  0.0579  0.5278
 6555TIP3   OH241155   2.129   6.184   2.806 -0.2861 -0.2355  0.5067
 6555TIP3    H141156   2.138   6.091   2.786 -0.1711 -0.5484  1.9002
 6555TIP3    H241157   2.219   6.217   2.807 -0.3225 -0.1202  0.0772
 6556TIP3   OH241158   5.741   6.090  14.351  0.1497  0.0501 -0.7710
 6556TIP3    H141159   5.772   6.002  14.373  0.5715 -0.1080 -1.8885
 6556TIP3    H241160   5.814   6.129  14.302  0.5185  1.5507  0.8790
 6557TIP3   OH241161   2.416   1.815  10.314 -0.7896 -0.8654 -0.2172
 6557TIP3    H141162   2.483   1.797  10.248 -1.5291 -0.5831 -1.0779
 6557TIP3    H241163   2.373   1.731  10.328 -0.1409 -1.0860  0.4746
 6558TIP3   OH241164   4.545   1.512   1.418 -0.0078  0.5281 -0.0925
 6558TIP3    H141165   4.468   1.477   1.373 -2.0520  0.8236  2.8979
 6558TIP3    H241166   4.551   1.603   1.389  0.8610 -0.1726 -2.2907
 6559TIP3   OH241167   3.635   5.188   3.652 -0.2662 -0.1819 -0.3779
 6559TIP3    H141168   3.650   5.272   3.609  1.8057 -0.0183  0.5559
 6559TIP3    H241169   3.570   5.207   3.720  0.2897  0.7130 -0.0811
 6560TIP3   OH241170   4.751   5.420   1.558 -0.3485  0.1949  0.4750
 6560TIP3    H141171   4.668   5.466   1.556 -0.6388 -0.1049 -3.4924
 6560TIP3    H241172   4.727   5.328   1.571 -0.8446 -0.0022 -1.4398
 6561TIP3   OH241173   3.000   0.321  11.287 -0.0002  0.7043 -0.2346
 6561TIP3    H141174   3.014   0.382  11.214 -2.0286  1.9700  0.3300
 6561TIP3    H241175   2.949   0.250  11.249  1.9899 -0.4815 -0.7950
 6562TIP3   OH241176   0.360   1.979   0.107 -0.2457  0.1239  0.4455
 6562TIP3    H141177   0.385   1.940   0.023 -0.9502 -0.3025  0.4283
 6562TIP3    H241178   0.443   2.011   0.144 -0.0733  1.6270 -1.0637
 6563TIP3   OH241179   5.488   5.066   5.644  0.6352  0.6328 -0.2134
 6563TIP3    H141180   5.479   5.077   5.738 -0.0781  0.6498 -0.2835
 6563TIP3    H241181   5.574   5.024   5.633 -0.0869 -1.1410  0.5841
 6564TIP3   OH241182   1.769   6.421   5.072 -0.3146 -0.3833  0.6625
 6564TIP3    H141183   1.694   6.425   5.013 -0.2191 -1.2519  0.4827
 6564TIP3    H241184   1.769   6.332   5.106  0.0680 -0.1090  1.4139
 6565TIP3   OH241185   0.454   3.944  11.976 -0.4869 -0.2344  0.3412
 6565TIP3    H141186   0.530   3.911  11.928  0.4605 -0.2907  1.8259
 6565TIP3    H241187   0.393   3.970  11.907  0.8161 -0.2928 -0.9013
 6566TIP3   OH241188   1.002   2.221  12.199 -0.5810 -0.0871 -0.2578
 6566TIP3    H141189   1.004   2.138  12.246 -2.9791  0.0316  0.1849
 6566TIP3    H241190   0.967   2.284  12.263 -0.8465  0.7864 -1.2291
 6567TIP3   OH241191   2.192   4.161   1.902  0.0871  0.2602  0.4564
 6567TIP3    H141192   2.230   4.088   1.951 -0.7449 -0.9208 -0.5985
 6567TIP3    H241193   2.129   4.120   1.843  1.8514  1.4413 -2.4704
 6568TIP3   OH241194   5.377   3.564  14.921  0.5776 -0.1479 -0.3701
 6568TIP3    H141195   5.332   3.604  14.846  1.0004  0.4887 -0.2908
 6568TIP3    H241196   5.368   3.470  14.906 -1.4494 -0.0746  0.0273
 6569TIP3   OH241197   1.365   0.765  16.055 -0.5636 -0.5332 -0.8526
 6569TIP3    H141198   1.365   0.832  16.123  0.6274 -0.0755 -1.2712
 6569TIP3    H241199   1.400   0.687  16.098  0.0704 -0.2802 -0.9066
 6570TIP3   OH241200   4.343   4.251   3.903  0.2265  0.4738  0.1041
 6570TIP3    H141201   4.312   4.213   3.821  1.0934 -0.3548  0.1435
 6570TIP3    H241202   4.436   4.228   3.907  0.0938  0.0698  1.5450
 6571TIP3   OH241203   1.956   1.791   3.954 -0.1381  0.5136 -0.0654
 6571TIP3    H141204   2.008   1.853   4.003  0.0201  1.2437 -1.1297
 6571TIP3    H241205   1.903   1.844   3.895  0.8967 -0.3706 -1.8803
 6572TIP3   OH241206   1.259   4.334   3.586 -0.0406 -0.3038  0.1021
 6572TIP3    H141207   1.225   4.244   3.586  0.6041 -0.5541 -0.0794
 6572TIP3    H241208   1.224   4.373   3.506 -1.7270  0.1629  1.0293
 6573TIP3   OH241209   2.094   0.459   0.166  0.0755 -0.4191  0.0493
 6573TIP3    H141210   2.036   0.444   0.091 -0.2513 -0.2987  0.2758
 6573TIP3    H241211   2.180   0.476   0.127 -0.0005 -0.7710 -0.2821
 6574TIP3   OH241212   1.682   6.694   4.310 -0.0547 -0.1231 -0.7945
 6574TIP3    H141213   1.677   6.613   4.361 -1.4057  1.0016  0.9888
 6574TIP3    H241214   1.727   6.756   4.367 -0.4285  0.8217 -1.4955
 6575TIP3   OH241215   4.991   0.912   0.367 -0.6737  0.2831 -0.2702
 6575TIP3    H141216   4.955   0.873   0.447 -0.9876  0.3098 -0.3989
 6575TIP3    H241217   4.924   0.973   0.338 -0.5337  0.3159 -0.5250
 6576TIP3   OH241218   2.087   4.873   0.728  0.2343  1.2397 -0.2192
 6576TIP3    H141219   2.105   4.820   0.650  0.2336  1.1353 -0.1487
 6576TIP3    H241220   2.151   4.944   0.723 -0.4398  1.8161 -0.8623
 6577TIP3   OH241221   0.109   2.219   5.442  0.1240 -0.1795 -0.2636
 6577TIP3    H141222   0.108   2.298   5.496 -1.3748 -1.5280  1.8441
 6577TIP3    H241223   0.094   2.250   5.353  1.1780  2.0132  0.2597
 6578TIP3   OH241224   0.457   1.145   1.485 -0.0108  0.2428  0.6358
 6578TIP3    H141225   0.367   1.119   1.463  0.3788  0.7830 -2.0188
 6578TIP3    H241226   0.449   1.199   1.563 -2.0912  0.8474  0.0634
 6579TIP3   OH241227   6.289   4.585  16.847  0.3009 -0.6075  0.1447
 6579TIP3    H141228   6.242   4.636  16.781  1.1813 -0.6917 -0.5508
 6579TIP3    H241229   6.263   4.626  16.930  0.0608  0.2164 -0.3224
 6580TIP3   OH241230   6.572   3.212   0.685 -0.0705 -0.1217 -0.1200
 6580TIP3    H141231   6.552   3.119   0.675 -1.1290 -0.1111  1.4928
 6580TIP3    H241232   6.547   3.232   0.775  2.6441  1.1408  0.4396
 6581TIP3   OH241233   3.081   0.047  14.041  0.3142  0.1600 -0.2323
 6581TIP3    H141234   3.108  -0.043  14.024  0.6459  0.3182 -0.5432
 6581TIP3    H241235   3.108   0.063  14.131 -0.4771 -0.3171  0.1026
 6582TIP3   OH241236   1.287   2.374   1.665 -0.1974 -0.3130 -0.1163
 6582TIP3    H141237   1.223   2.398   1.731  1.1768 -1.2657  1.6446
 6582TIP3    H241238   1.254   2.292   1.628  1.1099 -2.1356  2.5086
 6583TIP3   OH241239   1.790   3.865  11.223  0.8353 -0.3523  0.0445
 6583TIP3    H141240   1.845   3.942  11.242 -0.2544  0.9024 -1.5963
 6583TIP3    H241241   1.706   3.902  11.197 -0.3204 -2.1945  0.9561
 6584TIP3   OH241242   4.812   0.405   1.915 -0.3051  0.1258 -0.2143
 6584TIP3    H141243   4.758   0.328   1.932  1.3070 -0.7260  1.3015
 6584TIP3    H241244   4.801   0.460   1.992 -0.2740  0.7315 -0.6331
 6585TIP3   OH241245   4.812   4.790   0.522 -0.1201  0.3392  1.2657
 6585TIP3    H141246   4.778   4.879   0.526  0.6496  0.6271  1.5671
 6585TIP3    H241247   4.876   4.785   0.593  1.2434  0.1544  0.0750
 6586TIP3   OH241248   4.941   1.417   5.415 -0.2204  0.0122 -0.2351
 6586TIP3    H141249   5.017   1.473   5.434  0.7996 -0.9929 -1.1886
 6586TIP3    H241250   4.943   1.406   5.320 -1.5916 -0.0246 -0.2799
 6587TIP3   OH241251   5.059   4.711   5.078 -0.5208  0.6028 -0.5960
 6587TIP3    H141252   5.137   4.755   5.113 -0.8283  0.9569 -0.3448
 6587TIP3    H241253   5.049   4.633   5.133  0.4738 -0.2109 -1.5340
 6588TIP3   OH241254   0.517   5.517  15.165 -1.0654  0.0507 -0.3188
 6588TIP3    H141255   0.605   5.519  15.127 -1.0237  0.1470 -0.2163
 6588TIP3    H241256   0.458   5.520  15.090 -0.9847  0.4306 -0.3662
 6589TIP3   OH241257   5.105   4.487  13.102 -0.1058 -0.6395 -0.2469
 6589TIP3    H141258   5.146   4.439  13.030  0.0100 -0.9986  0.0550
 6589TIP3    H241259   5.118   4.431  13.178  2.2596  1.0000  0.6409
 6590TIP3   OH241260   2.748   3.113  12.759  0.0774  0.2298  0.4396
 6590TIP3    H141261   2.800   3.173  12.705  0.2813  0.6549  1.1075
 6590TIP3    H241262   2.713   3.167  12.829 -0.0509 -0.3543  0.8370
 6591TIP3   OH241263   2.740   5.047  14.100 -0.0215  0.2292  0.5478
 6591TIP3    H141264   2.652   5.033  14.067 -0.0980 -0.0993  0.8907
 6591TIP3    H241265   2.784   5.096  14.030 -0.2347 -0.2891  0.0399
 6592TIP3   OH241266   4.608   5.787  13.617 -0.0001  0.2536  0.2872
 6592TIP3    H141267   4.540   5.840  13.577 -1.6878 -1.7310  0.3535
 6592TIP3    H241268   4.668   5.766  13.545 -0.6394  0.2478 -0.2484
 6593TIP3   OH241269   2.198   1.738  15.840 -0.2481 -0.4059  0.1716
 6593TIP3    H141270   2.134   1.716  15.908  1.9657 -1.7494  1.9472
 6593TIP3    H241271   2.213   1.656  15.793  1.2051 -0.5056  0.7504
 6594TIP3   OH241272   4.004   4.425  16.438  0.3111  0.4621 -0.4039
 6594TIP3    H141273   3.929   4.369  16.456  0.9476  0.1228  1.4463
 6594TIP3    H241274   3.979   4.476  16.362 -0.5653 -1.8465 -1.7545
 6595TIP3   OH241275   6.138   5.287  11.659  0.0921  0.0212  0.1925
 6595TIP3    H141276   6.183   5.365  11.693  0.2592  0.1885 -0.3876
 6595TIP3    H241277   6.074   5.264  11.727  0.0145  0.6877  0.3539
 6596TIP3   OH241278   3.141   2.061   4.641  0.0446  0.0751 -0.4707
 6596TIP3    H141279   3.161   2.000   4.570 -1.6124  0.7994 -1.6310
 6596TIP3    H241280   3.130   2.146   4.597 -0.6403  0.6185  0.6892
 6597TIP3   OH241281   6.363   0.829   5.878  0.4975 -0.1206  0.5585
 6597TIP3    H141282   6.346   0.845   5.971  2.2424  1.4571  0.6536
 6597TIP3    H241283   6.379   0.915   5.841  1.8925 -0.9051 -0.7767
 6598TIP3   OH241284   0.990   2.724   1.874  0.3737  0.2963  0.7096
 6598TIP3    H141285   1.017   2.686   1.791  0.2458  0.6298  0.5120
 6598TIP3    H241286   1.068   2.771   1.905  0.3467  0.3805  0.6525
 6599TIP3   OH241287   0.429   3.442  13.917  0.1294  0.0787  0.6904
 6599TIP3    H141288   0.339   3.471  13.934 -0.0305  0.2368 -0.3923
 6599TIP3    H241289   0.425   3.347  13.929 -0.4781 -0.0676 -0.5436
 6600TIP3   OH241290   1.058   3.320   3.377 -0.3780  0.1848  0.7482
 6600TIP3    H141291   1.025   3.378   3.308 -0.9751 -0.1177  0.7734
 6600TIP3    H241292   1.110   3.254   3.331 -0.7494  0.0022  0.5857
 6601TIP3   OH241293   0.016   1.994  11.960 -0.0854 -0.2574  0.0478
 6601TIP3    H141294  -0.006   1.975  11.869 -0.5657 -1.2529  0.3619
 6601TIP3    H241295  -0.028   2.077  11.979  0.4703  0.2473 -0.7745
 6602TIP3   OH241296   0.881   2.121  12.735 -0.0636  0.5106 -0.0046
 6602TIP3    H141297   0.856   2.029  12.723 -0.2602  0.3462  1.4656
 6602TIP3    H241298   0.975   2.122  12.720 -0.2287  0.2896 -1.1369
 6603TIP3   OH241299   3.430   3.908  16.651  0.2130 -0.2653 -0.1005
 6603TIP3    H141300   3.386   3.857  16.583  0.2028 -0.2648 -0.0946
 6603TIP3    H241301   3.511   3.937  16.610 -0.6695  1.3824 -0.7797
 6604TIP3   OH241302   4.126   5.557  16.807 -0.5278  0.5074 -0.5228
 6604TIP3    H141303   4.168   5.525  16.728 -1.3844  2.0739 -1.6508
 6604TIP3    H241304   4.047   5.503  16.816 -0.9018  0.9304 -1.2519
 6605TIP3   OH241305   3.881   1.807  15.794  0.3047  0.1184  0.2467
 6605TIP3    H141306   3.889   1.873  15.862 -0.9429 -0.5869  1.1430
 6605TIP3    H241307   3.926   1.730  15.829 -0.1118 -0.1642  0.1798
 6606TIP3   OH241308   5.085   1.396  16.749 -0.1216  0.4560 -0.1328
 6606TIP3    H141309   5.119   1.485  16.751  0.0599  0.4239 -1.4467
 6606TIP3    H241310   5.051   1.384  16.661 -0.7741 -0.5497  0.2277
 6607TIP3   OH241311   4.875   4.807   3.310 -0.1392  0.3924 -0.6933
 6607TIP3    H141312   4.862   4.872   3.380  1.6163 -0.5971  0.6552
 6607TIP3    H241313   4.794   4.758   3.307 -0.2215  0.3869  0.7728
 6608TIP3   OH241314   4.703   2.839   6.019 -0.5570  0.0235 -0.2598
 6608TIP3    H141315   4.779   2.895   6.036 -0.8528  0.1791  0.6127
 6608TIP3    H241316   4.659   2.832   6.104 -0.5168 -1.5740 -0.3399
 6609TIP3   OH241317   4.148   0.253   0.300 -0.0754 -0.2993 -0.2017
 6609TIP3    H141318   4.200   0.292   0.370 -2.2762  0.7297  0.9637
 6609TIP3    H241319   4.157   0.158   0.314 -0.1480 -0.1166  1.2606
 6610TIP3   OH241320   6.670   4.069   1.823  0.1247  0.2865  0.5166
 6610TIP3    H141321   6.607   4.139   1.838 -0.9494 -0.6714  0.6708
 6610TIP3    H241322   6.724   4.100   1.751 -1.7074  0.3962 -0.8742
 6611TIP3   OH241323   4.262   6.069   2.383  0.4012 -0.2000 -0.1106
 6611TIP3    H141324   4.169   6.092   2.371  0.4117  0.3364  0.7452
 6611TIP3    H241325   4.262   5.974   2.393 -0.3095 -0.0431  1.8340
 6612TIP3   OH241326   6.688   5.590   6.746 -0.0426  0.2505  0.2344
 6612TIP3    H141327   6.737   5.646   6.686 -1.3882  0.4981 -0.6942
 6612TIP3    H241328   6.752   5.560   6.810  0.9715  1.8016 -0.0183
 6613TIP3   OH241329   4.548   4.800  14.759 -0.5939 -0.1303  0.3774
 6613TIP3    H141330   4.463   4.831  14.728 -0.1357  0.2990 -0.4785
 6613TIP3    H241331   4.598   4.784  14.679  1.9850  4.7144  0.6696
 6614TIP3   OH241332   0.350   5.710  11.910 -0.0612 -0.4600 -0.0211
 6614TIP3    H141333   0.269   5.676  11.873 -0.0862 -0.1358 -0.2641
 6614TIP3    H241334   0.348   5.804  11.892  0.9708 -0.6373 -1.1751
 6615TIP3   OH241335   5.277   0.049   0.737  0.4265  0.2804 -0.3072
 6615TIP3    H141336   5.315   0.106   0.804  0.4324  0.8897 -0.8276
 6615TIP3    H241337   5.330   0.064   0.659  2.8578 -3.1455  0.4367
 6616TIP3   OH241338   2.661   3.454   4.777 -0.9854  0.2215 -0.7588
 6616TIP3    H141339   2.721   3.449   4.851 -0.6932  0.2097 -0.9971
 6616TIP3    H241340   2.626   3.543   4.781  0.3887  0.8245 -1.6662
 6617TIP3   OH241341   2.448   0.162   3.158 -0.2420  0.3041 -0.3714
 6617TIP3    H141342   2.477   0.231   3.099 -1.4170  0.7230 -0.4860
 6617TIP3    H241343   2.519   0.098   3.156  0.4821  1.0982 -0.9312
 6618TIP3   OH241344   0.331   3.653  11.726 -0.0795  0.0554 -0.4446
 6618TIP3    H141345   0.423   3.679  11.725  0.4388 -1.6099 -2.4979
 6618TIP3    H241346   0.306   3.651  11.633 -2.0161 -0.1508  0.0394
 6619TIP3   OH241347   5.102   4.579   2.594  0.4533  0.2458 -0.2002
 6619TIP3    H141348   5.128   4.650   2.535 -0.3362  1.2455  0.6180
 6619TIP3    H241349   5.128   4.610   2.681 -0.8483  0.0225  0.2901
 6620TIP3   OH241350   1.892   2.388   4.777  0.5752  0.5856  0.0788
 6620TIP3    H141351   1.938   2.467   4.805  1.2150 -0.1073  1.0239
 6620TIP3    H241352   1.806   2.394   4.820  0.8970  0.4036  0.7519
 6621TIP3   OH241353   2.667   6.396  13.986  0.4392 -0.2286  0.8897
 6621TIP3    H141354   2.597   6.444  13.940  0.1925 -1.0444  0.3927
 6621TIP3    H241355   2.698   6.457  14.053 -0.1131  0.4904  0.5044
 6622TIP3   OH241356   4.228   2.304   5.158 -0.3883 -0.0710 -0.2535
 6622TIP3    H141357   4.318   2.272   5.148 -0.6590 -1.0667  0.4644
 6622TIP3    H241358   4.233   2.366   5.230 -0.9172 -2.8938  2.3841
 6623TIP3   OH241359   6.241   4.813   2.043 -0.5722 -0.2573  0.5054
 6623TIP3    H141360   6.186   4.793   2.118 -0.2473  1.9148  1.3960
 6623TIP3    H241361   6.221   4.904   2.022 -1.8425 -1.2347 -3.1379
 6624TIP3   OH241362   3.947   3.126   2.901 -0.1950 -0.1419 -0.2737
 6624TIP3    H141363   4.041   3.129   2.881 -0.0737 -1.4346  0.0216
 6624TIP3    H241364   3.915   3.051   2.852 -1.1316  0.4211 -0.5379
 6625TIP3   OH241365   3.692   5.971   5.423  0.4331  0.3974  0.3143
 6625TIP3    H141366   3.761   5.985   5.487  0.8772  0.8672 -0.2612
 6625TIP3    H241367   3.723   6.015   5.344  1.1984 -2.5150 -1.1197
 6626TIP3   OH241368   0.718   4.663   2.214  0.1147 -0.7057 -0.3334
 6626TIP3    H141369   0.639   4.645   2.163  0.4587  0.3723 -1.2877
 6626TIP3    H241370   0.788   4.619   2.167  0.6557  1.4011 -1.6390
 6627TIP3   OH241371   0.841   3.440  17.019  0.2325 -0.2786 -0.8403
 6627TIP3    H141372   0.830   3.511  17.082 -0.6151 -0.3184 -0.9304
 6627TIP3    H241373   0.755   3.429  16.980  0.2048 -1.6875 -0.4630
 6628TIP3   OH241374   6.386   0.373   3.189  0.8886 -0.3707  0.2187
 6628TIP3    H141375   6.341   0.335   3.264  0.1820  0.0301  0.0110
 6628TIP3    H241376   6.389   0.467   3.207 -0.8749 -0.0266 -1.0345
 6629TIP3   OH241377   5.074   4.325  14.547  0.3979  0.0354  0.3419
 6629TIP3    H141378   5.047   4.357  14.633  0.6124  0.1842  0.3544
 6629TIP3    H241379   5.168   4.307  14.556  0.0796 -1.6098  0.6472
 6630TIP3   OH241380   2.646   1.363  12.563 -0.4217  0.4762  0.5325
 6630TIP3    H141381   2.592   1.409  12.628 -0.2417 -0.0860  1.0858
 6630TIP3    H241382   2.644   1.272  12.590 -0.3140  0.2417 -0.2428
 6631TIP3   OH241383   4.488   2.935   3.712 -0.0972  0.0030  0.3962
 6631TIP3    H141384   4.459   3.022   3.737 -0.9956  0.2031 -1.2116
 6631TIP3    H241385   4.580   2.931   3.738 -0.3549  1.0018  1.5166
 6632TIP3   OH241386   2.723   3.319  12.342  0.0376  0.2073 -0.0600
 6632TIP3    H141387   2.775   3.289  12.267 -0.3139 -0.7699  0.0793
 6632TIP3    H241388   2.636   3.336  12.305 -0.2146 -0.5517  0.1755
 6633TIP3   OH241389   3.494   3.492   0.466 -0.6210 -0.0805  0.1701
 6633TIP3    H141390   3.503   3.552   0.540 -0.4400  0.5776 -0.3756
 6633TIP3    H241391   3.445   3.542   0.401  0.2911 -0.1981 -0.6351
 6634TIP3   OH241392   1.578   6.610  16.347  0.2657 -0.2133 -0.4549
 6634TIP3    H141393   1.590   6.561  16.266  0.0720 -0.9225 -0.0613
 6634TIP3    H241394   1.511   6.676  16.325  0.2880 -0.3329 -0.8922
 6635TIP3   OH241395   4.429   5.209   4.576 -0.5778  0.4125 -0.4122
 6635TIP3    H141396   4.350   5.220   4.628  0.2232  0.0062  0.9234
 6635TIP3    H241397   4.490   5.275   4.608  0.7381 -1.3209  0.8281
 6636TIP3   OH241398   1.141   2.714  15.789  0.9519 -0.4803  0.4728
 6636TIP3    H141399   1.156   2.694  15.881  1.7134 -1.9856  0.0475
 6636TIP3    H241400   1.134   2.629  15.746 -1.4148  0.1537 -0.5799
 6637TIP3   OH241401   3.090   1.938   3.707 -0.1001  0.0662  0.2924
 6637TIP3    H141402   3.041   1.864   3.672  1.8669 -1.1644  0.0062
 6637TIP3    H241403   3.040   1.965   3.784 -1.2250 -1.1152  0.0083
 6638TIP3   OH241404   5.147   5.187  10.238 -0.0629 -0.2420  0.1389
 6638TIP3    H141405   5.214   5.144  10.185  0.2652 -1.1791  1.2849
 6638TIP3    H241406   5.195   5.251  10.290 -0.1140 -0.6440  0.6802
 6639TIP3   OH241407   6.103   3.940   6.135 -0.3755 -0.4797  0.2290
 6639TIP3    H141408   6.070   3.936   6.045  0.3139 -1.0462 -0.0113
 6639TIP3    H241409   6.027   3.963   6.188 -0.3145  2.4085 -0.7737
 6640TIP3   OH241410   3.020   2.708   4.370  0.5967  0.3330  1.4278
 6640TIP3    H141411   3.106   2.685   4.406  1.2980  2.3181  1.1627
 6640TIP3    H241412   2.969   2.628   4.376  2.5585 -0.9906  1.3467
 6641TIP3   OH241413   1.212   0.571  16.312  0.5877  0.3537  0.2988
 6641TIP3    H141414   1.175   0.594  16.398  0.2789 -1.2363  0.6234
 6641TIP3    H241415   1.149   0.511  16.274 -0.2122  2.4147 -1.9112
 6642TIP3   OH241416   6.391   2.716  13.564  0.9372 -0.6422 -0.8289
 6642TIP3    H141417   6.321   2.654  13.547  1.2455 -1.3608  0.4083
 6642TIP3    H241418   6.367   2.794  13.515 -0.7878 -0.8398 -0.3525
 6643TIP3   OH241419   4.590   0.580  13.889 -0.1533 -0.2321  0.5041
 6643TIP3    H141420   4.607   0.537  13.805  0.2618 -0.4337  0.6851
 6643TIP3    H241421   4.674   0.574  13.936  0.5841  2.5656 -0.2479
 6644TIP3   OH241422   0.852   4.000  15.978 -0.0638 -0.2174  0.1736
 6644TIP3    H141423   0.768   4.037  16.005 -0.1585 -0.9668  0.9305
 6644TIP3    H241424   0.832   3.947  15.900 -0.3683 -0.7350  0.6023
 6645TIP3   OH241425   0.078   5.385   0.316  0.2331 -0.2823  0.2764
 6645TIP3    H141426   0.010   5.345   0.262  0.1819 -0.5241  0.5164
 6645TIP3    H241427   0.082   5.476   0.287  0.1359 -0.3853 -0.0631
 6646TIP3   OH241428   2.068   4.742  11.585 -0.4508 -0.2794 -0.4807
 6646TIP3    H141429   2.113   4.693  11.516 -0.3794 -0.3176 -0.4065
 6646TIP3    H241430   2.028   4.674  11.640 -0.8805 -0.2404 -0.7357
 6647TIP3   OH241431   1.819   6.511   3.366 -0.3764  0.4881  0.0768
 6647TIP3    H141432   1.862   6.460   3.436  0.4446  3.1507  1.6513
 6647TIP3    H241433   1.889   6.529   3.303  0.3753  2.7892  1.4488
 6648TIP3   OH241434   3.478   2.057  15.171  0.0477 -0.5202 -0.1004
 6648TIP3    H141435   3.471   2.080  15.264 -2.0451 -2.3712  0.2898
 6648TIP3    H241436   3.420   2.120  15.127 -0.3940 -0.7841  0.0964
 6649TIP3   OH241437   6.281   2.376  16.497  0.0681  0.2309  0.1353
 6649TIP3    H141438   6.223   2.392  16.572  1.4575  0.7901  1.1457
 6649TIP3    H241439   6.308   2.285  16.506  1.0870  0.5938  0.9826
 6650TIP3   OH241440   0.678   4.819  12.379 -0.0771 -0.2533  0.6913
 6650TIP3    H141441   0.635   4.883  12.435  0.7018  1.4437 -0.5831
 6650TIP3    H241442   0.609   4.786  12.321  0.3347  3.2447 -2.0865
 6651TIP3   OH241443   0.873   2.926  12.248 -0.3246  0.1292 -0.1396
 6651TIP3    H141444   0.795   2.960  12.204 -0.0409  0.1049 -0.6610
 6651TIP3    H241445   0.937   2.997  12.241 -0.4047  0.2759  0.5759
 6652TIP3   OH241446   0.147   6.358  13.230 -0.2041 -0.6822 -0.5187
 6652TIP3    H141447   0.214   6.406  13.279 -0.6699 -0.3034 -0.2480
 6652TIP3    H241448   0.122   6.285  13.287  0.3994 -1.1816 -0.8701
 6653TIP3   OH241449   3.676   0.630  12.509 -0.5959  0.3144  0.2250
 6653TIP3    H141450   3.722   0.678  12.578 -1.9181  0.2158  1.2275
 6653TIP3    H241451   3.744   0.578  12.466  0.0359 -1.0588  2.6810
 6654TIP3   OH241452   3.954   4.891   1.743  0.1221 -0.1331 -0.0412
 6654TIP3    H141453   3.972   4.947   1.819 -0.7690  0.0911  0.0153
 6654TIP3    H241454   4.040   4.860   1.716  0.4736 -0.0349  0.9216
 6655TIP3   OH241455   2.588   4.083  13.236 -0.4244 -0.1098 -0.5060
 6655TIP3    H141456   2.652   4.048  13.297 -0.2695  1.0066  0.0001
 6655TIP3    H241457   2.580   4.016  13.168  3.1279  0.7339 -1.9506
 6656TIP3   OH241458   1.733   2.714  11.501  0.2942 -0.5643  0.6686
 6656TIP3    H141459   1.640   2.717  11.520 -0.0723  1.1929 -1.0691
 6656TIP3    H241460   1.762   2.629  11.534 -2.2875 -1.9749 -0.4071
 6657TIP3   OH241461   5.071   2.271  14.197  0.0537 -0.2793  0.2499
 6657TIP3    H141462   5.073   2.180  14.226  1.7015 -0.3316  0.0571
 6657TIP3    H241463   5.155   2.307  14.226 -0.4511  1.0970  0.0522
 6658TIP3   OH241464   3.568   3.861   1.845  0.0392  0.7710 -0.3832
 6658TIP3    H141465   3.602   3.842   1.757  0.6506  0.7837 -0.1587
 6658TIP3    H241466   3.530   3.778   1.874  0.7466  0.4842 -0.2633
 6659TIP3   OH241467   3.258   6.096  14.541  0.1553 -0.4585 -0.1570
 6659TIP3    H141468   3.348   6.129  14.537  0.5319 -1.2668  1.2383
 6659TIP3    H241469   3.211   6.163  14.591  0.2625 -0.6426  0.1890
 6660TIP3   OH241470   5.017   3.574   4.087 -0.0433 -0.0508 -0.1130
 6660TIP3    H141471   5.091   3.577   4.146  0.9353 -1.2191 -1.2235
 6660TIP3    H241472   4.941   3.562   4.143  0.6749  0.5047  0.9991
 6661TIP3   OH241473   5.194   1.532  12.949 -0.3139  0.6023  0.4316
 6661TIP3    H141474   5.114   1.524  13.002  0.0770 -1.6676  0.7554
 6661TIP3    H241475   5.257   1.573  13.008 -0.7706  0.9566  0.6834
 6662TIP3   OH241476   6.532   2.396  12.190 -0.0334 -0.3156  0.0201
 6662TIP3    H141477   6.549   2.408  12.283  0.2077  0.4451 -0.1202
 6662TIP3    H241478   6.610   2.350  12.158  1.5683  2.5036 -0.4716
 6663TIP3   OH241479   1.382   3.507  12.394 -0.7839 -0.0825  0.2773
 6663TIP3    H141480   1.292   3.494  12.364 -1.5789  2.0932  1.5011
 6663TIP3    H241481   1.424   3.559  12.325 -1.8806  2.7735  1.5913
 6664TIP3   OH241482   0.567   5.651  12.780  0.4361 -0.1424 -0.4793
 6664TIP3    H141483   0.645   5.652  12.725  0.3402 -0.5711 -0.6262
 6664TIP3    H241484   0.494   5.655  12.719  0.2923 -1.8709 -0.4888
 6665TIP3   OH241485   3.381   6.312   2.378 -0.1587 -0.2408 -0.2683
 6665TIP3    H141486   3.315   6.337   2.443 -0.2353  0.9313 -0.7679
 6665TIP3    H241487   3.382   6.216   2.381 -1.7961 -0.2863 -0.1620
 6666TIP3   OH241488   2.326   0.068  16.615  0.3093  0.2457 -0.6053
 6666TIP3    H141489   2.232   0.079  16.633 -0.1198  0.7542 -2.8868
 6666TIP3    H241490   2.355   0.153  16.582  1.7350  0.2502  0.5686
 6667TIP3   OH241491   5.859   4.533   5.180 -0.3805 -0.2524 -0.2092
 6667TIP3    H141492   5.808   4.519   5.259 -0.7923  0.6330 -0.3026
 6667TIP3    H241493   5.882   4.626   5.183  0.5686 -0.4715 -0.5566
 6668TIP3   OH241494   0.533   3.920   4.005 -0.1402  0.2006  0.0494
 6668TIP3    H141495   0.573   3.836   3.984  2.3525  2.0322 -3.6409
 6668TIP3    H241496   0.440   3.909   3.985 -0.2587 -2.1017  1.5074
 6669TIP3   OH241497   3.045   3.399   4.604  0.0305  0.6673  0.4307
 6669TIP3    H141498   3.097   3.363   4.676  0.4486 -0.5576 -0.4569
 6669TIP3    H241499   2.961   3.355   4.611  0.0560  0.5834  0.2035
 6670TIP3   OH241500   0.704   0.215  12.865 -0.5557  0.3092 -0.3912
 6670TIP3    H141501   0.796   0.192  12.870 -0.9230 -1.1149  0.3507
 6670TIP3    H241502   0.695   0.261  12.781  0.6753 -0.1900 -0.8169
 6671TIP3   OH241503   2.008   3.774   4.653  0.1690  0.0028 -0.0462
 6671TIP3    H141504   1.967   3.790   4.569  1.1465  1.3923 -0.2990
 6671TIP3    H241505   1.941   3.796   4.718  0.3201  1.8457 -0.4532
 6672TIP3   OH241506   3.287   3.708   5.511 -0.3433  0.2245 -0.1567
 6672TIP3    H141507   3.315   3.756   5.434  0.5864  0.4257  0.2970
 6672TIP3    H241508   3.288   3.773   5.582  1.3339 -0.5050  0.5541
 6673TIP3   OH241509   1.313   4.785  16.580  0.1608  0.2084 -0.0040
 6673TIP3    H141510   1.261   4.716  16.623  0.4466 -0.5722 -0.8896
 6673TIP3    H241511   1.396   4.743  16.559  1.7745  1.7800  2.5675
 6674TIP3   OH241512   4.917   4.393   0.377  0.2241  0.1841  0.4218
 6674TIP3    H141513   4.876   4.357   0.456  0.6507  0.3568  0.7269
 6674TIP3    H241514   4.952   4.316   0.332 -2.6565 -0.3236 -1.2067
 6675TIP3   OH241515   2.947   5.304   5.318 -0.0791 -0.5997 -0.8906
 6675TIP3    H141516   2.876   5.351   5.273 -0.7366  0.0225  0.7395
 6675TIP3    H241517   2.912   5.286   5.405  1.9275  0.1027  0.0998
 6676TIP3   OH241518   1.594   4.084   4.794  1.3802  0.3654  0.0848
 6676TIP3    H141519   1.538   4.101   4.870  1.8884  0.3444  0.4682
 6676TIP3    H241520   1.538   4.037   4.733  0.7349  1.0714  0.1197
 6677TIP3   OH241521   0.023   1.243   3.973 -0.6247  0.4723 -0.0003
 6677TIP3    H141522   0.002   1.155   3.941  1.9833  0.7513 -2.9028
 6677TIP3    H241523   0.090   1.228   4.040 -1.7825  0.2171  1.1542
 6678TIP3   OH241524   5.857   5.202   4.386  0.1369  0.2435  0.9104
 6678TIP3    H141525   5.927   5.255   4.425 -0.5284  0.8424  1.3122
 6678TIP3    H241526   5.874   5.206   4.292 -0.0610  1.4193  0.9065
 6679TIP3   OH241527   2.746   5.870  15.296  0.2288  0.0975 -0.1932
 6679TIP3    H141528   2.759   5.962  15.272  0.6156  0.3736  1.0284
 6679TIP3    H241529   2.765   5.866  15.389 -2.7753 -0.6390  0.4901
 6680TIP3   OH241530   3.586   2.304   1.873 -1.2404 -0.0722 -0.7885
 6680TIP3    H141531   3.624   2.262   1.796 -0.4616 -0.8804  0.0174
 6680TIP3    H241532   3.655   2.363   1.905 -0.6219 -1.4993  0.6441
 6681TIP3   OH241533   4.925   6.647   4.013 -0.4116  0.4032  0.3167
 6681TIP3    H141534   4.972   6.674   3.934 -0.8777  1.0717  0.2612
 6681TIP3    H241535   4.983   6.583   4.054 -0.6699 -0.8496 -1.1711
 6682TIP3   OH241536   3.902   6.016  13.132 -0.2776 -0.7452  0.5930
 6682TIP3    H141537   3.855   5.986  13.210 -0.6254  0.0504  0.7053
 6682TIP3    H241538   3.948   6.095  13.160  1.3331 -1.6248  0.5345
 6683TIP3   OH241539   6.233   2.089  13.250 -0.4766 -0.5970  0.1302
 6683TIP3    H141540   6.295   2.093  13.323 -0.1690  0.1865 -0.1653
 6683TIP3    H241541   6.268   2.150  13.185 -0.5990 -1.4839 -0.7976
 6684TIP3   OH241542   4.495   0.603  11.336 -0.1686  0.6911 -0.0566
 6684TIP3    H141543   4.414   0.643  11.369 -1.4446 -1.5876 -0.1895
 6684TIP3    H241544   4.467   0.516  11.306  2.4484 -0.3908  0.4249
 6685TIP3   OH241545   2.534   4.658  17.005  0.2191  0.6229  0.6221
 6685TIP3    H141546   2.601   4.598  17.036  0.2153  0.7716  0.9252
 6685TIP3    H241547   2.539   4.732  17.065 -0.4637  0.4715  0.8742
 6686TIP3   OH241548   6.713   5.917  17.073 -0.6685 -0.5475 -0.2918
 6686TIP3    H141549   6.661   5.894  16.996 -1.5551 -0.7916  0.3614
 6686TIP3    H241550   6.648   5.931  17.142  0.0361  0.8727  0.1108
 6687TIP3   OH241551   3.595   0.668  15.045 -0.3187  0.0309  0.0526
 6687TIP3    H141552   3.556   0.631  15.124 -0.9371  1.9721  0.7103
 6687TIP3    H241553   3.547   0.750  15.030  2.8409  2.1215  0.3841
 6688TIP3   OH241554   0.540   0.059   6.451  0.0198  0.0277  0.1835
 6688TIP3    H141555   0.498   0.026   6.530  0.0944 -2.2924 -0.6827
 6688TIP3    H241556   0.495   0.142   6.433 -2.0978 -0.8746  0.9895
 6689TIP3   OH241557   0.773   3.929   2.680 -0.1332  0.7537  0.2403
 6689TIP3    H141558   0.726   3.845   2.678  1.4535 -0.1840  0.7502
 6689TIP3    H241559   0.857   3.908   2.720  0.9622  2.2667 -1.1567
 6690TIP3   OH241560   0.160   5.638  12.278 -0.1918 -0.2617  0.6368
 6690TIP3    H141561   0.148   5.544  12.263  2.2490 -0.5179  0.0149
 6690TIP3    H241562   0.111   5.654  12.359 -1.0501 -1.9392  0.5151
 6691TIP3   OH241563   0.627   2.298  14.113 -0.5579  0.4920  0.5059
 6691TIP3    H141564   0.572   2.376  14.107 -0.4982  0.4620 -0.6767
 6691TIP3    H241565   0.635   2.267  14.023 -2.9797 -2.5794  1.1727
 6692TIP3   OH241566   3.053   5.036  16.288  0.0938 -0.4483  0.0583
 6692TIP3    H141567   3.131   5.087  16.310  1.1121 -1.1926 -1.5899
 6692TIP3    H241568   3.036   4.983  16.366  1.2006 -0.2313  0.4706
 6693TIP3   OH241569   1.121   6.375  11.861 -0.3260  0.4269 -0.1186
 6693TIP3    H141570   1.042   6.380  11.807 -0.5079 -0.9362 -0.0124
 6693TIP3    H241571   1.190   6.344  11.802 -0.7005 -1.8446  0.5282
 6694TIP3   OH241572   5.849   1.469   2.110 -0.7631 -0.0813  0.1129
 6694TIP3    H141573   5.793   1.406   2.066 -1.7003  0.7775  0.0434
 6694TIP3    H241574   5.862   1.539   2.046 -0.4755  0.2254  0.4953
 6695TIP3   OH241575   2.728   4.825   1.903 -0.0847  0.1469  0.2170
 6695TIP3    H141576   2.768   4.863   1.981  0.7021  0.0071 -0.1077
 6695TIP3    H241577   2.656   4.884   1.882 -0.0245  0.4328  0.7858
 6696TIP3   OH241578   4.454   4.337   2.843  0.7021  0.6652 -0.3586
 6696TIP3    H141579   4.473   4.339   2.937  0.7747  1.1950 -0.3793
 6696TIP3    H241580   4.539   4.317   2.802  0.4304 -0.8250 -0.2591
 6697TIP3   OH241581   6.508   1.049  16.212  0.4517 -0.6648 -0.3810
 6697TIP3    H141582   6.418   1.040  16.180  0.1116 -2.5170  0.9370
 6697TIP3    H241583   6.558   1.077  16.136 -1.1457 -0.0664 -1.2633
 6698TIP3   OH241584   2.506   0.886  14.347 -0.5440  0.3376 -0.1256
 6698TIP3    H141585   2.568   0.829  14.301 -0.4591 -2.0089  2.6074
 6698TIP3    H241586   2.560   0.954  14.387 -0.3778  1.1071 -1.5792
 6699TIP3   OH241587   2.473   6.367  16.107  0.0427 -0.0164  0.3901
 6699TIP3    H141588   2.386   6.406  16.105 -0.2541 -0.6952 -0.2562
 6699TIP3    H241589   2.465   6.289  16.161  0.3880  0.2292  0.8036
 6700TIP3   OH241590   3.611   4.519  14.466 -0.4222  0.3926  0.1409
 6700TIP3    H141591   3.602   4.461  14.391  0.8054  2.1488 -1.4475
 6700TIP3    H241592   3.667   4.472  14.527  0.4657 -0.1544 -1.0615
 6701TIP3   OH241593   1.772   5.483   0.004  0.3980 -0.4194 -0.0745
 6701TIP3    H141594   1.863   5.511   0.001  0.6450 -1.2825 -1.6747
 6701TIP3    H241595   1.776   5.387  -0.003 -0.6179 -0.4715 -0.0675
 6702TIP3   OH241596   3.614   1.414   2.885 -0.1340  0.6858  0.2571
 6702TIP3    H141597   3.708   1.403   2.871 -0.1577  0.5860  0.1767
 6702TIP3    H241598   3.577   1.414   2.797 -0.3841 -0.8537  0.3410
 6703TIP3   OH241599   0.161   1.088  15.236  0.3294 -0.1659 -0.5885
 6703TIP3    H141600   0.145   1.017  15.299  0.3825 -1.2967 -1.8092
 6703TIP3    H241601   0.111   1.162  15.270  1.9006 -0.0801  1.8646
 6704TIP3   OH241602   0.519   2.376  15.699 -0.8638 -0.3993  0.1436
 6704TIP3    H141603   0.602   2.345  15.733 -1.6273 -2.5316  0.2130
 6704TIP3    H241604   0.461   2.380  15.775 -1.4006 -1.0522 -0.2117
 6705TIP3   OH241605   0.882   1.600   6.348  0.3252 -0.1178  0.7201
 6705TIP3    H141606   0.827   1.542   6.401 -1.5029  1.5872  0.8345
 6705TIP3    H241607   0.948   1.633   6.409  0.4296 -0.9020  1.0372
 6706TIP3   OH241608   6.797   5.822   0.963  0.3947 -0.4381 -0.2122
 6706TIP3    H141609   6.846   5.754   0.916 -1.4191 -1.2061 -1.0940
 6706TIP3    H241610   6.846   5.834   1.045  1.3587 -2.0386 -0.5002
 6707TIP3   OH241611   1.093   3.261   2.053  0.1997  0.3473  0.0721
 6707TIP3    H141612   1.059   3.292   1.969 -0.3052 -0.0023  0.1448
 6707TIP3    H241613   1.024   3.205   2.087  1.3007 -1.2715 -0.2786
 6708TIP3   OH241614   1.670   6.307   2.624 -0.3218  0.5163  0.1925
 6708TIP3    H141615   1.706   6.386   2.584 -0.2415  0.5193  0.2716
 6708TIP3    H241616   1.583   6.298   2.585 -0.2415  0.5172  0.0147
 6709TIP3   OH241617   1.440   2.734   3.027  0.2286  0.1693 -0.0589
 6709TIP3    H141618   1.352   2.696   3.023  0.5148 -0.3664 -2.2619
 6709TIP3    H241619   1.495   2.673   2.979  1.5573  1.1745  0.1428
 6710TIP3   OH241620   5.235   2.845  12.977  0.2324 -0.4942  0.3651
 6710TIP3    H141621   5.307   2.843  13.039  1.2831  1.2551 -0.7398
 6710TIP3    H241622   5.159   2.816  13.028  1.5967 -2.0426  1.6360
 6711TIP3   OH241623   2.095   2.681   2.933  0.3095  0.2383  0.2186
 6711TIP3    H141624   2.089   2.776   2.943  1.9594  0.7885 -2.7733
 6711TIP3    H241625   2.184   2.660   2.960  0.4125 -0.2261 -0.4605
 6712TIP3   OH241626   5.763   2.743  12.445 -0.2703 -0.4851  0.2196
 6712TIP3    H141627   5.812   2.824  12.456 -0.7852  0.0963 -1.3578
 6712TIP3    H241628   5.671   2.771  12.446 -0.6479 -1.5146  2.8946
 6713TIP3   OH241629   3.840   2.868   1.099 -0.0867  0.2490 -0.0213
 6713TIP3    H141630   3.935   2.860   1.109 -0.3346 -1.5778  1.2987
 6713TIP3    H241631   3.815   2.792   1.047 -0.8427  0.7678 -0.4363
 6714TIP3   OH241632   1.042   6.102   4.638  0.1061  0.5767  0.3874
 6714TIP3    H141633   1.028   6.094   4.732 -2.3702  0.8480  0.1255
 6714TIP3    H241634   0.976   6.165   4.610  0.0441 -0.3208 -1.6689
 6715TIP3   OH241635   0.092   2.921  12.830 -0.3737  0.3262  0.5401
 6715TIP3    H141636   0.176   2.924  12.783 -0.0682  0.5654  1.0955
 6715TIP3    H241637   0.045   2.999  12.799  0.3890  1.2576  1.6488
 6716TIP3   OH241638   4.203   0.559  16.392  0.0214 -0.1537  0.1152
 6716TIP3    H141639   4.172   0.637  16.345  0.1531 -0.3350 -0.2737
 6716TIP3    H241640   4.294   0.550  16.365 -0.5779 -1.7147 -1.5666
 6717TIP3   OH241641   2.142   4.641   3.714 -0.9386 -0.0471  0.0893
 6717TIP3    H141642   2.207   4.669   3.649 -1.0186 -2.0343 -0.9054
 6717TIP3    H241643   2.109   4.723   3.751  2.3570  1.0761  0.9336
 6718TIP3   OH241644   1.646   4.606  12.309 -0.1063 -0.1764 -0.3100
 6718TIP3    H141645   1.565   4.614  12.360 -0.9632  1.7428 -1.8468
 6718TIP3    H241646   1.712   4.648  12.363 -0.0919 -1.7110  0.9386
 6719TIP3   OH241647   4.785   6.048   3.212 -1.3844  0.4026 -0.0836
 6719TIP3    H141648   4.827   6.127   3.179  2.2033 -0.0204  2.8185
 6719TIP3    H241649   4.832   5.976   3.170 -1.8144 -0.1769  0.4098
 6720TIP3   OH241650   5.305   5.186   5.195  0.3867 -0.4028  0.2853
 6720TIP3    H141651   5.296   5.201   5.101  1.4497 -0.7087  0.1236
 6720TIP3    H241652   5.218   5.161   5.224  0.2192 -1.0739 -0.7661
 6721TIP3   OH241653   0.540   4.974   5.034 -0.0512 -0.1287  0.4168
 6721TIP3    H141654   0.467   4.973   5.095  1.3137  1.0537  2.1776
 6721TIP3    H241655   0.617   4.988   5.089  1.3022  0.5363 -1.5430
 6722TIP3   OH241656   5.617   0.444  16.240 -0.2291  0.5598 -0.4055
 6722TIP3    H141657   5.557   0.403  16.303 -0.9422  1.9613 -0.1059
 6722TIP3    H241658   5.704   0.413  16.265 -0.5958  0.3842  0.7214
 6723TIP3   OH241659   5.237   5.119   2.269  0.3899  0.1792  0.3100
 6723TIP3    H141660   5.292   5.190   2.304  1.0996 -0.6495  0.9078
 6723TIP3    H241661   5.277   5.039   2.302 -2.4089 -0.4314  2.6144
 6724TIP3   OH241662   5.612   0.665   0.457 -0.2280 -0.5170 -0.3093
 6724TIP3    H141663   5.593   0.751   0.419  0.7477 -0.3008 -0.3323
 6724TIP3    H241664   5.570   0.667   0.543 -0.7056 -0.2346 -0.5466
 6725TIP3   OH241665   1.565   0.957   3.573 -0.0862 -0.0317  0.4967
 6725TIP3    H141666   1.607   1.010   3.641  0.7980  1.6159 -1.2317
 6725TIP3    H241667   1.538   0.877   3.618 -0.9177  1.5916  3.1070
 6726TIP3   OH241668   5.015   0.479  12.977  0.4052 -0.3345 -0.2081
 6726TIP3    H141669   4.962   0.531  13.038  1.1775  0.0628  0.1488
 6726TIP3    H241670   4.992   0.513  12.891  0.4337  0.1760 -0.0211
 6727TIP3   OH241671   4.593   2.398   5.677 -0.0890 -0.2748  0.2243
 6727TIP3    H141672   4.595   2.443   5.762 -4.4413  2.0701 -0.6783
 6727TIP3    H241673   4.682   2.409   5.643  0.6113  2.7199  2.5321
 6728TIP3   OH241674   4.835   1.433   1.357  0.8037 -0.3946  0.2652
 6728TIP3    H141675   4.843   1.340   1.338 -0.8496 -0.3481 -0.8000
 6728TIP3    H241676   4.759   1.440   1.414  1.3811  0.2451  0.9898
 6729TIP3   OH241677   5.671   5.288  10.937  0.6352  0.1441  0.3763
 6729TIP3    H141678   5.740   5.235  10.977  0.0764 -0.0180  1.1394
 6729TIP3    H241679   5.718   5.364  10.901  1.5768 -1.2719 -1.5949
 6730TIP3   OH241680   3.732   0.870   5.145 -0.1426 -0.0899  0.0430
 6730TIP3    H141681   3.724   0.850   5.238  1.6508  1.2697  0.5531
 6730TIP3    H241682   3.686   0.953   5.135  1.6870  0.9924  0.2598
 6731TIP3   OH241683   3.526   5.223   6.135  0.4920 -0.2769 -0.1717
 6731TIP3    H141684   3.453   5.238   6.195 -2.5054 -1.5374 -3.1766
 6731TIP3    H241685   3.569   5.308   6.128  0.4164  0.1256  2.9256
 6732TIP3   OH241686   2.370   4.745  13.282  0.4184  0.6035 -0.1830
 6732TIP3    H141687   2.325   4.669  13.244 -0.4880  1.4232 -0.7957
 6732TIP3    H241688   2.462   4.720  13.283 -0.0080 -1.1574  1.1875
 6733TIP3   OH241689   5.771   5.516  14.609  0.3696  0.5375  0.0168
 6733TIP3    H141690   5.743   5.469  14.530 -2.1792 -1.2966  1.8296
 6733TIP3    H241691   5.709   5.588  14.616  1.9297  2.0054 -0.7198
 6734TIP3   OH241692   4.727   0.742   6.328  0.0198  0.1048 -0.1039
 6734TIP3    H141693   4.674   0.808   6.373 -1.1030 -0.1029 -1.0752
 6734TIP3    H241694   4.795   0.718   6.392 -0.6391  0.8708  0.9181
 6735TIP3   OH241695   3.975   3.783  12.536 -0.1238  0.0099 -0.1304
 6735TIP3    H141696   3.942   3.739  12.614  1.2335 -2.7899 -1.0041
 6735TIP3    H241697   4.067   3.799  12.554  0.0035  0.0998 -0.8272
 6736TIP3   OH241698   1.480   6.257   0.294 -0.0236  0.0223 -0.1254
 6736TIP3    H141699   1.548   6.313   0.255 -0.1194  1.3249  1.4610
 6736TIP3    H241700   1.465   6.189   0.229  3.9789 -1.3471  0.0797
 6737TIP3   OH241701   2.573   0.774  12.799 -0.3759  0.1728  0.0780
 6737TIP3    H141702   2.548   0.857  12.841 -0.0880  0.4156 -0.2255
 6737TIP3    H241703   2.503   0.713  12.824  0.0006  0.1922  1.2762
 6738TIP3   OH241704   5.799   4.451  13.664  0.2360 -0.1127  0.3165
 6738TIP3    H141705   5.849   4.436  13.583  0.2290  0.0058  0.2892
 6738TIP3    H241706   5.731   4.384  13.663  1.3240 -1.2592  1.1273
 6739TIP3   OH241707   5.217   4.857  11.308 -0.0617  0.2712 -0.1065
 6739TIP3    H141708   5.123   4.856  11.293 -0.2573  0.2195  1.0230
 6739TIP3    H241709   5.244   4.946  11.287 -0.5161  0.5358  0.4284
 6740TIP3   OH241710   0.153   4.667  15.680  0.2422 -0.0759  0.1493
 6740TIP3    H141711   0.064   4.637  15.698 -0.3604  1.6102  0.2352
 6740TIP3    H241712   0.190   4.686  15.767  0.0331  0.8919  0.0404
 6741TIP3   OH241713   3.104   5.218   3.494  0.1357 -0.0606  0.8164
 6741TIP3    H141714   3.056   5.235   3.575  1.8450  0.8442  1.7076
 6741TIP3    H241715   3.119   5.124   3.494 -1.9242 -0.4379  0.2958
 6742TIP3   OH241716   1.666   5.069  11.130  0.1541 -0.0523  0.3647
 6742TIP3    H141717   1.756   5.052  11.101 -0.1013  0.3487 -0.6930
 6742TIP3    H241718   1.614   5.000  11.089 -0.0318 -0.2909  0.9844
 6743TIP3   OH241719   1.101   1.115   6.406  0.3218  0.3856  0.3526
 6743TIP3    H141720   1.111   1.193   6.352  0.9862 -0.6379 -1.0853
 6743TIP3    H241721   1.078   1.148   6.493 -2.5031  2.0651 -0.8823
 6744TIP3   OH241722   6.614   0.696   2.741 -0.3901  0.6780 -0.4359
 6744TIP3    H141723   6.646   0.638   2.672 -1.9252  1.0905 -1.5450
 6744TIP3    H241724   6.546   0.644   2.786 -0.2726  0.8570 -0.0540
 6745TIP3   OH241725   1.662   3.628   0.485 -0.0376  0.0017  0.2463
 6745TIP3    H141726   1.604   3.567   0.438  1.1308  0.4199 -1.8778
 6745TIP3    H241727   1.746   3.581   0.490  1.0874  1.5592 -2.0372
 6746TIP3   OH241728   6.401   1.077   5.825 -0.1559  0.1398  0.2649
 6746TIP3    H141729   6.486   1.108   5.857 -0.2050  0.2652  0.2777
 6746TIP3    H241730   6.371   1.147   5.766 -0.0036 -0.1506 -0.1641
 6747TIP3   OH241731   1.116   3.205   3.629 -0.5922 -0.3727 -0.2183
 6747TIP3    H141732   1.054   3.248   3.688 -1.6700 -2.7577  0.5485
 6747TIP3    H241733   1.093   3.237   3.542 -2.0482 -0.1914  0.2042
 6748TIP3   OH241734   1.440   1.254  10.619 -0.2146  0.5767 -0.3027
 6748TIP3    H141735   1.525   1.242  10.577 -0.4174  1.1612 -0.8916
 6748TIP3    H241736   1.462   1.281  10.709  0.2139 -1.1914  0.1573
 6749TIP3   OH241737   0.916   2.872   4.133  0.2191 -0.2621  0.7220
 6749TIP3    H141738   0.941   2.915   4.216  0.7142  1.2244 -0.1588
 6749TIP3    H241739   0.996   2.830   4.103  0.0332 -0.8204  0.9839
 6750TIP3   OH241740   0.874   6.144  17.099 -0.0713 -0.1167  0.2890
 6750TIP3    H141741   0.898   6.230  17.135 -0.7575  0.3957 -0.4465
 6750TIP3    H241742   0.952   6.116  17.051 -0.2582  0.6697 -0.5010
 6751TIP3   OH241743   6.532   0.871   5.141  0.4507 -0.2482 -0.0464
 6751TIP3    H141744   6.547   0.906   5.229  1.6213 -2.2895  0.6318
 6751TIP3    H241745   6.463   0.807   5.152 -1.2963  1.3414 -1.1751
 6752TIP3   OH241746   1.623   1.433   2.606 -0.0483  0.5090  0.5839
 6752TIP3    H141747   1.623   1.390   2.692 -0.3173  0.1040  0.3851
 6752TIP3    H241748   1.679   1.510   2.618 -1.0878  1.1494  1.4564
 6753TIP3   OH241749   6.639   3.844   5.399  0.3251 -0.5178 -0.1182
 6753TIP3    H141750   6.548   3.848   5.368  0.6918 -2.4460 -1.6526
 6753TIP3    H241751   6.634   3.794   5.481 -0.2711  1.8707  1.3999
 6754TIP3   OH241752   3.457   6.002  14.215  0.0520  0.1659  0.3490
 6754TIP3    H141753   3.503   5.947  14.279 -1.3140 -2.5632 -0.8510
 6754TIP3    H241754   3.505   5.988  14.133  0.2501  1.6157  0.1812
 6755TIP3   OH241755   0.212   2.296  16.481  0.7887  0.5004  0.2108
 6755TIP3    H141756   0.280   2.252  16.531  0.5933 -0.6512 -0.4900
 6755TIP3    H241757   0.134   2.243  16.495  0.7457  0.0870 -1.3416
 6756TIP3   OH241758   4.394   6.534  16.606 -0.5829 -0.1177  0.3265
 6756TIP3    H141759   4.449   6.480  16.549  0.0212  0.6130  0.2101
 6756TIP3    H241760   4.389   6.619  16.562 -3.1478 -0.6025 -0.5068
 6757TIP3   OH241761   6.611   4.350  13.709  0.0761 -0.1708  0.4108
 6757TIP3    H141762   6.545   4.319  13.770  0.8805 -0.1310  1.3286
 6757TIP3    H241763   6.690   4.361  13.762  1.1745 -1.4046 -0.8672
 6758TIP3   OH241764   3.780   5.410   1.040 -0.0342  0.3310 -1.0259
 6758TIP3    H141765   3.813   5.326   1.011 -1.9599 -1.2208  0.9292
 6758TIP3    H241766   3.685   5.402   1.033 -0.7393 -0.0617  4.6840
 6759TIP3   OH241767   3.951   3.337  10.558 -0.1865  0.1410  0.0428
 6759TIP3    H141768   3.879   3.298  10.509 -0.8423  0.4893  0.7051
 6759TIP3    H241769   3.922   3.426  10.577 -0.3462 -0.2313  1.7947
 6760TIP3   OH241770   1.276   0.740  13.274 -0.3659 -0.4017 -0.0211
 6760TIP3    H141771   1.313   0.770  13.357  0.1813  0.8022 -0.6658
 6760TIP3    H241772   1.183   0.727  13.292  0.0167 -1.7444  1.1741
 6761TIP3   OH241773   4.600   6.495   0.373  0.0031  0.2105 -0.1793
 6761TIP3    H141774   4.679   6.523   0.420  0.3127  0.5426 -0.8879
 6761TIP3    H241775   4.565   6.423   0.426  2.1405 -1.6300 -1.1049
 6762TIP3   OH241776   2.404   1.135  11.188 -0.1016  0.1208  0.0548
 6762TIP3    H141777   2.417   1.111  11.096  2.3356  0.9119  0.1043
 6762TIP3    H241778   2.442   1.062  11.237 -0.4322  0.1877  0.4096
 6763TIP3   OH241779   1.803   2.225  16.391 -0.1255 -0.4447 -0.2690
 6763TIP3    H141780   1.856   2.301  16.415  3.4205 -2.6740 -0.3919
 6763TIP3    H241781   1.781   2.239  16.299  0.4836  0.4401 -0.2930
 6764TIP3   OH241782   5.818   5.220   3.392  0.2427  0.4901 -0.1159
 6764TIP3    H141783   5.787   5.144   3.342 -1.0825  1.3879 -0.7390
 6764TIP3    H241784   5.911   5.204   3.406 -0.0399 -1.3216 -0.0821
 6765TIP3   OH241785   3.241   6.407   1.891 -0.1608 -0.6149  0.2744
 6765TIP3    H141786   3.279   6.326   1.859 -2.6144 -1.6724 -0.2321
 6765TIP3    H241787   3.223   6.391   1.983  0.9275  0.0261  0.6151
 6766TIP3   OH241788   5.613   6.800  12.213 -0.0367 -0.8226 -0.2797
 6766TIP3    H141789   5.585   6.855  12.286 -1.1117 -1.4256 -0.2294
 6766TIP3    H241790   5.707   6.786  12.229 -0.1003 -0.3472  0.5740
 6767TIP3   OH241791   2.868   6.047   0.564 -0.0335  0.1843  0.3403
 6767TIP3    H141792   2.797   5.985   0.546  1.0128 -0.5796 -1.5578
 6767TIP3    H241793   2.852   6.077   0.653 -3.2099  0.7336 -0.2995
 6768TIP3   OH241794   6.393   2.614   3.405  0.0834  0.3141  0.2632
 6768TIP3    H141795   6.319   2.660   3.365 -0.0561 -1.7442 -2.0655
 6768TIP3    H241796   6.448   2.684   3.441 -1.4212  2.0958 -0.7365
 6769TIP3   OH241797   4.969   3.463  14.453  0.2428 -0.3898  0.8666
 6769TIP3    H141798   4.994   3.554  14.467  0.1242  0.6288 -3.7868
 6769TIP3    H241799   5.050   3.419  14.426 -0.3835 -0.5385 -0.9066
 6770TIP3   OH241800   4.851   5.836   0.292  0.5324 -0.0036  0.7657
 6770TIP3    H141801   4.785   5.789   0.344  0.1892  0.1968  0.5095
 6770TIP3    H241802   4.849   5.925   0.326 -0.8058  0.5325 -0.6341
 6771TIP3   OH241803   5.489   1.393   4.689  0.0152 -0.2369 -0.1281
 6771TIP3    H141804   5.532   1.449   4.624 -2.7759  1.2029 -0.8557
 6771TIP3    H241805   5.482   1.448   4.767  2.4789 -1.6443  1.2357
 6772TIP3   OH241806   3.969   2.563  11.372 -0.0087 -0.3470 -0.4606
 6772TIP3    H141807   3.877   2.544  11.394  0.3797 -2.5331 -0.5102
 6772TIP3    H241808   3.991   2.500  11.304  1.9421 -0.8435  0.5627
 6773TIP3   OH241809   5.677   1.286  16.813  0.2126 -0.2612  0.2345
 6773TIP3    H141810   5.667   1.198  16.779  1.2855 -0.0483 -0.7009
 6773TIP3    H241811   5.635   1.342  16.748 -2.5281 -0.1867  1.9252
 6774TIP3   OH241812   5.585   2.886   2.012 -0.3482  0.5643 -0.1521
 6774TIP3    H141813   5.626   2.931   2.085  1.7823 -1.2752 -0.0950
 6774TIP3    H241814   5.498   2.861   2.045 -0.1553  1.3947  1.0517
 6775TIP3   OH241815   0.270   5.457  10.653  0.2637  0.1402  0.4189
 6775TIP3    H141816   0.183   5.493  10.633 -0.4783 -1.1314  1.2505
 6775TIP3    H241817   0.298   5.506  10.731 -0.0499  0.0113  0.6149
 6776TIP3   OH241818   6.132   1.930  14.812  0.1918 -0.2941 -0.9639
 6776TIP3    H141819   6.176   2.013  14.828 -0.1341  0.0796 -1.9182
 6776TIP3    H241820   6.060   1.952  14.753 -0.4049 -1.1251 -0.5687
 6777TIP3   OH241821   6.742   5.323   2.373  0.6569 -0.4879 -0.2246
 6777TIP3    H141822   6.666   5.323   2.314 -1.1427  0.9287  1.9232
 6777TIP3    H241823   6.754   5.232   2.397 -0.8715 -0.6635 -0.0252
 6778TIP3   OH241824   2.859   4.384  11.841 -0.2146 -0.2270  0.3806
 6778TIP3    H141825   2.791   4.383  11.908  0.9146  0.5240  1.5769
 6778TIP3    H241826   2.816   4.351  11.762 -1.3522 -1.9528  1.6656
 6779TIP3   OH241827   5.034   2.742  13.682 -0.8752  0.0313  0.4687
 6779TIP3    H141828   5.014   2.651  13.657  1.0278 -0.7341  1.5414
 6779TIP3    H241829   5.020   2.744  13.776 -1.2433  0.9668  0.4008
 6780TIP3   OH241830   0.628   0.971   2.657 -0.3288  0.0007  0.1776
 6780TIP3    H141831   0.563   0.922   2.706 -1.3665  1.1229 -0.0190
 6780TIP3    H241832   0.588   0.985   2.571  0.5941 -0.1414 -0.2928
 6781TIP3   OH241833   0.218   2.297  11.445  0.6541  0.2502 -0.3581
 6781TIP3    H141834   0.168   2.231  11.493  0.8150 -0.4506 -1.1354
 6781TIP3    H241835   0.260   2.350  11.513  1.7284 -1.3648  0.2883
 6782TIP3   OH241836   1.858   4.944   1.136  0.5747 -0.1417  0.4160
 6782TIP3    H141837   1.845   4.975   1.046 -0.7668  0.6923  0.8719
 6782TIP3    H241838   1.827   4.853   1.134  1.5297 -0.4721 -0.1883
 6783TIP3   OH241839   4.427   2.748  14.731 -0.0308  0.1684  0.1702
 6783TIP3    H141840   4.443   2.817  14.666 -0.4628 -0.0894 -0.2209
 6783TIP3    H241841   4.351   2.780  14.780  0.7403  0.7048  1.0454
 6784TIP3   OH241842   3.366   5.817  13.714 -0.3742  0.3007  0.1227
 6784TIP3    H141843   3.443   5.781  13.758  0.0629  0.0667 -0.7893
 6784TIP3    H241844   3.336   5.888  13.770  0.4642  0.3347  0.5370
 6785TIP3   OH241845   4.589   2.775  14.206 -0.4989  0.3422  0.3330
 6785TIP3    H141846   4.581   2.821  14.290  0.6065  0.3012  0.4819
 6785TIP3    H241847   4.619   2.687  14.231 -0.6538  0.1738 -0.0779
 6786TIP3   OH241848   5.288   4.702   4.690  0.5983  0.1631  0.4739
 6786TIP3    H141849   5.287   4.683   4.784  0.9670  2.5952  1.0297
 6786TIP3    H241850   5.290   4.798   4.685  1.4857  0.0771 -2.0121
 6787TIP3   OH241851   5.164   5.658  13.498 -0.4503 -0.2164 -0.7211
 6787TIP3    H141852   5.094   5.597  13.520 -1.4016  0.9525 -0.3863
 6787TIP3    H241853   5.124   5.720  13.437 -0.0025  1.0345  0.2088
 6788TIP3   OH241854   1.138   2.453  16.831  0.2071 -0.0178  0.4448
 6788TIP3    H141855   1.146   2.420  16.921  1.5588 -2.0128 -0.3309
 6788TIP3    H241856   1.218   2.425  16.788  0.7925  3.1479 -0.7679
 6789TIP3   OH241857   3.343   2.733  12.179  0.1332  0.4526  0.0173
 6789TIP3    H141858   3.249   2.716  12.166  0.0912 -0.1212  0.9819
 6789TIP3    H241859   3.374   2.762  12.093 -1.2047  1.9489 -0.0115
 6790TIP3   OH241860   3.054   4.930   4.520  0.4749  0.4557 -0.2473
 6790TIP3    H141861   3.094   4.934   4.433  0.5303 -0.8417 -0.3084
 6790TIP3    H241862   3.116   4.974   4.578  0.8101  0.6410 -0.7485
 6791TIP3   OH241863   2.369   5.218   3.684 -0.6677 -0.6276 -0.1908
 6791TIP3    H141864   2.394   5.181   3.768 -1.3873  1.2562  0.9155
 6791TIP3    H241865   2.286   5.175   3.662 -0.8749 -0.5594  0.4562
 6792TIP3   OH241866   1.467   3.076  12.539  0.0694 -0.3700 -0.4372
 6792TIP3    H141867   1.461   3.155  12.591 -1.3014  0.2812 -1.5133
 6792TIP3    H241868   1.376   3.053  12.519  0.4514 -2.0466 -0.4054
 6793TIP3   OH241869   4.211   5.018  13.483  0.2190 -0.3224 -0.1995
 6793TIP3    H141870   4.186   5.004  13.574 -0.7876 -0.8807 -0.5556
 6793TIP3    H241871   4.132   5.049  13.440  1.4136  2.9773 -0.2699
 6794TIP3   OH241872   1.887   2.487   2.922  0.1981  0.4385 -0.3111
 6794TIP3    H141873   1.901   2.434   3.000 -0.0299  0.7662 -0.0455
 6794TIP3    H241874   1.941   2.564   2.936  0.0672  0.5502 -0.4244
 6795TIP3   OH241875   2.719   1.596  13.861 -0.3558 -0.1454 -0.3620
 6795TIP3    H141876   2.636   1.582  13.816 -0.0985 -0.0804 -0.8553
 6795TIP3    H241877   2.730   1.518  13.916 -1.1729  0.2412  0.3825
 6796TIP3   OH241878   5.290   4.199  13.542 -0.3231  0.3410 -0.2088
 6796TIP3    H141879   5.272   4.148  13.463 -0.6658 -0.0093  0.0933
 6796TIP3    H241880   5.306   4.288  13.510  2.6749 -0.3817 -1.0039
 6797TIP3   OH241881   3.320   1.053   1.793  0.2301 -0.3052  0.3331
 6797TIP3    H141882   3.277   1.119   1.847 -0.6665  0.7920 -1.5937
 6797TIP3    H241883   3.309   0.971   1.841 -1.2989  0.4646  1.3755
 6798TIP3   OH241884   2.794   2.099  15.303 -0.4667 -0.0036 -0.3855
 6798TIP3    H141885   2.733   2.172  15.296 -2.5678 -1.7530 -1.6461
 6798TIP3    H241886   2.878   2.139  15.328 -2.2531  2.4295  2.3491
 6799TIP3   OH241887   1.110   4.683   4.028  0.2123 -0.1091  0.2425
 6799TIP3    H141888   1.186   4.637   4.066 -0.3331 -0.4081  1.0008
 6799TIP3    H241889   1.089   4.751   4.092 -0.4032 -0.2874  0.2357
 6800TIP3   OH241890   5.987   2.034  15.283 -0.0616  0.8336 -0.2463
 6800TIP3    H141891   5.987   2.112  15.338 -0.3548  0.7017 -0.0562
 6800TIP3    H241892   6.080   2.016  15.267  0.0232  0.8953  0.1665
 6801TIP3   OH241893   6.619   4.697  14.239 -0.0554 -0.0812  0.5877
 6801TIP3    H141894   6.535   4.738  14.216  1.0243  1.2781 -1.2030
 6801TIP3    H241895   6.606   4.604  14.223 -1.1794  0.1296  0.1912
 6802TIP3   OH241896   4.257   5.338   3.295  0.0502 -0.7658 -0.4004
 6802TIP3    H141897   4.184   5.398   3.308  1.1038  0.2658  1.1304
 6802TIP3    H241898   4.301   5.371   3.217 -1.0420 -1.3662 -1.3044
 6803TIP3   OH241899   0.078   3.406   4.183  0.2319  0.0666 -0.1160
 6803TIP3    H141900   0.158   3.387   4.135 -0.2258 -0.2409 -0.7786
 6803TIP3    H241901   0.087   3.359   4.266  0.7145  0.0088 -0.2008
 6804TIP3   OH241902   4.157   2.555  12.127  0.3206  0.0215  0.7580
 6804TIP3    H141903   4.108   2.522  12.052  1.4753 -0.4056  0.1832
 6804TIP3    H241904   4.210   2.626  12.092  3.1543 -2.0717  0.4283
 6805TIP3   OH241905   3.389   5.835  11.739 -0.2822 -0.6677  0.0566
 6805TIP3    H141906   3.329   5.836  11.813 -0.5635 -1.3921 -0.1503
 6805TIP3    H241907   3.474   5.811  11.777  0.4442  2.5228  0.7134
 6806TIP3   OH241908   3.480   3.959  12.058 -0.3683 -0.2875  0.2639
 6806TIP3    H141909   3.499   3.951  11.965  0.7532 -0.0673  0.4651
 6806TIP3    H241910   3.550   3.910  12.102  0.0459  0.9558  1.0439
 6807TIP3   OH241911   1.592   2.337  15.315  0.4617 -0.0041  0.1016
 6807TIP3    H141912   1.677   2.293  15.311  1.0431  1.0238  0.8052
 6807TIP3    H241913   1.539   2.281  15.373  0.9903 -0.1087  0.4923
 6808TIP3   OH241914   0.716   0.900   4.105  0.7537 -0.2332  0.1881
 6808TIP3    H141915   0.747   0.878   4.193 -1.1195  0.0797  0.9768
 6808TIP3    H241916   0.687   0.991   4.113 -1.9542 -1.0133  0.0245
 6809TIP3   OH241917   1.191   4.583  16.689  0.2807  0.8835  0.1405
 6809TIP3    H141918   1.111   4.601  16.739 -0.8516 -0.8787 -0.8810
 6809TIP3    H241919   1.160   4.533  16.613  2.3079  0.6279 -0.5819
 6810TIP3   OH241920   6.523   5.100  16.666  0.1304  0.4353  0.0131
 6810TIP3    H141921   6.547   5.011  16.641 -1.4489 -0.1602  0.4987
 6810TIP3    H241922   6.552   5.154  16.592  1.0914 -0.4691 -0.3000
 6811TIP3   OH241923   2.467   1.576   5.457  0.3609 -0.1362 -0.6341
 6811TIP3    H141924   2.463   1.537   5.544 -0.0314 -0.5134 -0.8222
 6811TIP3    H241925   2.379   1.610   5.442  0.8617  1.4817 -0.1747
 6812TIP3   OH241926   6.559   5.619   2.587  1.0690 -0.1929  0.1613
 6812TIP3    H141927   6.632   5.634   2.527  0.3536 -0.1103 -0.7184
 6812TIP3    H241928   6.573   5.531   2.621  2.8976  0.7006  1.9177
 6813TIP3   OH241929   6.747   4.170  16.230  0.0833  0.4340 -0.2587
 6813TIP3    H141930   6.819   4.138  16.175  1.5682  3.6967 -0.4484
 6813TIP3    H241931   6.670   4.167  16.174  0.2933 -1.8000 -0.5124
 6814TIP3   OH241932   5.671   0.432  16.955 -0.1574  0.3020  0.0819
 6814TIP3    H141933   5.580   0.423  16.927 -0.1748 -0.5714  0.4087
 6814TIP3    H241934   5.720   0.373  16.898  0.3164  1.2503 -0.5365
 6815TIP3   OH241935   5.950   2.125   2.531 -0.1700 -0.2117 -0.7117
 6815TIP3    H141936   6.039   2.158   2.526  0.0439 -0.2327  1.5594
 6815TIP3    H241937   5.904   2.188   2.586 -1.3486 -0.6232 -1.1841
 6816TIP3   OH241938   4.434   4.528  13.625 -0.4537 -0.7850  0.1089
 6816TIP3    H141939   4.471   4.606  13.585 -0.4626 -1.0511 -0.4351
 6816TIP3    H241940   4.375   4.493  13.558  0.6134 -2.0358 -0.2156
 6817TIP3   OH241941   0.293   2.079  13.416  0.3582  0.2694 -0.5030
 6817TIP3    H141942   0.372   2.033  13.443  1.5704  2.5561  0.0163
 6817TIP3    H241943   0.254   2.021  13.350  2.8600 -0.5843 -1.3516
 6818TIP3   OH241944   3.613   1.199  15.716  0.1114 -0.5056 -0.1604
 6818TIP3    H141945   3.532   1.243  15.691 -0.1807 -0.1618  1.3111
 6818TIP3    H241946   3.591   1.150  15.795  0.9853 -1.5908 -0.5517
 6819TIP3   OH241947   6.627   1.298  16.388 -0.1650 -0.1849 -1.0138
 6819TIP3    H141948   6.595   1.228  16.445  0.8719 -0.2260 -0.4664
 6819TIP3    H241949   6.567   1.297  16.313 -2.3759  0.6961  0.6144
 6820TIP3   OH241950   6.274   3.894  17.101  0.9441  0.1214  0.4483
 6820TIP3    H141951   6.228   3.969  17.065  0.4147 -0.5717 -0.3322
 6820TIP3    H241952   6.337   3.870  17.033  2.0991  0.7143  1.2740
 6821TIP3   OH241953   5.735   6.422   3.800 -0.0693  0.3157  0.1116
 6821TIP3    H141954   5.731   6.335   3.760 -0.4601 -0.4042  1.6335
 6821TIP3    H241955   5.819   6.424   3.845 -0.5446  0.2868  1.0158
 6822TIP3   OH241956   6.262   3.869   4.209  0.0658  0.3776  0.5303
 6822TIP3    H141957   6.316   3.873   4.130  0.6044  1.5483  0.9266
 6822TIP3    H241958   6.272   3.955   4.249 -2.7855  0.9234  0.2087
 6823TIP3   OH241959   1.648   0.187   0.248  0.0041 -0.1381  0.5997
 6823TIP3    H141960   1.629   0.228   0.333  1.5127 -0.4390  1.1163
 6823TIP3    H241961   1.743   0.195   0.239 -0.0589 -0.7517 -0.7381
 6824TIP3   OH241962   1.912   4.995  13.444  0.0871 -0.8298 -0.2836
 6824TIP3    H141963   1.956   4.916  13.410  1.4569 -0.9103  1.5371
 6824TIP3    H241964   1.846   4.961  13.504  1.2352 -0.6188  1.1419
 6825TIP3   OH241965   4.737   0.008   3.977  0.4415  0.0819 -0.0156
 6825TIP3    H141966   4.727   0.077   4.043 -1.2123 -0.5544  0.4249
 6825TIP3    H241967   4.808  -0.047   4.011  1.4117  1.2206 -0.1074
 6826TIP3   OH241968   1.928   4.458   3.758  0.6429  0.2975 -0.0719
 6826TIP3    H141969   1.911   4.467   3.852  1.8173 -0.5110  0.2356
 6826TIP3    H241970   2.009   4.507   3.744  1.4469 -1.0596 -0.3106
 6827TIP3   OH241971   6.413   0.113  10.906 -0.4510  0.1127  0.4260
 6827TIP3    H141972   6.398   0.026  10.942 -1.1863  0.1000  0.1041
 6827TIP3    H241973   6.499   0.138  10.939  0.4661 -1.3704 -0.7307
 6828TIP3   OH241974   0.940   6.388  16.944  0.0390 -0.4290  0.5733
 6828TIP3    H141975   1.014   6.415  16.999  0.5000 -1.4387  0.4608
 6828TIP3    H241976   0.951   6.437  16.863 -1.3051  2.0104  1.7283
 6829TIP3   OH241977   6.135   3.344  12.681 -0.3225 -0.1687  0.3426
 6829TIP3    H141978   6.070   3.320  12.747 -1.9964  0.2889 -1.0831
 6829TIP3    H241979   6.188   3.411  12.723 -2.4910  1.4311  0.6803
 6830TIP3   OH241980   3.848   5.412  11.304 -0.3144  0.2866 -0.1070
 6830TIP3    H141981   3.942   5.415  11.324 -0.6283  0.6186  1.4224
 6830TIP3    H241982   3.821   5.503  11.299 -0.8677  0.2218  1.1658
 6831TIP3   OH241983   1.875   3.930  15.263 -0.2667  0.1731 -0.5434
 6831TIP3    H141984   1.960   3.887  15.260 -0.2182  0.2444 -0.1717
 6831TIP3    H241985   1.850   3.940  15.171 -0.1330 -0.3548 -0.6387
 6832TIP3   OH241986   2.428   2.914   0.634  0.0930  0.0982  0.0874
 6832TIP3    H141987   2.426   2.894   0.541 -0.1826  1.6732 -0.2583
 6832TIP3    H241988   2.394   3.003   0.641  0.7255  0.2524  1.6289
 6833TIP3   OH241989   4.297   3.370   5.347  0.2568  0.1014 -0.2756
 6833TIP3    H141990   4.289   3.298   5.409  0.2528  1.2402  1.1086
 6833TIP3    H241991   4.356   3.337   5.279  0.5071 -1.0842  0.4842
 6834TIP3   OH241992   1.208   1.784  15.907 -0.2474 -0.0497 -0.0014
 6834TIP3    H141993   1.213   1.719  15.977 -0.3727  0.7174  0.7349
 6834TIP3    H241994   1.117   1.812  15.907 -0.0749  0.5264  0.0703
 6835TIP3   OH241995   1.109   3.960  17.289  0.0255  0.1134  0.0248
 6835TIP3    H141996   1.175   4.022  17.260 -0.7698  0.9382 -0.0592
 6835TIP3    H241997   1.031   3.983  17.239 -1.2707  1.2598  2.3972
 6836TIP3   OH241998   2.567   3.382  15.848  0.2584  0.0558  0.0384
 6836TIP3    H141999   2.596   3.442  15.779 -2.0551 -1.1623 -2.1181
 6836TIP3    H242000   2.519   3.438  15.909 -0.5982  0.6445 -1.1487
 6837TIP3   OH242001   6.701   0.864   3.216 -0.6590  0.5022 -0.1797
 6837TIP3    H142002   6.632   0.931   3.204  0.2681  1.4671 -0.2692
 6837TIP3    H242003   6.701   0.816   3.133 -1.3624  0.3464 -0.1027
 6838TIP3   OH242004   3.151   1.148   3.538  0.3528  0.0982  0.1293
 6838TIP3    H142005   3.060   1.158   3.513  0.5337  1.7946  0.0645
 6838TIP3    H242006   3.169   1.055   3.524 -0.6496  0.1866 -2.3223
 6839TIP3   OH242007   5.428   5.917  14.940  0.8514  0.0157  0.6560
 6839TIP3    H142008   5.380   5.995  14.910 -0.7238 -0.2110  2.4536
 6839TIP3    H242009   5.371   5.844  14.916  1.8740 -0.5373 -0.1434
 6840TIP3   OH242010   0.705   0.822  11.565  0.1956  0.1206  0.0769
 6840TIP3    H142011   0.634   0.781  11.615  0.2319  1.3369  1.1847
 6840TIP3    H242012   0.664   0.899  11.524  0.4939 -0.0985 -0.6509
 6841TIP3   OH242013   0.607   2.979  12.754  0.3320  0.5652  0.0295
 6841TIP3    H142014   0.651   2.919  12.816 -1.2520 -0.9368 -0.2335
 6841TIP3    H242015   0.626   3.066  12.789  0.7973 -0.1685  1.7445
 6842TIP3   OH242016   1.765   1.708   0.135 -0.3212  0.0469  0.0368
 6842TIP3    H142017   1.807   1.623   0.147  0.3395  0.2652 -0.6626
 6842TIP3    H242018   1.817   1.768   0.189  1.8880  0.7916 -2.6287
 6843TIP3   OH242019   0.241   1.712   0.909 -0.0470  0.2780 -0.9346
 6843TIP3    H142020   0.306   1.643   0.896 -0.5818 -0.5835  0.6373
 6843TIP3    H242021   0.255   1.741   0.999 -2.4645 -0.7021 -0.1426
 6844TIP3   OH242022   1.523   4.993  16.117 -0.0965  0.1573  0.2792
 6844TIP3    H142023   1.539   5.085  16.097  0.7888 -0.4324 -2.0925
 6844TIP3    H242024   1.434   4.976  16.085 -1.7700  0.9285  3.9720
 6845TIP3   OH242025   3.226   6.218  11.425  0.1934  0.1325 -0.1754
 6845TIP3    H142026   3.176   6.250  11.500 -0.5137 -0.2070 -0.4946
 6845TIP3    H242027   3.304   6.179  11.463  0.0021  0.2674  0.3614
 6846TIP3   OH242028   6.035   3.847   4.022  0.0967 -0.1637 -0.2763
 6846TIP3    H142029   6.076   3.887   4.098 -0.4269  0.1051 -0.1323
 6846TIP3    H242030   6.013   3.758   4.050  0.3013 -0.2062 -0.2533
 6847TIP3   OH242031   4.164   5.158   4.646 -0.2105 -0.1524 -0.3598
 6847TIP3    H142032   4.177   5.229   4.583  0.6715  0.6423  0.6758
 6847TIP3    H242033   4.166   5.078   4.593  1.2204  0.4470 -1.2674
 6848TIP3   OH242034   2.899   5.367   0.525  0.1644 -0.1698  0.2273
 6848TIP3    H142035   2.857   5.284   0.547 -0.4397  0.1433  0.2888
 6848TIP3    H242036   2.910   5.411   0.609  1.2599 -0.5437  0.2839
 6849TIP3   OH242037   6.077   1.432  10.765 -1.1311 -0.1095  0.6472
 6849TIP3    H142038   6.149   1.409  10.706 -1.8116 -1.1897  0.2007
 6849TIP3    H242039   5.999   1.432  10.709 -1.8003 -1.2021  1.5397
 6850TIP3   OH242040   2.011   2.671   4.949 -0.3359  0.5645 -0.8893
 6850TIP3    H142041   1.977   2.661   5.038 -1.9646  1.1196 -1.4114
 6850TIP3    H242042   2.092   2.619   4.948 -0.6602 -0.0225  0.7030
 6851TIP3   OH242043   1.037   2.827   0.845  0.0996  0.5663  0.1804
 6851TIP3    H142044   1.095   2.756   0.875  0.1277  0.5273  0.0340
 6851TIP3    H242045   1.036   2.889   0.918  1.2088  1.1069 -0.2324
 6852TIP3   OH242046   4.053   5.558   2.858  0.1837  0.4446  0.1533
 6852TIP3    H142047   4.028   5.532   2.769  2.3883 -0.0501 -0.3865
 6852TIP3    H242048   4.072   5.651   2.851 -0.7475  0.6638  0.3999
 6853TIP3   OH242049   4.061   2.316  13.037  0.1135  0.4197 -0.5129
 6853TIP3    H142050   4.082   2.398  13.082 -0.4121  1.0264 -1.3527
 6853TIP3    H242051   3.975   2.291  13.069  0.3883  0.0373 -0.0524
 6854TIP3   OH242052   5.386   3.691  14.183 -0.1170  0.1125  0.2625
 6854TIP3    H142053   5.362   3.644  14.103  1.6994 -0.1140 -0.1958
 6854TIP3    H242054   5.407   3.780  14.153  1.6534 -0.2753  0.2938
 6855TIP3   OH242055   1.798   2.774  11.242 -0.4165 -0.2034  0.1487
 6855TIP3    H142056   1.882   2.734  11.266 -0.1255  0.7125  0.6864
 6855TIP3    H242057   1.738   2.748  11.312 -0.5475 -0.6907 -0.1334
 6856TIP3   OH242058   2.880   4.741   5.639  0.2733  0.1987 -0.1278
 6856TIP3    H142059   2.949   4.739   5.573  0.0941 -0.9236 -0.3084
 6856TIP3    H242060   2.811   4.684   5.603 -0.5247  0.8767  0.2864
 6857TIP3   OH242061   2.092   0.449   4.360 -0.2662  0.4192  0.1327
 6857TIP3    H142062   2.112   0.536   4.394 -1.0510  0.2853  0.9743
 6857TIP3    H242063   2.139   0.445   4.276 -1.5351  2.2581 -0.7316
 6858TIP3   OH242064   2.800   0.741   0.129  1.0507 -0.3406 -0.7442
 6858TIP3    H142065   2.737   0.741   0.201 -0.4810  0.6564 -2.0053
 6858TIP3    H242066   2.881   0.709   0.168  0.4543  0.7328  1.5685
 6859TIP3   OH242067   2.263   0.384  13.403  0.2832 -0.2591  0.5406
 6859TIP3    H142068   2.297   0.327  13.473 -0.4784  1.1444  2.1303
 6859TIP3    H242069   2.260   0.471  13.443 -0.0003  0.6363 -1.3416
 6860TIP3   OH242070   5.599   4.792   3.382  0.5208  0.5021  0.0276
 6860TIP3    H142071   5.578   4.725   3.447  1.5377  1.8115  1.7840
 6860TIP3    H242072   5.671   4.753   3.331  2.0502  0.6976  1.9160
 6861TIP3   OH242073   3.079   2.321  15.280  0.1477  0.1303  0.2106
 6861TIP3    H142074   3.094   2.227  15.272 -2.9544 -0.3894 -0.7618
 6861TIP3    H242075   3.040   2.347  15.197 -1.1979  1.7947  1.2832
 6862TIP3   OH242076   6.004   6.797  14.546  1.0294  0.6700  0.3605
 6862TIP3    H142077   5.965   6.817  14.461  1.6861 -1.0008 -0.3919
 6862TIP3    H242078   5.943   6.834  14.610 -0.6433  0.0634 -0.8015
 6863TIP3   OH242079   6.684   4.199  16.529  0.2105  0.1687 -0.3138
 6863TIP3    H142080   6.595   4.176  16.559  0.4297  0.3425  0.4815
 6863TIP3    H242081   6.734   4.118  16.539  0.0596 -0.0216 -1.0862
 6864TIP3   OH242082   6.735   2.711   4.592  0.5963 -0.1463 -0.2956
 6864TIP3    H142083   6.643   2.734   4.602  0.2230 -1.1675 -1.2148
 6864TIP3    H242084   6.778   2.794   4.572 -0.0004  0.4475  0.7600
 6865TIP3   OH242085   1.990   1.527   5.132  0.0021 -0.1074 -0.6600
 6865TIP3    H142086   1.983   1.457   5.067 -0.6109 -0.5068 -0.1696
 6865TIP3    H242087   1.996   1.607   5.080  3.8931 -0.6729 -1.3576
 6866TIP3   OH242088   1.620   3.710  11.647 -0.1495 -0.0535  0.2100
 6866TIP3    H142089   1.698   3.731  11.596 -0.5065 -1.0819 -0.8112
 6866TIP3    H242090   1.640   3.740  11.735 -0.2949  3.6814 -0.8546
 6867TIP3   OH242091   4.043   2.481  14.957 -0.4172  0.5934 -0.9662
 6867TIP3    H142092   4.117   2.531  14.994 -1.0296  2.7152 -2.3809
 6867TIP3    H242093   4.070   2.463  14.867 -0.8287 -0.3912 -0.9017
 6868TIP3   OH242094   3.185   2.506  15.543  0.1368 -0.0231 -0.7101
 6868TIP3    H142095   3.232   2.495  15.461  1.6779  2.5419 -0.3116
 6868TIP3    H242096   3.212   2.431  15.597  1.3091 -0.2843 -1.6089
 6869TIP3   OH242097   2.963   3.673  14.027  0.2475 -0.5401  0.3866
 6869TIP3    H142098   3.052   3.671  13.991 -0.2350  0.7645 -0.9683
 6869TIP3    H242099   2.907   3.653  13.953 -0.6631 -0.0384  0.9242
 6870TIP3   OH242100   4.600   5.862  13.019 -0.6664 -0.1100  0.1503
 6870TIP3    H142101   4.568   5.827  13.103 -1.9594 -2.3423 -1.1728
 6870TIP3    H242102   4.521   5.893  12.975 -0.1039  0.3390 -0.5443
 6871TIP3   OH242103   6.789   0.192  12.313 -0.0778 -0.3305 -0.2492
 6871TIP3    H142104   6.799   0.192  12.408 -0.9221  1.0567 -0.1430
 6871TIP3    H242105   6.861   0.246  12.280 -1.6516  1.9936 -0.1172
 6872TIP3   OH242106   6.677   2.121   6.465 -0.0555  0.4019 -0.3327
 6872TIP3    H142107   6.640   2.038   6.493 -1.1065  0.4920 -1.3764
 6872TIP3    H242108   6.604   2.182   6.466  1.0074  1.8039  2.0360
 6873TIP3   OH242109   6.247   6.073  17.056 -0.4093  0.4493  0.1444
 6873TIP3    H142110   6.266   6.151  17.108  0.6617 -0.0979  0.5991
 6873TIP3    H242111   6.244   6.104  16.966 -1.9232  1.3396  0.4608
 6874TIP3   OH242112   3.022   6.087  13.773 -0.1132 -0.1447  0.1205
 6874TIP3    H142113   2.987   6.033  13.844 -0.5114  1.4979  1.2301
 6874TIP3    H242114   2.958   6.078  13.702 -0.7946 -0.2144  0.7305
 6875TIP3   OH242115   5.816   6.061  14.007  0.2217  0.0702  0.5251
 6875TIP3    H142116   5.826   6.086  13.915  1.0040  0.2661  0.6573
 6875TIP3    H242117   5.735   6.103  14.035 -0.7761 -1.1149 -0.4477
 6876TIP3   OH242118   2.244   3.215   0.871  0.1470  0.9598  0.1949
 6876TIP3    H142119   2.338   3.211   0.888  0.0781  0.2560  0.4802
 6876TIP3    H242120   2.215   3.124   0.881 -0.7105  1.3028  0.9944
 6877TIP3   OH242121   2.759   4.560   4.032  0.7387  0.7755 -0.3561
 6877TIP3    H142122   2.798   4.474   4.021  0.3303  0.8382 -3.0267
 6877TIP3    H242123   2.672   4.553   3.992  0.0214  1.9720  0.9112
 6878TIP3   OH242124   0.611   3.764  12.968  0.4486 -0.5820  0.1578
 6878TIP3    H142125   0.552   3.767  13.043 -0.3074  0.2654 -0.4653
 6878TIP3    H242126   0.576   3.828  12.906  2.5718  0.7005  0.1740
 6879TIP3   OH242127   3.732   1.311  11.404 -0.4166  0.3480  0.1929
 6879TIP3    H142128   3.701   1.230  11.362  0.7395  0.4332 -0.8893
 6879TIP3    H242129   3.767   1.363  11.331  0.0683  1.2525  1.0586
 6880TIP3   OH242130   6.304   5.835   1.561 -0.0226 -0.1876  0.1638
 6880TIP3    H142131   6.299   5.776   1.486  0.5647  0.9822 -0.8295
 6880TIP3    H242132   6.397   5.848   1.577 -0.0499  2.1454 -1.0656
 6881TIP3   OH242133   1.003   2.571   0.044  0.5709 -0.1077 -0.6562
 6881TIP3    H142134   0.988   2.655   0.001 -0.2316  0.6854  1.0729
 6881TIP3    H242135   1.098   2.569   0.059  0.4714  1.0495  0.3054
 6882TIP3   OH242136   1.172   0.942  13.475  0.4104 -0.4178  0.3312
 6882TIP3    H142137   1.123   0.920  13.554  0.8986  0.1051  0.7916
 6882TIP3    H242138   1.200   1.032  13.489  2.1523 -0.9341  0.4315
 6883TIP3   OH242139   2.271   1.855  12.938  0.3001 -0.0699 -0.8273
 6883TIP3    H142140   2.366   1.864  12.936  0.2344  0.7478 -0.6987
 6883TIP3    H242141   2.243   1.911  13.011 -0.2025 -1.1113 -0.2080
 6884TIP3   OH242142   6.604   0.089   6.612  0.5783 -0.1667 -0.8193
 6884TIP3    H142143   6.553   0.164   6.579  1.2110  0.0493 -1.3297
 6884TIP3    H242144   6.557   0.061   6.690 -0.9439 -0.6694 -1.8827
 6885TIP3   OH242145   2.425   5.244  15.645  0.0871 -0.5523 -0.3658
 6885TIP3    H142146   2.366   5.225  15.572 -1.9284 -0.5635  1.1711
 6885TIP3    H242147   2.383   5.316  15.692  1.8295  0.1150  0.2682
 6886TIP3   OH242148   0.779   1.469  10.731  0.1753 -0.2260 -1.2245
 6886TIP3    H142149   0.836   1.446  10.658 -0.4148 -0.6759 -1.5440
 6886TIP3    H242150   0.720   1.536  10.696  1.0560  0.8835 -0.6531
 6887TIP3   OH242151   2.974   4.093   0.109  0.3461  0.3842 -0.2971
 6887TIP3    H142152   2.919   4.135   0.175 -0.4190 -3.6693  2.0284
 6887TIP3    H242153   2.912   4.057   0.046  0.6869  0.0855 -0.4675
 6888TIP3   OH242154   2.533   5.699  15.266  0.3304  0.4250  0.3892
 6888TIP3    H142155   2.612   5.747  15.288  1.6002 -2.7332  4.0191
 6888TIP3    H242156   2.473   5.718  15.338 -1.4954  1.1708 -1.2523
 6889TIP3   OH242157   4.154   3.943  16.030  0.5048 -0.1176 -0.6562
 6889TIP3    H142158   4.180   3.976  16.116  0.3367 -1.2259 -0.1590
 6889TIP3    H242159   4.099   3.867  16.049  1.0282 -0.7926 -1.7465
 6890TIP3   OH242160   3.614   0.454   4.640  0.2806  0.0035 -0.2388
 6890TIP3    H142161   3.536   0.490   4.683 -0.2138 -0.4722 -0.7337
 6890TIP3    H242162   3.662   0.532   4.610  0.1115  0.3044  0.2487
 6891TIP3   OH242163   4.552   2.486   3.277  0.0659  0.0515 -0.4355
 6891TIP3    H142164   4.491   2.556   3.253 -0.2626  0.0876  0.4467
 6891TIP3    H242165   4.524   2.460   3.365  1.8755  0.6879  0.3899
 6892TIP3   OH242166   6.373   2.950   3.132  0.4101 -0.0342 -0.1683
 6892TIP3    H142167   6.427   2.908   3.199 -0.9634 -0.9455  0.4236
 6892TIP3    H242168   6.343   2.878   3.077 -1.7059  0.1537  0.6480
 6893TIP3   OH242169   2.652   5.240   1.538  0.0936  0.0670  0.1908
 6893TIP3    H142170   2.633   5.311   1.599  0.6942 -0.1826  0.6814
 6893TIP3    H242171   2.585   5.248   1.470  0.3527  1.3167  0.0531
 6894TIP3   OH242172   0.933   4.473  13.248  0.0653 -0.3167 -0.0507
 6894TIP3    H142173   1.011   4.425  13.218  2.0530  2.8134 -0.3459
 6894TIP3    H242174   0.961   4.515  13.329 -1.8888 -0.3449  0.6836
 6895TIP3   OH242175   5.732   4.987  12.606  0.0371 -0.0074  0.2191
 6895TIP3    H142176   5.705   4.895  12.607 -0.1852  0.0496 -0.2226
 6895TIP3    H242177   5.816   4.987  12.561  0.0860 -0.0052  0.3089
 6896TIP3   OH242178   3.331   4.243   3.116  0.2015 -0.5694 -0.3924
 6896TIP3    H142179   3.310   4.154   3.087  0.2232  0.3969 -3.7463
 6896TIP3    H242180   3.302   4.246   3.207  0.3918 -4.0382 -0.0970
 6897TIP3   OH242181   1.883   3.734  14.152 -0.0997  0.1255  0.1730
 6897TIP3    H142182   1.927   3.706  14.233  0.3949 -0.5255 -0.3121
 6897TIP3    H242183   1.887   3.657  14.095  1.8992  1.3366 -1.4689
 6898TIP3   OH242184   5.161   4.418   5.082 -0.0447  0.3295 -0.0694
 6898TIP3    H142185   5.095   4.420   5.152 -3.3600  0.1240 -2.9243
 6898TIP3    H242186   5.192   4.328   5.081 -1.1018 -0.0442  0.1640
 6899TIP3   OH242187   2.386   3.145  15.024  0.5407 -0.4262 -0.1888
 6899TIP3    H142188   2.352   3.061  15.053 -0.5476 -0.8243 -2.4728
 6899TIP3    H242189   2.426   3.127  14.939  1.6479  1.0897 -0.0289
 6900TIP3   OH242190   3.758   0.330   3.292  0.8710 -0.1111  0.3207
 6900TIP3    H142191   3.705   0.251   3.302 -0.7103  0.9512  0.6849
 6900TIP3    H242192   3.759   0.369   3.379  2.5191 -0.2466  0.3829
 6901TIP3   OH242193   6.045   6.784  11.335 -0.4546 -0.3056  0.2415
 6901TIP3    H142194   6.125   6.828  11.304 -0.5395  0.0887  0.5679
 6901TIP3    H242195   6.075   6.698  11.365  0.0577  0.3008  1.5144
 6902TIP3   OH242196   2.559   2.138  11.485 -0.4692  0.1442 -0.2385
 6902TIP3    H142197   2.481   2.087  11.462 -0.3882 -0.8000  1.4222
 6902TIP3    H242198   2.524   2.212  11.536 -0.3714  0.3489 -0.4682
 6903TIP3   OH242199   5.721   2.505  15.509  0.6459  0.4789  0.6066
 6903TIP3    H142200   5.793   2.524  15.569  1.4166 -0.8598  0.1485
 6903TIP3    H242201   5.735   2.564  15.435  1.5293 -0.0407  0.3403
 6904TIP3   OH242202   3.225   0.575   0.061 -0.2069 -0.1341 -0.1762
 6904TIP3    H142203   3.230   0.480   0.074 -1.4301 -0.4442 -1.7587
 6904TIP3    H242204   3.288   0.593  -0.008 -2.3588 -0.3578 -2.3150
 6905TIP3   OH242205   6.657   2.721  16.606 -0.0882  1.2091 -0.6339
 6905TIP3    H142206   6.594   2.722  16.534  0.5539  0.3452 -1.2252
 6905TIP3    H242207   6.694   2.633  16.605  1.7587  1.9317 -0.8597
 6906TIP3   OH242208   4.146   5.769   0.795  0.0503  0.2479  0.1017
 6906TIP3    H142209   4.082   5.729   0.736  0.4727 -1.0764  0.5025
 6906TIP3    H242210   4.189   5.695   0.838  0.7210  1.1497  1.0470
 6907TIP3   OH242211   0.726   5.602  11.569  0.4600  0.5048 -0.6574
 6907TIP3    H142212   0.685   5.645  11.643 -1.8283 -1.5957 -0.5513
 6907TIP3    H242213   0.755   5.673  11.512 -1.1618  2.1483  0.4698
 6908TIP3   OH242214   0.289   3.020  13.269 -0.0299 -0.3977 -0.0434
 6908TIP3    H142215   0.342   2.957  13.221 -1.7025 -1.7771 -0.1525
 6908TIP3    H242216   0.275   2.980  13.354 -0.0504  0.4235  0.3505
 6909TIP3   OH242217   1.797   6.348   0.483 -0.2837  0.0420  0.2507
 6909TIP3    H142218   1.823   6.268   0.438 -0.6970  0.2042 -0.2940
 6909TIP3    H242219   1.854   6.416   0.447  0.8461 -0.1831  1.5317
 6910TIP3   OH242220   3.679   1.118  15.017  0.2488 -0.1786  0.1892
 6910TIP3    H142221   3.738   1.178  14.972  2.0832 -1.0979  1.2654
 6910TIP3    H242222   3.658   1.051  14.951  0.9055 -0.1615 -0.0471
 6911TIP3   OH242223   1.524   3.008   0.131  0.0072 -0.6852 -0.1750
 6911TIP3    H142224   1.441   3.001   0.179  0.0179 -2.3544 -0.3529
 6911TIP3    H242225   1.545   3.101   0.134  1.0648 -0.7621  4.9295
 6912TIP3   OH242226   4.233   1.639   1.971 -0.1869  0.0077  0.4005
 6912TIP3    H142227   4.313   1.594   1.944 -0.6895  0.4324 -2.0402
 6912TIP3    H242228   4.192   1.579   2.034  0.6136 -1.5720 -0.5333
 6913TIP3   OH242229   4.041   5.315  14.606  0.0226  0.2644 -0.0830
 6913TIP3    H142230   4.115   5.342  14.660 -0.7875  1.1866  0.5735
 6913TIP3    H242231   3.981   5.389  14.608 -1.3380 -0.8176  0.1384
 6914TIP3   OH242232   5.723   6.050   3.777  0.1207 -0.2362  0.6331
 6914TIP3    H142233   5.766   6.079   3.697  0.4071  0.0122  0.8712
 6914TIP3    H242234   5.638   6.094   3.776  0.9964  1.6077  1.5569
 6915TIP3   OH242235   0.415   4.202  16.633 -0.0476 -0.3353 -0.3654
 6915TIP3    H142236   0.359   4.245  16.569 -0.0061 -1.6606 -1.3586
 6915TIP3    H242237   0.374   4.219  16.717 -3.5398 -3.3095 -1.1836
 6916TIP3   OH242238   0.171   0.341  16.529 -0.2000 -0.2309  0.3539
 6916TIP3    H142239   0.083   0.320  16.497 -1.0638 -1.0676  2.9722
 6916TIP3    H242240   0.177   0.436  16.523  0.5950 -0.3552 -4.0882
 6917TIP3   OH242241   0.595   4.007   6.065  0.2026  0.6168  0.2355
 6917TIP3    H142242   0.553   4.000   6.151  1.3405 -1.7157  0.6779
 6917TIP3    H242243   0.669   4.066   6.080 -0.3870  1.3081  0.4984
 6918TIP3   OH242244   3.430   2.639  11.680  0.6201  0.5245  0.3518
 6918TIP3    H142245   3.471   2.597  11.604 -2.4912  0.2075 -1.3192
 6918TIP3    H242246   3.416   2.568  11.742 -1.3018 -0.2880 -0.9325
 6919TIP3   OH242247   0.633   6.668  14.571 -0.4696 -0.1789  0.5512
 6919TIP3    H142248   0.545   6.704  14.568 -0.3156  0.1508 -0.2280
 6919TIP3    H242249   0.630   6.593  14.511  0.1296  0.6445 -0.5296
 6920TIP3   OH242250   3.614   3.378   3.847 -0.2508  0.3061  0.3743
 6920TIP3    H142251   3.678   3.340   3.907 -0.9344 -0.7578  0.4692
 6920TIP3    H242252   3.656   3.456   3.813 -0.0940  1.3377  2.7362
 6921TIP3   OH242253   2.245   6.627   5.178 -0.6186  0.5646  1.1822
 6921TIP3    H142254   2.295   6.558   5.221 -1.0431  0.5312  1.6345
 6921TIP3    H242255   2.219   6.588   5.094  2.6154  1.5910 -0.4779
 6922TIP3   OH242256   1.481   2.777   2.626 -0.3978  0.0630  0.0411
 6922TIP3    H142257   1.433   2.702   2.661  0.2462  0.0168  0.8363
 6922TIP3    H242258   1.551   2.793   2.689 -1.6910  2.5919  0.9726
 6923TIP3   OH242259   4.984   6.598  16.133  0.2101  0.5091 -0.0048
 6923TIP3    H142260   4.951   6.565  16.049  0.3200  0.8085 -0.1629
 6923TIP3    H242261   5.079   6.585  16.128  0.5426  2.8724 -0.9724
 6924TIP3   OH242262   5.050   1.639   0.357 -0.5048 -0.0260  0.4095
 6924TIP3    H142263   4.974   1.608   0.307 -0.9526  1.1511  0.3340
 6924TIP3    H242264   5.084   1.712   0.306  0.9462 -0.7772  0.2313
 6925TIP3   OH242265   6.011   4.112  15.468 -0.5006 -0.3322  0.3067
 6925TIP3    H142266   5.976   4.025  15.444  1.5172 -1.2850  0.6492
 6925TIP3    H242267   6.014   4.160  15.385 -2.3672 -0.2699  0.2320
 6926TIP3   OH242268   1.811   4.898  14.196  0.2659 -0.0679 -0.2818
 6926TIP3    H142269   1.815   4.845  14.116 -0.2755 -0.5276 -0.0047
 6926TIP3    H242270   1.728   4.945  14.189  0.9469  1.1181 -0.7489
 6927TIP3   OH242271   2.471   5.319   1.047 -0.3061  0.3186  0.1783
 6927TIP3    H142272   2.398   5.381   1.050 -0.8414 -0.2406 -0.6881
 6927TIP3    H242273   2.442   5.245   1.101 -1.1464 -0.6616 -1.5416
 6928TIP3   OH242274   1.732   0.703   6.385  0.3917  0.9167 -0.2824
 6928TIP3    H142275   1.689   0.661   6.310  0.3785 -0.1435  0.3000
 6928TIP3    H242276   1.796   0.639   6.414 -1.6188 -0.0398  2.4780
 6929TIP3   OH242277   1.066   5.156   1.262 -0.2742 -0.6069 -0.4531
 6929TIP3    H142278   1.049   5.070   1.224 -0.6682 -0.7583  0.0400
 6929TIP3    H242279   1.119   5.138   1.340 -0.9008 -0.4754  0.0161
 6930TIP3   OH242280   5.279   1.096   2.985  0.4089  0.2269  0.3646
 6930TIP3    H142281   5.233   1.177   3.004 -2.2090 -0.5696 -1.9470
 6930TIP3    H242282   5.370   1.123   2.971 -0.4990  2.9039 -1.0857
 6931TIP3   OH242283   0.146   4.399   0.745  0.9046  0.3669 -0.0317
 6931TIP3    H142284   0.111   4.310   0.748 -1.5005  1.2182  3.5581
 6931TIP3    H242285   0.239   4.387   0.728  1.1325 -3.0833  2.4800
 6932TIP3   OH242286   6.630   6.744  12.185  0.5327  0.1388 -1.1389
 6932TIP3    H142287   6.605   6.830  12.219  0.5276 -0.9073  1.8140
 6932TIP3    H242288   6.602   6.745  12.093 -3.1889  1.8681 -0.1644
 6933TIP3   OH242289   5.437   0.606  15.303 -0.2647 -0.2679  0.3634
 6933TIP3    H142290   5.371   0.543  15.334 -0.6032 -0.8320 -1.4055
 6933TIP3    H242291   5.514   0.587  15.356 -0.4656 -1.9607  0.1231
 6934TIP3   OH242292   0.895   2.310   0.636 -0.1695  0.1828  0.4027
 6934TIP3    H142293   0.935   2.271   0.558  0.6321  0.5228  0.6340
 6934TIP3    H242294   0.858   2.236   0.683 -2.5486  0.1790 -1.3303
 6935TIP3   OH242295   6.629   5.539   3.573 -0.4078 -0.2367  0.1423
 6935TIP3    H142296   6.631   5.627   3.536 -0.5759  1.0292  2.9053
 6935TIP3    H242297   6.581   5.486   3.509 -1.8716  2.0881 -0.7739
 6936TIP3   OH242298   5.255   2.379   0.688  0.5881 -0.3001 -0.7569
 6936TIP3    H142299   5.290   2.290   0.685 -0.6564 -0.8764  0.4788
 6936TIP3    H242300   5.165   2.370   0.657  0.3092  0.4490 -0.1803
 6937TIP3   OH242301   4.623   6.384   2.699  0.1465 -0.2021  0.1607
 6937TIP3    H142302   4.536   6.416   2.674  0.1481  1.1641  1.6782
 6937TIP3    H242303   4.630   6.299   2.657 -1.5134  0.0958 -0.8381
 6938TIP3   OH242304   4.221   5.258   0.241 -0.5602  0.6446  0.3299
 6938TIP3    H142305   4.157   5.187   0.251  0.7140 -0.6411 -0.1396
 6938TIP3    H242306   4.301   5.223   0.281  0.6099  1.0476 -1.5008
 6939TIP3   OH242307   4.476   1.793   2.923  0.7532  0.6862  0.1347
 6939TIP3    H142308   4.514   1.861   2.867  1.0516  0.0320 -0.4607
 6939TIP3    H242309   4.389   1.777   2.886 -0.1573  2.1333  1.4538
 6940TIP3   OH242310   3.500   5.546   5.847  0.4727 -0.4749 -0.0232
 6940TIP3    H142311   3.516   5.494   5.767  0.5870 -0.1375 -0.2215
 6940TIP3    H242312   3.419   5.595   5.827 -0.1201 -1.2245  0.4926
 6941TIP3   OH242313   0.439   3.738   3.233  0.5346  0.0280  0.1656
 6941TIP3    H142314   0.508   3.679   3.262  0.8634  0.1398 -0.3702
 6941TIP3    H242315   0.485   3.810   3.189  0.0610 -0.2188 -0.7627
 6942TIP3   OH242316   2.460   1.774   1.625  0.6288 -0.4652  0.4277
 6942TIP3    H142317   2.531   1.769   1.689 -0.3937  0.3520  1.6831
 6942TIP3    H242318   2.381   1.784   1.677 -0.1190  1.6833 -0.9521
 6943TIP3   OH242319   4.007   3.229   6.023  0.0155 -0.5606  0.1151
 6943TIP3    H142320   3.981   3.206   6.112  0.2126  0.2465  0.3919
 6943TIP3    H242321   4.084   3.285   6.035 -0.3980  0.1591 -0.5266
 6944TIP3   OH242322   4.286   1.715  14.920 -0.3150 -0.3177 -0.1239
 6944TIP3    H142323   4.361   1.738  14.866  0.3048 -0.2123  0.7724
 6944TIP3    H242324   4.308   1.746  15.008 -1.0190 -1.0783  0.3432
 6945TIP3   OH242325   4.669   0.251  11.997 -0.6309  0.3463  0.9486
 6945TIP3    H142326   4.620   0.299  12.064 -2.1102 -1.0650  0.9398
 6945TIP3    H242327   4.758   0.287  12.002 -1.9660  4.2933 -0.2784
 6946TIP3   OH242328   1.674   3.991   1.800  0.3222  0.3402 -0.1118
 6946TIP3    H142329   1.630   4.000   1.884  2.1782  0.9801  0.8401
 6946TIP3    H242330   1.680   4.080   1.766  1.5398  0.3711  0.1443
 6947TIP3   OH242331   4.071   5.810   5.630  0.0373  0.3581 -0.0743
 6947TIP3    H142332   4.057   5.901   5.604  1.2163  0.6234  0.1765
 6947TIP3    H242333   4.116   5.815   5.714 -1.4460 -0.4878  0.8192
 6948TIP3   OH242334   1.738   3.943  15.016  0.0328  0.9454  0.8947
 6948TIP3    H142335   1.669   3.878  15.022  0.1005  0.9065  1.2726
 6948TIP3    H242336   1.693   4.027  15.022 -0.0911  0.9449  0.0555
 6949TIP3   OH242337   3.159   6.268  11.913 -0.5712  0.3611 -0.6016
 6949TIP3    H142338   3.132   6.271  11.821  1.8786 -0.7255 -1.4474
 6949TIP3    H242339   3.128   6.183  11.944 -0.1465  0.1092 -0.8632
 6950TIP3   OH242340   0.211   0.452   6.600 -0.3410 -0.3258 -0.6337
 6950TIP3    H142341   0.260   0.534   6.600  1.0833 -1.1351  0.3034
 6950TIP3    H242342   0.136   0.469   6.657 -0.0527  0.3225 -0.4345
 6951TIP3   OH242343   0.696   1.148  14.127  0.5382  0.1919 -0.0754
 6951TIP3    H142344   0.676   1.224  14.182  2.9182  0.9986 -0.1891
 6951TIP3    H242345   0.654   1.074  14.171  2.1833  0.8224  2.7838
 6952TIP3   OH242346   3.825   6.518   0.723  0.5861 -0.8485  0.7899
 6952TIP3    H142347   3.761   6.586   0.702  0.6379 -0.7854  0.8367
 6952TIP3    H242348   3.823   6.459   0.648 -0.2196 -1.3714  1.2066
 6953TIP3   OH242349   6.384   3.612  13.201 -0.0984 -0.5888 -0.3975
 6953TIP3    H142350   6.453   3.653  13.253 -0.1151 -0.3998 -0.5245
 6953TIP3    H242351   6.361   3.678  13.136  0.9039 -1.3519 -1.5544
 6954TIP3   OH242352   4.509   4.641  16.287  0.3149 -0.1906 -0.5219
 6954TIP3    H142353   4.520   4.585  16.210 -0.3093  2.6879 -2.9044
 6954TIP3    H242354   4.591   4.690  16.293  0.5495 -0.7314  1.0091
 6955TIP3   OH242355   1.014   0.643   3.794  0.5290 -0.2223 -0.1841
 6955TIP3    H142356   1.015   0.736   3.818 -0.6324  0.0408 -1.0397
 6955TIP3    H242357   1.103   0.613   3.812  1.4435  1.4935 -1.4686
 6956TIP3   OH242358   0.747   1.300   4.411 -0.3227 -0.3749 -0.2346
 6956TIP3    H142359   0.810   1.312   4.482 -0.7632 -1.9039  0.4556
 6956TIP3    H242360   0.763   1.374   4.353  0.8821  0.2536  0.8306
 6957TIP3   OH242361   2.594   3.031  16.065  0.3803 -0.3650  0.4378
 6957TIP3    H142362   2.535   3.065  15.998  1.7810 -0.6881 -1.0247
 6957TIP3    H242363   2.560   2.944  16.085  1.3844 -1.3425 -1.8039
 6958TIP3   OH242364   5.881   0.995   4.229 -0.1335 -0.4923  0.4717
 6958TIP3    H142365   5.959   1.022   4.180 -1.4802  1.5222 -0.7113
 6958TIP3    H242366   5.902   0.908   4.262  1.5452 -1.2282 -2.2456
 6959TIP3   OH242367   4.940   1.072   2.026 -0.1267 -0.3796  0.1730
 6959TIP3    H142368   4.989   1.061   1.944  0.1514 -2.0784  0.5367
 6959TIP3    H242369   5.006   1.066   2.095 -0.2661  1.6682  0.5565
 6960TIP3   OH242370   5.810   5.161  15.361 -0.1611  0.3220  0.3642
 6960TIP3    H142371   5.803   5.254  15.340 -1.2211  0.4634  1.2280
 6960TIP3    H242372   5.732   5.122  15.323  0.7191 -0.3844 -0.7525
 6961TIP3   OH242373   3.207   5.281   0.360  0.1906 -0.1508  0.1713
 6961TIP3    H142374   3.161   5.320   0.286 -1.0236 -2.3862 -0.3332
 6961TIP3    H242375   3.212   5.352   0.424 -0.8244  1.1779 -1.1411
 6962TIP3   OH242376   1.507   5.557  14.657 -0.8225 -0.4652 -0.1555
 6962TIP3    H142377   1.525   5.629  14.718 -2.3985  0.7422 -1.0314
 6962TIP3    H242378   1.591   5.540  14.615 -0.6097  1.6299 -0.6856
 6963TIP3   OH242379   5.645   4.530   5.358  0.3929  0.0031 -0.0295
 6963TIP3    H142380   5.708   4.524   5.429 -1.0744  0.1005  1.3250
 6963TIP3    H242381   5.568   4.483   5.389 -0.2051 -0.1870 -1.6660
 6964TIP3   OH242382   0.623   4.711   6.072  0.1371 -0.2604 -0.1127
 6964TIP3    H142383   0.611   4.806   6.068 -0.9196 -0.2554  1.9571
 6964TIP3    H242384   0.572   4.684   6.147 -1.7557 -2.8556 -2.1707
 6965TIP3   OH242385   4.063   2.820   5.691  0.1221  0.5118 -0.0734
 6965TIP3    H142386   4.023   2.757   5.751 -0.2808  0.7959 -0.0385
 6965TIP3    H242387   4.054   2.780   5.604 -1.9846  1.4040 -0.3249
 6966TIP3   OH242388   0.925   3.299   5.195 -0.0704  0.0150  0.0603
 6966TIP3    H142389   0.923   3.385   5.154 -1.5024  0.4945  1.0341
 6966TIP3    H242390   0.972   3.243   5.133 -2.3309  0.6337 -2.4091
 6967TIP3   OH242391   0.897   4.034  12.008  0.8135 -0.5838 -0.0983
 6967TIP3    H142392   0.923   3.972  11.940 -1.9288  1.0976 -2.9354
 6967TIP3    H242393   0.943   4.115  11.984  1.9753 -0.6139  1.7894
 6968TIP3   OH242394   5.286   4.232   5.307 -0.3307  0.1268 -0.0168
 6968TIP3    H142395   5.269   4.224   5.213 -1.1776 -1.2116  0.2350
 6968TIP3    H242396   5.227   4.170   5.348  0.2262  0.4914  1.4042
 6969TIP3   OH242397   5.505   0.106  13.254 -0.1827  0.5113 -0.5796
 6969TIP3    H142398   5.440   0.167  13.288 -0.6867 -0.7756  0.9206
 6969TIP3    H242399   5.456   0.050  13.194 -0.6109 -0.6710  0.8030
 6970TIP3   OH242400   6.466   1.359   1.037 -0.2821  0.2774  0.3096
 6970TIP3    H142401   6.549   1.318   1.061 -1.2827 -1.7987  0.4259
 6970TIP3    H242402   6.427   1.301   0.972 -1.9429  0.8415  0.7251
 6971TIP3   OH242403   0.836   3.482   4.367 -0.0819 -0.6717  0.6674
 6971TIP3    H142404   0.803   3.478   4.457 -0.8420  0.1308  0.4349
 6971TIP3    H242405   0.804   3.402   4.326 -3.0721  0.7255  0.0329
 6972TIP3   OH242406   4.683   5.383   3.081  0.2631  0.2525  0.0641
 6972TIP3    H142407   4.697   5.401   2.988  0.0277 -0.2561 -0.0781
 6972TIP3    H242408   4.766   5.403   3.123 -0.4948  3.4697  0.2379
 6973TIP3   OH242409   3.004   4.105  16.281 -0.1075  0.2738 -0.7449
 6973TIP3    H142410   3.048   4.078  16.362  0.8147  2.8351 -0.3011
 6973TIP3    H242411   3.074   4.112  16.217 -0.3618  1.1030 -0.9465
 6974TIP3   OH242412   0.363   0.567  11.893  0.1168 -0.1799 -0.5198
 6974TIP3    H142413   0.427   0.553  11.963  1.2246  2.4680 -0.8920
 6974TIP3    H242414   0.294   0.619  11.935  0.8477  1.5322 -1.3463
 6975TIP3   OH242415   0.706   2.863   0.071 -0.4173  0.3243 -0.6287
 6975TIP3    H142416   0.662   2.926   0.127  0.9801  0.2013  0.6558
 6975TIP3    H242417   0.657   2.782   0.082 -0.0726  0.2647  0.5617
 6976TIP3   OH242418   6.429   2.457  11.348  0.3565  0.2361  0.0236
 6976TIP3    H142419   6.506   2.424  11.393 -0.4820 -1.0114  0.6160
 6976TIP3    H242420   6.368   2.384  11.349 -0.0063  0.4058 -2.4607
 6977TIP3   OH242421   6.024   5.555   5.783  0.1225 -0.2632 -0.0400
 6977TIP3    H142422   5.998   5.464   5.771  2.8781 -1.2914  0.9731
 6977TIP3    H242423   6.028   5.591   5.694 -0.4077 -1.2910 -0.4927
 6978TIP3   OH242424   3.050   6.262   1.327  0.8479 -0.1261 -0.2583
 6978TIP3    H142425   3.088   6.337   1.372 -3.0001  1.3607  0.8979
 6978TIP3    H242426   3.088   6.264   1.240  3.4733  0.9498  0.7924
 6979TIP3   OH242427   0.676   0.963  11.997 -0.4621  0.1587 -0.2114
 6979TIP3    H142428   0.633   1.047  11.983 -0.5636 -0.0560 -1.2353
 6979TIP3    H242429   0.616   0.898  11.961  0.1395 -0.2435 -0.5173
 6980TIP3   OH242430   2.068   4.272   3.525  0.3014 -0.7543 -0.0641
 6980TIP3    H142431   2.039   4.221   3.449  0.4874 -1.2183  0.1741
 6980TIP3    H242432   2.157   4.298   3.503 -0.1392  0.3296 -0.6207
 6981TIP3   OH242433   1.925   0.633  13.852 -0.0040  0.1016 -0.3305
 6981TIP3    H142434   1.885   0.553  13.885 -2.9978  1.7376  0.4386
 6981TIP3    H242435   1.920   0.626  13.757 -2.2232  0.1778 -0.2682
 6982TIP3   OH242436   0.197   5.282   5.285 -0.1191 -0.3441 -0.2942
 6982TIP3    H142437   0.236   5.198   5.308  1.7623  0.4261 -0.5308
 6982TIP3    H242438   0.143   5.264   5.208  0.1769 -1.3387 -0.2744
 6983TIP3   OH242439   6.773   2.044  10.987 -0.1754 -0.8479  0.3875
 6983TIP3    H142440   6.817   2.105  10.929  1.4659 -1.0900  1.2989
 6983TIP3    H242441   6.683   2.075  10.991  0.3825  0.9389  0.0665
 6984TIP3   OH242442   4.310   3.700   3.438 -0.2763 -0.3389  0.2066
 6984TIP3    H142443   4.323   3.734   3.526 -1.3115  1.0519 -0.1313
 6984TIP3    H242444   4.346   3.611   3.440  0.2913 -0.1023  1.8321
 6985TIP3   OH242445   4.542   1.461  14.675  0.5045  0.1239 -0.3081
 6985TIP3    H142446   4.522   1.392  14.611  0.5974  0.1987 -0.4175
 6985TIP3    H242447   4.636   1.475  14.665  0.6517 -0.3550  0.3291
 6986TIP3   OH242448   1.239   5.848   1.373  0.1572  0.6490 -0.6305
 6986TIP3    H142449   1.237   5.810   1.286 -0.5136  0.2453 -0.4478
 6986TIP3    H242450   1.152   5.886   1.384 -0.5406 -1.1771  0.6644
 6987TIP3   OH242451   3.368   4.512   2.322 -0.2048 -0.0804  0.1666
 6987TIP3    H142452   3.277   4.501   2.295 -0.7471  1.0520  1.4188
 6987TIP3    H242453   3.373   4.602   2.354  1.5107  0.0762 -0.4247
 6988TIP3   OH242454   5.738   1.175   4.383  0.0389  0.0278  0.3663
 6988TIP3    H142455   5.811   1.229   4.414  0.0381  1.4420 -1.9044
 6988TIP3    H242456   5.777   1.115   4.320 -0.7129  0.8215 -0.8985
 6989TIP3   OH242457   5.388   6.547   4.644 -0.2572  0.0687  0.3606
 6989TIP3    H142458   5.365   6.589   4.727  1.0870 -0.0541  0.8208
 6989TIP3    H242459   5.471   6.587   4.619  0.6317 -1.6618  0.3768
 6990TIP3   OH242460   6.355   5.804   4.007 -0.5120 -0.0752  0.0256
 6990TIP3    H142461   6.279   5.840   4.052 -0.5604  0.5677 -0.5599
 6990TIP3    H242462   6.384   5.874   3.948  0.5728 -0.2863  0.2846
 6991TIP3   OH242463   2.356   1.796  15.485  0.1596  0.0562  0.2345
 6991TIP3    H142464   2.411   1.808  15.407  0.1104  0.1899  0.2199
 6991TIP3    H242465   2.340   1.702  15.489  1.2948 -0.1263  0.8611
 6992TIP3   OH242466   5.089   3.493  11.838 -0.2263  0.2832  0.1056
 6992TIP3    H142467   5.079   3.429  11.908 -2.3378  1.1382  0.6770
 6992TIP3    H242468   5.183   3.508  11.831  0.3715 -3.0074 -0.2410
 6993TIP3   OH242469   4.439   3.639  12.152 -0.2250  0.3026 -0.1225
 6993TIP3    H142470   4.489   3.688  12.087  1.6998 -1.4715 -0.0710
 6993TIP3    H242471   4.354   3.684  12.155  0.9544  2.7969 -0.9767
 6994TIP3   OH242472   5.465   1.830   3.636 -0.2998 -0.5963  0.1053
 6994TIP3    H142473   5.391   1.785   3.677 -2.0802  2.6963  0.8879
 6994TIP3    H242474   5.438   1.843   3.545  0.3982 -1.4633 -0.2345
 6995TIP3   OH242475   0.895   3.479  12.458 -0.8689  0.1814 -0.0385
 6995TIP3    H142476   0.946   3.559  12.448 -1.2272  0.3442 -0.6032
 6995TIP3    H242477   0.806   3.509  12.477 -0.6926 -0.1039  1.2821
 6996TIP3   OH242478   4.038   6.757   3.018  0.2549 -0.1193  0.1764
 6996TIP3    H142479   4.101   6.825   3.042  0.4632  0.0770 -0.8995
 6996TIP3    H242480   4.079   6.676   3.048  1.0937 -0.0095 -0.6081
 6997TIP3   OH242481   3.605   2.515   2.705  0.1704  0.4588  0.3018
 6997TIP3    H142482   3.511   2.536   2.703  0.1120  0.1540 -0.2457
 6997TIP3    H242483   3.646   2.586   2.656 -0.1739 -1.3668 -2.8853
 6998TIP3   OH242484   2.041   1.485   5.581  0.0655 -0.0819 -0.2690
 6998TIP3    H142485   2.034   1.407   5.636 -0.9057  0.8292  0.9573
 6998TIP3    H242486   2.056   1.451   5.493 -2.5174 -1.7867 -0.1497
 6999TIP3   OH242487   5.931   5.594  14.271 -0.4758  0.2668  0.3156
 6999TIP3    H142488   5.969   5.559  14.189 -0.6075 -0.2177  0.4574
 6999TIP3    H242489   5.845   5.552  14.277 -0.5349  0.4331  0.6179
 7000TIP3   OH242490   1.077   2.096  15.769  0.1463  0.3440 -0.3912
 7000TIP3    H142491   0.987   2.121  15.787  0.0248  0.2731 -0.8870
 7000TIP3    H242492   1.129   2.148  15.830 -0.1594  1.2049 -0.8465
 7001TIP3   OH242493   3.698   1.915  11.443 -0.2191  0.0923 -0.4397
 7001TIP3    H142494   3.629   1.978  11.422 -0.4963  0.3928  1.2438
 7001TIP3    H242495   3.749   1.906  11.362 -1.0300  1.3925 -1.1088
 7002TIP3   OH242496   6.528   2.671   3.758 -0.8004 -0.7148  0.1642
 7002TIP3    H142497   6.573   2.612   3.817 -0.1136 -0.0221  0.3588
 7002TIP3    H242498   6.592   2.689   3.689  0.5216  2.7251  2.0261
 7003TIP3   OH242499   2.906   5.642  14.745  0.4101 -0.2084 -1.1912
 7003TIP3    H142500   2.847   5.568  14.756  0.8942 -0.4525 -0.1186
 7003TIP3    H242501   2.990   5.604  14.719  0.5786 -0.0141 -0.9425
 7004TIP3   OH242502   3.559   0.449   1.024 -0.1653 -0.1026  0.2922
 7004TIP3    H142503   3.469   0.480   1.015 -0.7916 -1.0536  2.5507
 7004TIP3    H242504   3.552   0.366   1.071  1.9411  0.5841  2.0135
 7005TIP3   OH242505   1.162   6.258   0.223  0.0501 -0.3885  0.0095
 7005TIP3    H142506   1.141   6.165   0.217 -2.0594 -0.1035  1.8092
 7005TIP3    H242507   1.235   6.262   0.286  0.4331 -0.8389 -0.4005
 7006TIP3   OH242508   0.184   4.124  13.096  0.6527  0.0518  0.4618
 7006TIP3    H142509   0.171   4.142  13.189  3.1689  1.0685  0.7070
 7006TIP3    H242510   0.194   4.028  13.091  2.2014  0.1094  1.5686
 7007TIP3   OH242511   4.676   2.640   3.041  0.4784  0.2058  0.4804
 7007TIP3    H142512   4.688   2.729   3.074 -1.5445  0.2335  1.2467
 7007TIP3    H242513   4.760   2.618   3.001  0.7186  2.8230 -0.6359
 7008TIP3   OH242514   5.108   0.836   5.635 -0.3913 -0.0818  0.0059
 7008TIP3    H142515   5.045   0.787   5.689  1.3570 -2.5419 -0.0356
 7008TIP3    H242516   5.105   0.792   5.550 -0.4818  1.4698 -0.8273
 7009TIP3   OH242517   0.181   1.509  14.071 -0.1635 -0.1635 -0.4879
 7009TIP3    H142518   0.205   1.474  13.986  2.9859  0.7717 -0.1182
 7009TIP3    H242519   0.172   1.603  14.057  0.7755  0.0535  0.2489
 7010TIP3   OH242520   6.509   4.697   2.033  0.6081  0.4140 -0.0769
 7010TIP3    H142521   6.420   4.690   2.066  0.1921  0.9398 -1.0370
 7010TIP3    H242522   6.529   4.611   1.997  1.1567 -0.2434  1.6814
 7011TIP3   OH242523   3.655   2.767   1.973  0.4501 -0.4724  0.4828
 7011TIP3    H142524   3.746   2.777   1.947 -0.1846  0.0027 -1.7937
 7011TIP3    H242525   3.643   2.673   1.983  0.9078 -0.6200 -0.3150
 7012TIP3   OH242526   0.986   3.705  12.757  0.2737  1.0036 -0.0426
 7012TIP3    H142527   0.900   3.666  12.772  1.2727 -0.7614  1.5298
 7012TIP3    H242528   0.978   3.794  12.791 -1.5120  1.6524 -1.9370
 7013TIP3   OH242529   0.766   5.607   1.631  0.1146  0.4201 -0.4625
 7013TIP3    H142530   0.691   5.614   1.690 -0.7715  1.4136 -1.6573
 7013TIP3    H242531   0.820   5.537   1.669 -2.2278 -1.5330 -0.4559
 7014TIP3   OH242532   3.938   3.623   2.490  0.4920  0.7783  0.3626
 7014TIP3    H142533   3.908   3.540   2.530 -0.5027  0.5234 -0.8433
 7014TIP3    H242534   3.899   3.691   2.546 -0.2894  0.4275  0.2711
 7015TIP3   OH242535   5.066   0.362   6.029  0.2954  0.5724 -0.0259
 7015TIP3    H142536   5.123   0.430   5.995  0.7536  0.7075  0.9617
 7015TIP3    H242537   4.977   0.395   6.015  0.5115  1.3689  0.4223
 7016TIP3   OH242538   5.511   4.234  16.357  0.7429  0.0607  0.2947
 7016TIP3    H142539   5.452   4.252  16.431 -0.0746 -0.2195 -0.2664
 7016TIP3    H242540   5.496   4.142  16.337  0.3801  0.3169 -0.6944
 7017TIP3   OH242541   0.940   1.640  13.753  0.1859  0.1566  0.0461
 7017TIP3    H142542   0.995   1.637  13.832  0.1041 -0.5057  0.0870
 7017TIP3    H242543   0.874   1.706  13.772  0.2484  0.0958  0.4813
 7018TIP3   OH242544   2.249   2.244   4.684 -0.2049  0.0709  0.0893
 7018TIP3    H142545   2.241   2.267   4.592 -0.3983 -1.8764 -0.4251
 7018TIP3    H242546   2.181   2.178   4.699  1.3705 -1.4448  0.9826
 7019TIP3   OH242547   3.578   1.946   5.210 -0.0533  0.3508 -0.2288
 7019TIP3    H142548   3.604   2.019   5.267 -0.2174 -0.5630  1.0804
 7019TIP3    H242549   3.484   1.938   5.224 -0.8688  2.3780 -3.4370
 7020TIP3   OH242550   1.110   0.646   4.408  0.2923  0.4934 -0.3099
 7020TIP3    H142551   1.092   0.662   4.315  0.0739 -0.1941 -0.3923
 7020TIP3    H242552   1.181   0.706   4.430  0.0605  0.9595 -0.8134
 7021TIP3   OH242553   0.745   1.458   3.968  0.2084  0.3735 -0.3617
 7021TIP3    H142554   0.731   1.496   3.881 -0.1947  2.1237  0.4243
 7021TIP3    H242555   0.837   1.474   3.987  0.3780 -0.2989 -0.5707
 7022TIP3   OH242556   6.738   1.509  16.092  0.3907 -0.3496 -0.2703
 7022TIP3    H142557   6.773   1.519  16.003 -0.0685 -1.3338 -0.5740
 7022TIP3    H242558   6.806   1.462  16.140  0.9221  0.7714  0.0924
 7023TIP3   OH242559   1.776   4.208   3.527 -0.0048 -0.4692  0.4032
 7023TIP3    H142560   1.778   4.138   3.463 -0.3367 -0.6294  0.5662
 7023TIP3    H242561   1.736   4.282   3.481 -2.3982 -1.2519  1.0602
 7024TIP3   OH242562   4.322   3.815   0.515 -0.4659  0.0926  0.3154
 7024TIP3    H142563   4.246   3.764   0.489  0.5191 -0.4753 -1.6480
 7024TIP3    H242564   4.348   3.863   0.436  1.2830  0.1707  0.8867
 7025TIP3   OH242565   4.860   1.513   4.281 -0.3900  0.2770  0.4260
 7025TIP3    H142566   4.908   1.449   4.334  0.5259  0.1941 -0.4666
 7025TIP3    H242567   4.876   1.596   4.325 -0.6489  0.0577  0.9527
 7026TIP3   OH242568   0.897   4.825   1.142  0.0241  0.3941 -0.4592
 7026TIP3    H142569   0.814   4.807   1.186  0.0339  0.2370 -0.5030
 7026TIP3    H242570   0.909   4.751   1.083  0.6159 -0.0253  0.1721
 7027TIP3   OH242571   5.319   2.847   4.083 -0.3714 -0.2431  0.0101
 7027TIP3    H142572   5.271   2.769   4.057 -0.9078 -0.0108  0.2754
 7027TIP3    H242573   5.375   2.819   4.156 -2.5350  0.1544  1.9571
 7028TIP3   OH242574   3.747   4.328  15.442  0.1605  0.1819 -0.2349
 7028TIP3    H142575   3.832   4.366  15.420 -1.1552  2.4857 -1.7886
 7028TIP3    H242576   3.751   4.311  15.536  2.5482 -0.4831 -0.4039
 7029TIP3   OH242577   2.331   2.735   5.685 -0.6340  0.2013  0.1353
 7029TIP3    H142578   2.381   2.724   5.766  1.2882 -0.4792 -1.0781
 7029TIP3    H242579   2.373   2.809   5.641  1.6817 -2.4028 -2.4585
 7030TIP3   OH242580   5.027   0.756  16.012 -0.0622  0.3887 -0.2823
 7030TIP3    H142581   5.030   0.810  15.933 -0.3966 -0.7919 -1.1216
 7030TIP3    H242582   5.119   0.743  16.035  0.1819 -1.5361 -2.0969
 7031TIP3   OH242583   2.270   0.076   1.893 -0.8661 -0.3861 -0.4547
 7031TIP3    H142584   2.212   0.148   1.868 -0.5869 -0.8470 -2.6262
 7031TIP3    H242585   2.357   0.107   1.869 -0.6020 -0.9608 -0.2432
 7032TIP3   OH242586   4.601   3.797   3.024  0.1703  0.4894 -0.0281
 7032TIP3    H142587   4.584   3.851   2.947  0.2400  1.3345  0.5414
 7032TIP3    H242588   4.516   3.788   3.067  0.3316  0.9853  0.4095
 7033TIP3   OH242589   2.444   0.839   2.318  0.2946  0.1222  0.0751
 7033TIP3    H142590   2.496   0.875   2.246  0.8340 -0.6443  0.0751
 7033TIP3    H242591   2.403   0.916   2.358 -0.0852  0.5417 -1.0960
 7034TIP3   OH242592   6.348   0.919   0.513 -0.2307  0.0971 -0.0895
 7034TIP3    H142593   6.315   0.954   0.431  0.1997  0.0778 -0.2741
 7034TIP3    H242594   6.434   0.961   0.524 -0.5720  0.6181  0.6832
 7035TIP3   OH242595   5.817   3.539  14.251 -0.2244  0.3216 -0.4824
 7035TIP3    H142596   5.804   3.543  14.156 -1.3798 -2.4263 -0.5318
 7035TIP3    H242597   5.739   3.580  14.287  1.0263  3.0255 -0.6169
 7036TIP3   OH242598   6.425   5.398  14.997  0.2751  0.5885 -0.0459
 7036TIP3    H142599   6.332   5.421  15.002 -0.4637 -1.9702 -0.5232
 7036TIP3    H242600   6.443   5.352  15.079  1.4120  1.8501  0.4517
 7037TIP3   OH242601   5.617   3.052  17.217  0.2684  0.1825  0.0179
 7037TIP3    H142602   5.674   3.112  17.266  0.5346 -0.9944  1.1971
 7037TIP3    H242603   5.675   3.011  17.153  0.2057  0.7343 -0.4058
 7038TIP3   OH242604   5.355   2.303  14.222 -0.0272 -0.3547  0.2579
 7038TIP3    H142605   5.425   2.366  14.236 -1.6035  1.6130 -0.0983
 7038TIP3    H242606   5.341   2.304  14.127 -0.6038 -0.6069  0.3335
 7039TIP3   OH242607   5.693   5.096  13.116 -0.8280 -0.0394 -0.0198
 7039TIP3    H142608   5.681   5.039  13.040 -2.6307  1.6028 -1.0648
 7039TIP3    H242609   5.685   5.185  13.081  1.1813  0.8779  1.6503
 7040TIP3   OH242610   4.172   1.701   6.475 -0.5696 -0.5624 -0.7840
 7040TIP3    H142611   4.267   1.698   6.467 -0.6345 -0.1985 -1.7820
 7040TIP3    H242612   4.148   1.613   6.505  0.0060 -0.9215 -1.3509
 7041TIP3   OH242613   3.134   3.759   2.960 -0.4781  0.3400  0.3202
 7041TIP3    H142614   3.049   3.787   2.993 -0.5872 -0.2002  0.5213
 7041TIP3    H242615   3.176   3.716   3.035 -0.5120 -0.4318 -0.0881
 7042TIP3   OH242616   5.777   4.981  10.664 -0.4047  0.3410 -0.8654
 7042TIP3    H142617   5.698   5.033  10.649 -0.9490  0.3014  1.3905
 7042TIP3    H242618   5.850   5.042  10.652 -1.0028  1.5486  1.1853
 7043TIP3   OH242619   2.445   4.117   5.184  0.4814  0.2677  0.0913
 7043TIP3    H142620   2.353   4.112   5.157  0.2249 -0.5810  1.0657
 7043TIP3    H242621   2.453   4.051   5.253  1.8966  0.1316 -0.1787
 7044TIP3   OH242622   2.641   6.756   1.670 -0.7666 -0.4565  0.8921
 7044TIP3    H142623   2.704   6.807   1.620  0.5028 -0.1387  2.7331
 7044TIP3    H242624   2.634   6.673   1.622 -0.5813  0.2919 -0.4835
 7045TIP3   OH242625   2.345   1.058   2.079 -0.2735  0.9667 -0.6911
 7045TIP3    H142626   2.412   1.126   2.069 -0.7144  1.4148 -0.6881
 7045TIP3    H242627   2.386   0.978   2.048  0.7110  0.9636  0.5292
 7046TIP3   OH242628   5.776   4.468   0.587 -0.4109 -0.0076 -0.0178
 7046TIP3    H142629   5.798   4.474   0.680  2.5234 -0.6876 -0.5480
 7046TIP3    H242630   5.757   4.558   0.561 -1.2969  0.1879  1.2216
 7047TIP3   OH242631   0.714   2.177  13.560 -0.4034 -0.0823  0.2358
 7047TIP3    H142632   0.789   2.156  13.504 -0.9497 -0.0678 -0.5138
 7047TIP3    H242633   0.676   2.256  13.521 -1.3552 -0.6115  0.0705
 7048TIP3   OH242634   1.782   2.038   6.282  0.1411 -0.0597  0.8204
 7048TIP3    H142635   1.863   1.996   6.252 -1.1904 -1.9254 -0.3931
 7048TIP3    H242636   1.763   1.997   6.366 -0.3650 -0.8282  0.3434
 7049TIP3   OH242637   4.107   1.079  16.929 -0.4451 -0.4380 -0.0635
 7049TIP3    H142638   4.189   1.033  16.941 -0.4176 -0.2265  0.6040
 7049TIP3    H242639   4.089   1.074  16.835 -0.7492 -2.3001  0.0698
 7050TIP3   OH242640   1.891   3.108   1.906  0.2083 -0.0012  0.3579
 7050TIP3    H142641   1.810   3.090   1.954 -0.6028  1.1084 -0.5369
 7050TIP3    H242642   1.881   3.199   1.878  0.9354 -0.4343 -1.3633
 7051TIP3   OH242643   2.030   0.522  13.340 -0.1336 -0.0648 -0.1333
 7051TIP3    H142644   2.040   0.431  13.368  0.5848  0.2323  0.5935
 7051TIP3    H242645   1.999   0.516  13.250 -0.1418 -1.0292 -0.0713
 7052TIP3   OH242646   2.110   3.215  11.915 -0.1343 -0.6658 -0.0536
 7052TIP3    H142647   2.130   3.235  11.824  1.4796 -2.6989 -0.2010
 7052TIP3    H242648   2.160   3.279  11.965 -0.4950  0.0273 -0.5524
 7053TIP3   OH242649   2.756   3.880   0.832  0.0190  0.5959 -0.3282
 7053TIP3    H142650   2.715   3.937   0.897 -0.7294 -0.4999  0.1806
 7053TIP3    H242651   2.683   3.845   0.781  0.3030 -1.0762  0.3421
 7054TIP3   OH242652   4.200   2.910  17.202  0.0311  0.6061  0.4156
 7054TIP3    H142653   4.222   2.819  17.225 -1.0986  0.8540  2.7874
 7054TIP3    H242654   4.106   2.908  17.183  0.1365  1.1763 -0.2017
 7055TIP3   OH242655   5.723   4.541  14.160  0.3050 -0.0171  0.1939
 7055TIP3    H142656   5.706   4.620  14.108 -2.1743 -0.5824  0.0094
 7055TIP3    H242657   5.774   4.485  14.101  0.5872  0.7544 -0.3179
 7056TIP3   OH242658   1.111   2.137  15.500 -0.0736  0.3848 -0.1050
 7056TIP3    H142659   1.043   2.204  15.493  0.2114  0.5719 -1.3043
 7056TIP3    H242660   1.107   2.108  15.591 -0.8465  1.3489  0.1830
 7057TIP3   OH242661   1.017   5.740  11.446  0.1404 -0.2200  0.3060
 7057TIP3    H142662   1.072   5.684  11.502  2.3844  1.4512 -0.0418
 7057TIP3    H242663   0.978   5.803  11.507  1.7429  0.9378  0.2272
 7058TIP3   OH242664   1.597   1.346  15.201  0.2889 -0.0715  0.2939
 7058TIP3    H142665   1.627   1.303  15.280  0.2637 -0.3341  0.1612
 7058TIP3    H242666   1.667   1.408  15.179 -0.1464  0.7084  1.0679
 7059TIP3   OH242667   3.234   6.735  14.250  0.0298  0.6808  0.1441
 7059TIP3    H142668   3.160   6.688  14.290  1.5613 -0.5327  1.6899
 7059TIP3    H242669   3.308   6.715  14.306  1.6269  1.6710 -1.5113
 7060TIP3   OH242670   4.906   4.792  14.919  0.0105 -0.5660 -0.1506
 7060TIP3    H142671   4.844   4.750  14.978 -1.8270  0.0699 -1.5512
 7060TIP3    H242672   4.881   4.763  14.831  0.2656  1.4398 -0.9460
 7061TIP3   OH242673   5.873   4.785  14.846  0.0371  0.5926 -0.2265
 7061TIP3    H142674   5.781   4.808  14.860 -0.3773  0.0175 -1.7579
 7061TIP3    H242675   5.876   4.754  14.755  2.0632  2.2837 -0.8246
 7062TIP3   OH242676   6.774   3.640   0.760  0.3428 -0.2372  0.1232
 7062TIP3    H142677   6.731   3.639   0.845  0.7902 -1.0356  0.3504
 7062TIP3    H242678   6.701   3.645   0.697  0.0579  1.2830  0.5539
 7063TIP3   OH242679   3.099   4.906  13.948  0.5945  0.3353  0.5410
 7063TIP3    H142680   3.028   4.969  13.940 -2.2309 -2.7179 -1.0160
 7063TIP3    H242681   3.111   4.896  14.043 -0.1562  1.8013  0.8218
 7064TIP3   OH242682   6.046   1.848  12.479 -0.5349  0.1211 -0.3367
 7064TIP3    H142683   6.036   1.762  12.440  0.4600 -0.5392  0.7855
 7064TIP3    H242684   5.958   1.884  12.483 -0.8704 -0.5450 -1.4532
 7065TIP3   OH242685   0.455   4.611  12.318 -0.4411 -0.9568  0.5853
 7065TIP3    H142686   0.394   4.684  12.318  1.0161  0.3325 -0.4988
 7065TIP3    H242687   0.429   4.558  12.242 -0.2340 -0.4323  0.1454
 7066TIP3   OH242688   6.678   5.261   1.285  0.3419 -0.1261 -0.2240
 7066TIP3    H142689   6.589   5.228   1.296 -0.4618  1.5303 -1.1921
 7066TIP3    H242690   6.686   5.275   1.191  0.9978  1.3178  0.0183
 7067TIP3   OH242691   6.246   0.563   1.349  0.4714 -0.0623  0.0683
 7067TIP3    H142692   6.194   0.596   1.275 -0.1912  0.8374  0.9160
 7067TIP3    H242693   6.326   0.616   1.348  0.5379 -0.1621 -0.0881
 7068TIP3   OH242694   2.614   0.378   4.372 -0.6324 -0.5837 -0.1610
 7068TIP3    H142695   2.690   0.374   4.430 -0.0545 -0.0914 -0.8705
 7068TIP3    H242696   2.572   0.461   4.394  0.8311  0.7033 -1.9279
 7069TIP3   OH242697   5.074   3.795  12.068  0.2240  0.0590 -0.1844
 7069TIP3    H142698   5.152   3.772  12.018 -0.9393  0.2836 -2.2200
 7069TIP3    H242699   5.002   3.784  12.007 -1.3186  0.3133  1.4844
 7070TIP3   OH242700   0.078   1.864   2.048 -0.2603  0.1919 -0.2500
 7070TIP3    H142701  -0.004   1.846   2.094  1.0613 -1.4377  1.6314
 7070TIP3    H242702   0.085   1.795   1.982  0.7517 -1.2816  1.3126
 7071TIP3   OH242703   6.615   1.524  15.406 -0.4190 -0.1012  0.0650
 7071TIP3    H142704   6.534   1.473  15.399 -0.2932 -0.2925  0.0096
 7071TIP3    H242705   6.621   1.546  15.499 -0.1243 -0.7545  0.2005
 7072TIP3   OH242706   2.044   5.200  14.944 -0.2208  0.3973 -0.3193
 7072TIP3    H142707   2.019   5.200  14.851 -1.5854  0.0201  0.0261
 7072TIP3    H242708   2.001   5.277  14.980  1.7565  1.5706 -0.3279
 7073TIP3   OH242709   4.594   6.764  15.324  0.6378  0.0100 -0.1966
 7073TIP3    H142710   4.508   6.772  15.364  1.0197  1.0286  0.4322
 7073TIP3    H242711   4.627   6.679  15.355 -0.1161 -0.3819 -0.4356
 7074TIP3   OH242712   4.486   4.470  11.436 -0.0901  0.0671 -0.1549
 7074TIP3    H142713   4.419   4.402  11.435  1.1172 -1.1871  0.3444
 7074TIP3    H242714   4.538   4.454  11.358 -0.2479  0.9055 -0.4360
 7075TIP3   OH242715   1.955   0.894   3.097 -0.2858 -0.2578  0.0965
 7075TIP3    H142716   1.908   0.929   3.021 -1.0545  0.9920  1.1094
 7075TIP3    H242717   1.885   0.863   3.155  0.3315 -2.4068 -0.2275
 7076TIP3   OH242718   0.515   2.258  10.499  0.1284  0.5325  0.2101
 7076TIP3    H142719   0.607   2.244  10.476  0.0951 -0.5352  0.6426
 7076TIP3    H242720   0.482   2.170  10.521 -1.3183  0.7155 -1.0776
 7077TIP3   OH242721   3.933   6.523  14.567 -0.4150  0.5642  0.0656
 7077TIP3    H142722   3.979   6.574  14.634 -3.0071  2.2251  0.7478
 7077TIP3    H242723   3.986   6.534  14.488  0.9989  1.2977  1.0642
 7078TIP3   OH242724   5.676   3.298   4.121 -0.1880 -0.4316 -0.3419
 7078TIP3    H142725   5.622   3.279   4.045  0.1927 -1.0833 -0.4518
 7078TIP3    H242726   5.765   3.308   4.086  0.3210 -2.5237  0.1987
 7079TIP3   OH242727   6.617   5.305  15.923 -0.0096 -0.3564 -0.1295
 7079TIP3    H142728   6.589   5.214  15.937 -0.1127 -0.1476  1.1577
 7079TIP3    H242729   6.672   5.302  15.845  1.1950 -1.7789  0.7239
 7080TIP3   OH242730   6.594   6.314   0.392 -0.3152 -0.2289  0.4495
 7080TIP3    H142731   6.681   6.300   0.354 -0.2214 -0.5034  0.7617
 7080TIP3    H242732   6.536   6.257   0.341 -0.2229 -0.4468  0.5872
 7081TIP3   OH242733   3.347   4.651   0.382 -0.0154  0.7216 -0.2658
 7081TIP3    H142734   3.276   4.708   0.412  0.6182  1.9223 -1.0001
 7081TIP3    H242735   3.346   4.578   0.443 -0.5298  1.7542  0.9984
 7082TIP3   OH242736   2.913   5.710  12.814 -0.1165 -0.4947  0.0363
 7082TIP3    H142737   3.002   5.677  12.805 -0.0215 -0.3224  0.3500
 7082TIP3    H242738   2.858   5.631  12.807 -0.2354 -0.2690 -4.0681
 7083TIP3   OH242739   3.752   4.220  16.837  0.2808  0.4153 -0.2624
 7083TIP3    H142740   3.799   4.273  16.901  0.9408 -0.6000  0.1152
 7083TIP3    H242741   3.661   4.250  16.842 -0.0612 -0.8201  2.4310
 7084TIP3   OH242742   5.528   0.417  15.528  0.0527 -0.2827  0.2543
 7084TIP3    H142743   5.530   0.348  15.594  0.2236  0.8011  1.4237
 7084TIP3    H242744   5.439   0.415  15.493 -0.2811 -0.3580  1.0913
 7085TIP3   OH242745   3.104   3.010   3.035  0.2870  0.0530 -0.0955
 7085TIP3    H142746   3.127   3.044   2.949  0.6292  1.2532  0.4531
 7085TIP3    H242747   3.017   2.972   3.024  0.4281 -0.0160 -1.0198
 7086TIP3   OH242748   1.191   5.833   4.926  0.1488 -0.1012 -0.3292
 7086TIP3    H142749   1.214   5.874   5.009 -1.4638  1.5962 -0.6571
 7086TIP3    H242750   1.177   5.741   4.948  0.4272  0.1868  1.1477
 7087TIP3   OH242751   1.867   3.385  16.491  0.0950 -0.4303  0.0145
 7087TIP3    H142752   1.778   3.399  16.458  0.4210 -0.4892 -0.9513
 7087TIP3    H242753   1.900   3.473  16.507  1.4690  0.0844 -4.2024
 7088TIP3   OH242754   1.423   3.103  14.450  0.6582  0.1029 -0.1555
 7088TIP3    H142755   1.495   3.154  14.413  1.6144 -1.9439 -1.2566
 7088TIP3    H242756   1.460   3.061  14.528 -0.1685  1.1104  0.8297
 7089TIP3   OH242757   1.987   2.532  17.034 -0.5531 -0.4188  0.0799
 7089TIP3    H142758   1.927   2.514  17.106  0.8523  2.1173  2.0648
 7089TIP3    H242759   1.931   2.534  16.956 -3.3465  2.6745  1.9061
 7090TIP3   OH242760   6.811   4.220  12.121 -0.0702 -0.2202 -0.4893
 7090TIP3    H142761   6.831   4.313  12.125 -1.8558  0.2097 -0.5828
 7090TIP3    H242762   6.733   4.210  12.177  0.6336 -1.8171  0.2681
 7091TIP3   OH242763   2.410   5.859   5.984  0.2510 -0.4134  0.2119
 7091TIP3    H142764   2.422   5.764   5.977 -0.9979 -0.6213  0.6311
 7091TIP3    H242765   2.407   5.890   5.893  1.7949 -0.5978  0.0748
 7092TIP3   OH242766   1.392   5.165   5.188 -0.2138  0.1978 -0.2949
 7092TIP3    H142767   1.370   5.073   5.198  0.3811  0.2769  2.7099
 7092TIP3    H242768   1.457   5.167   5.118  0.9492 -1.9014  0.6361
 7093TIP3   OH242769   1.019   4.922   1.576  0.2264  0.2122  0.0306
 7093TIP3    H142770   0.996   4.873   1.654  1.8785 -1.4057 -0.4404
 7093TIP3    H242771   0.960   4.998   1.577 -0.3605 -0.2075  2.3560
 7094TIP3   OH242772   2.360   6.656   0.910  0.0027  0.6401 -0.4982
 7094TIP3    H142773   2.407   6.679   0.990 -1.0614 -1.5658  0.8774
 7094TIP3    H242774   2.271   6.687   0.925 -0.4500 -0.6636 -0.3323
 7095TIP3   OH242775   3.711   4.906  14.735  0.1037 -0.6316 -0.8089
 7095TIP3    H142776   3.800   4.921  14.703  0.0196  0.0204 -0.7609
 7095TIP3    H242777   3.664   4.870  14.659 -0.3421  1.7952 -1.7831
 7096TIP3   OH242778   6.499   3.303   3.512  0.3830 -0.1483  0.2816
 7096TIP3    H142779   6.441   3.234   3.545 -0.2231  0.6714  1.0103
 7096TIP3    H242780   6.587   3.265   3.516 -0.1037 -1.4678 -0.9782
 7097TIP3   OH242781   0.016   4.162   3.209 -0.3860 -0.0257  0.1605
 7097TIP3    H142782   0.075   4.114   3.267 -0.1184 -0.0369 -0.1158
 7097TIP3    H242783  -0.002   4.101   3.137 -0.5385  0.0663  0.1207
 7098TIP3   OH242784   1.040   3.832   2.189  0.3794 -0.1805  0.2925
 7098TIP3    H142785   1.079   3.867   2.109  1.3817 -2.4318 -0.2995
 7098TIP3    H242786   0.951   3.807   2.163 -0.0581  1.1120  0.5051
 7099TIP3   OH242787   3.133   1.966  11.707  0.3263 -0.7002 -0.0832
 7099TIP3    H142788   3.052   1.929  11.742 -0.2750  0.6794  0.0601
 7099TIP3    H242789   3.156   1.908  11.635 -1.5789 -0.3409 -1.0517
 7100TIP3   OH242790   4.032   5.127  10.977  0.6532  0.3910  0.1994
 7100TIP3    H142791   4.111   5.098  10.930  0.3890  3.2691 -2.2891
 7100TIP3    H242792   4.063   5.194  11.038  0.2138  1.4190 -0.6741
 7101TIP3   OH242793   4.139   6.289  11.972 -0.5683 -0.4144  0.3809
 7101TIP3    H142794   4.183   6.278  12.056 -0.8238  1.5449  0.8221
 7101TIP3    H242795   4.061   6.234  11.979 -1.1272  0.5026  1.8662
 7102TIP3   OH242796   3.120   0.824  14.391 -0.1117 -0.4923  0.2084
 7102TIP3    H142797   3.073   0.741  14.380  0.2827 -1.0646  2.3189
 7102TIP3    H242798   3.069   0.871  14.457  0.5858  0.2252  0.2404
 7103TIP3   OH242799   5.553   1.287  12.502 -0.1485 -0.0241 -0.0588
 7103TIP3    H142800   5.480   1.225  12.496 -0.4029  0.3714 -1.6857
 7103TIP3    H242801   5.620   1.241  12.551 -1.2219 -0.6596  0.8792
 7104TIP3   OH242802   3.031   0.795  13.921  0.0465 -0.3733 -0.2470
 7104TIP3    H142803   3.046   0.846  14.001  0.4242  1.0202 -1.1521
 7104TIP3    H242804   3.117   0.759  13.899  0.3396  0.6907 -0.9339
 7105TIP3   OH242805   6.691   4.437   3.665 -0.4358 -0.2583  0.2284
 7105TIP3    H142806   6.751   4.417   3.594  0.3826  1.4542  0.3860
 7105TIP3    H242807   6.631   4.502   3.629 -0.5145  0.0319  0.8647
 7106TIP3   OH242808   6.467   0.878   4.258  0.4161  0.5400  0.2435
 7106TIP3    H142809   6.383   0.924   4.250 -0.3397 -0.9046 -0.6408
 7106TIP3    H242810   6.475   0.859   4.352 -0.0148  1.0944  0.3989
 7107TIP3   OH242811   0.911   6.311  15.611  0.2671 -0.7643  0.2912
 7107TIP3    H142812   0.920   6.228  15.564  0.7765 -0.4411 -0.1979
 7107TIP3    H242813   0.825   6.307  15.652  0.7191 -1.9902  1.1693
 7108TIP3   OH242814   3.135   5.362   3.950 -0.4030  0.3905  0.0227
 7108TIP3    H142815   3.191   5.362   3.873  0.1811 -0.9347  0.4198
 7108TIP3    H242816   3.187   5.320   4.019 -1.1174  1.0266  0.9887
 7109TIP3   OH242817   3.826   0.663   1.697  0.0711 -0.0553 -0.0315
 7109TIP3    H142818   3.776   0.585   1.720  2.1710 -1.1119  1.2872
 7109TIP3    H242819   3.822   0.718   1.776  1.0344 -0.2004  0.1285
 7110TIP3   OH242820   3.605   1.585  12.493 -0.2046  0.0272 -0.5390
 7110TIP3    H142821   3.676   1.522  12.478 -0.5150 -0.3212 -0.5472
 7110TIP3    H242822   3.639   1.668  12.459  1.1212  0.4135  1.5059
 7111TIP3   OH242823   3.097   6.793  15.080 -0.3486  0.2747 -0.5394
 7111TIP3    H142824   3.024   6.844  15.045 -1.6485 -1.3053 -0.2435
 7111TIP3    H242825   3.121   6.837  15.162  0.0951  1.6974 -1.3985
 7112TIP3   OH242826   0.912   3.299  13.214  0.6372  0.2616  0.2476
 7112TIP3    H142827   0.825   3.261  13.204  0.5444  0.6980 -0.6097
 7112TIP3    H242828   0.953   3.289  13.129  0.7372  1.7631  0.0861
 7113TIP3   OH242829   5.999   5.939   5.779  0.3617 -0.3493 -0.1997
 7113TIP3    H142830   5.998   6.031   5.753  0.5737 -0.7513 -1.6785
 7113TIP3    H242831   6.010   5.942   5.874  0.1529  1.1513 -0.1927
 7114TIP3   OH242832   6.064   2.397   3.551  0.4354 -0.0608  0.1291
 7114TIP3    H142833   6.129   2.335   3.584  0.6969  0.8295  1.3375
 7114TIP3    H242834   6.021   2.350   3.479 -0.9187 -2.5599  2.3739
 7115TIP3   OH242835   3.591   0.446   3.909  0.0038  0.1975 -0.0756
 7115TIP3    H142836   3.580   0.461   4.003 -0.9281  1.0124 -0.2944
 7115TIP3    H242837   3.531   0.374   3.889 -0.0596  0.2566 -0.1012
 7116TIP3   OH242838   1.025   4.916  14.646  0.7195 -0.4632  0.2594
 7116TIP3    H142839   1.094   4.888  14.706  0.2330 -1.4214  0.3846
 7116TIP3    H242840   1.035   4.859  14.569  3.3103  2.6750 -2.0550
 7117TIP3   OH242841   1.390   2.967  14.072 -0.4249 -0.0597 -0.0807
 7117TIP3    H142842   1.405   2.876  14.046 -1.5807  0.2666 -2.0363
 7117TIP3    H242843   1.367   3.013  13.991 -0.7334  1.8017  0.9908
 7118TIP3   OH242844   0.603   1.637   3.033  0.3692  0.4009 -0.1967
 7118TIP3    H142845   0.569   1.649   2.944  1.1998 -0.8186 -0.7049
 7118TIP3    H242846   0.580   1.547   3.055 -1.5091  1.2402  1.6061
 7119TIP3   OH242847   3.323   2.768   0.363 -0.3335  0.0635  0.0631
 7119TIP3    H142848   3.236   2.732   0.380 -1.1540  1.6671 -0.5304
 7119TIP3    H242849   3.366   2.770   0.448 -1.1369 -0.1072  0.4761
 7120TIP3   OH242850   0.022   2.380   5.224 -0.2479  0.3195  0.2441
 7120TIP3    H142851   0.067   2.346   5.146  0.1269  2.6779 -0.6467
 7120TIP3    H242852   0.029   2.475   5.216 -1.1373  0.6506  2.6467
 7121TIP3   OH242853   5.913   2.509  17.130  0.1496 -0.1059  0.3331
 7121TIP3    H142854   5.870   2.559  17.199 -0.3804  0.1099 -0.1389
 7121TIP3    H242855   5.989   2.470  17.172 -0.8944 -1.0987  1.3995
 7122TIP3   OH242856   6.656   6.570  14.161  0.2796 -0.2820  0.5960
 7122TIP3    H142857   6.718   6.642  14.145  0.8137 -1.0140 -0.8384
 7122TIP3    H242858   6.576   6.614  14.191  0.5160  0.9495 -0.4687
 7123TIP3   OH242859   5.543   2.713   4.737 -0.5166  0.5120 -0.3032
 7123TIP3    H142860   5.477   2.703   4.668 -0.8785  0.4618  0.0434
 7123TIP3    H242861   5.580   2.800   4.723 -1.8006  1.2205  0.4654
 7124TIP3   OH242862   4.784   5.038  12.785  0.2848  0.2840 -0.4050
 7124TIP3    H142863   4.836   5.007  12.710 -0.1568 -1.9231  0.1162
 7124TIP3    H242864   4.705   4.984  12.782  0.2776  0.1209  1.6881
 7125TIP3   OH242865   6.435   5.990   2.984  0.6396 -0.7201 -0.3202
 7125TIP3    H142866   6.443   5.935   2.907 -2.5082  0.4850 -1.6595
 7125TIP3    H242867   6.496   6.062   2.969  2.1370 -1.8878 -0.2198
 7126TIP3   OH242868   4.519   4.283   5.917  0.2184 -0.3613  0.1377
 7126TIP3    H142869   4.536   4.230   5.995  0.7496 -1.5555 -0.7534
 7126TIP3    H242870   4.501   4.371   5.950  0.2657 -0.8908  1.6045
 7127TIP3   OH242871   0.820   1.056   3.094 -0.3764 -0.5773 -0.0122
 7127TIP3    H142872   0.737   1.026   3.057  0.0401 -1.0515 -0.5720
 7127TIP3    H242873   0.848   1.127   3.036 -1.1372  0.6389  1.0531
 7128TIP3   OH242874   4.528   3.037   3.219  0.9601  0.4687  0.2544
 7128TIP3    H142875   4.604   3.088   3.246  0.7932  0.2634  1.1442
 7128TIP3    H242876   4.523   2.966   3.283  0.7225 -0.2090 -0.4996
 7129TIP3   OH242877   6.791   6.704   0.243  0.0790  0.0848 -0.7717
 7129TIP3    H142878   6.773   6.645   0.170 -0.0918  1.3145 -1.7673
 7129TIP3    H242879   6.766   6.655   0.321  0.9767 -1.5500 -1.4698
 7130TIP3   OH242880   4.546   5.112  15.690 -0.1816 -0.2643  0.3063
 7130TIP3    H142881   4.620   5.159  15.730  0.0131  0.3798 -0.7406
 7130TIP3    H242882   4.537   5.153  15.603 -1.0199 -1.1326 -0.0312
 7131TIP3   OH242883   5.582   3.951   5.138 -0.4184 -0.3729  0.0561
 7131TIP3    H142884   5.527   3.900   5.078  1.0622 -2.5510  0.4509
 7131TIP3    H242885   5.651   3.986   5.083 -0.4502 -0.2769  0.0779
 7132TIP3   OH242886   5.224   0.678   3.306  0.1158  0.7396 -0.5525
 7132TIP3    H142887   5.280   0.754   3.292  1.0759  0.0755 -0.4546
 7132TIP3    H242888   5.149   0.712   3.355  0.2123  1.7310 -1.0686
 7133TIP3   OH242889   1.084   3.721  17.181 -0.6507  0.1939  0.8399
 7133TIP3    H142890   1.132   3.656  17.231  0.2393  0.6133  0.5456
 7133TIP3    H242891   1.113   3.805  17.216 -2.3450  0.4563  1.7346
 7134TIP3   OH242892   4.479   2.137  13.846 -0.1500 -0.3205  0.0324
 7134TIP3    H142893   4.427   2.217  13.835 -2.4549 -1.5992  0.8266
 7134TIP3    H242894   4.504   2.137  13.938 -0.5200 -0.7094  0.1345
 7135TIP3   OH242895   4.272   2.024  12.259 -0.2323  0.6526 -0.0199
 7135TIP3    H142896   4.322   2.085  12.313  0.6748 -0.3133  0.2796
 7135TIP3    H242897   4.187   2.065  12.248 -0.5536  0.7825  2.3884
 7136TIP3   OH242898   5.747   4.080  12.287 -0.1852 -0.2686 -0.0751
 7136TIP3    H142899   5.796   4.132  12.350 -0.3624  0.8393 -0.8079
 7136TIP3    H242900   5.811   4.020  12.249  0.6411  1.1858 -1.0487
 7137TIP3   OH242901   3.389   0.214  15.104  0.8488 -0.1568  0.0278
 7137TIP3    H142902   3.301   0.247  15.119  1.0386  0.1206  0.5829
 7137TIP3    H242903   3.422   0.193  15.192  1.0947 -0.8803 -0.2291
 7138TIP3   OH242904   1.728   0.943  15.785 -0.8268  0.6167 -0.3677
 7138TIP3    H142905   1.700   0.926  15.695 -0.6735  1.0665 -0.5037
 7138TIP3    H242906   1.695   1.031  15.805 -0.6292  0.6294 -0.0808
 7139TIP3   OH242907   4.750   3.316   3.985 -0.0466 -0.0197  0.3027
 7139TIP3    H142908   4.788   3.228   3.993 -2.1794 -1.1074 -0.6838
 7139TIP3    H242909   4.747   3.349   4.075 -0.5343 -1.5753  0.8898
 7140TIP3   OH242910   4.002   3.432   0.703 -0.2983 -0.1945 -0.0048
 7140TIP3    H142911   3.995   3.431   0.607 -0.0774 -1.4039 -0.0244
 7140TIP3    H242912   4.053   3.353   0.724 -0.2282  0.1317  1.1035
 7141TIP3   OH242913   1.265   2.726  13.538 -0.1799 -0.1597  0.3580
 7141TIP3    H142914   1.210   2.802  13.519  0.4475  0.6197  1.5395
 7141TIP3    H242915   1.351   2.751  13.503 -0.7504 -1.8807 -2.6688
 7142TIP3   OH242916   0.217   0.366   5.784  0.1038  0.3733 -0.6272
 7142TIP3    H142917   0.165   0.420   5.843  0.2337  1.3908 -1.4000
 7142TIP3    H242918   0.169   0.370   5.700  0.6585  0.1304 -0.9600
 7143TIP3   OH242919   0.899   0.032   1.392 -0.6540 -0.0178  0.1247
 7143TIP3    H142920   0.897  -0.045   1.335 -0.9595  0.2437 -0.2249
 7143TIP3    H242921   0.819   0.026   1.443 -0.4504 -0.1758  0.4266
 7144TIP3   OH242922   4.928   0.335  15.127  0.4069 -0.4298 -0.4762
 7144TIP3    H142923   4.897   0.275  15.194  0.1725  1.1068  0.8706
 7144TIP3    H242924   4.987   0.395  15.174 -0.5667  1.3245 -1.3883
 7145TIP3   OH242925   2.123   6.292   2.524 -0.1621 -0.1183 -0.2819
 7145TIP3    H142926   2.206   6.247   2.504  1.3542  2.7508 -0.9867
 7145TIP3    H242927   2.103   6.264   2.613  1.7106 -0.7704 -0.0036
 7146TIP3   OH242928   4.775   5.230   0.002 -0.2102  0.2383 -0.2847
 7146TIP3    H142929   4.865   5.198  -0.002 -0.1470  0.5137 -1.3697
 7146TIP3    H242930   4.777   5.314  -0.045 -0.8145  0.7809  0.6175
 7147TIP3   OH242931   3.560   3.946   5.401  0.0838 -0.3078 -0.5296
 7147TIP3    H142932   3.497   3.905   5.341 -3.0016  1.3225  1.2888
 7147TIP3    H242933   3.590   3.875   5.457 -1.1342 -0.9611 -0.6736
 7148TIP3   OH242934   2.638   6.685  16.572  0.1770 -0.2867 -0.0444
 7148TIP3    H142935   2.707   6.647  16.518 -0.1685 -0.5306 -0.3198
 7148TIP3    H242936   2.559   6.678  16.519  0.2543  1.7005 -0.5195
 7149TIP3   OH242937   0.704   0.009   2.854  0.4910  0.2453 -0.3776
 7149TIP3    H142938   0.651  -0.050   2.907  2.1450 -0.7055  0.2912
 7149TIP3    H242939   0.764  -0.048   2.806  0.7415  1.2541 -1.3208
 7150TIP3   OH242940   5.126   5.932   5.031 -0.6103  0.4112  0.0089
 7150TIP3    H142941   5.214   5.946   4.996 -0.1044  0.6322  1.3129
 7150TIP3    H242942   5.078   6.012   5.008 -0.8166 -0.1420 -1.6275
 7151TIP3   OH242943   5.744   1.419   1.283 -0.1039 -0.4974 -0.8417
 7151TIP3    H142944   5.743   1.441   1.377  3.7365 -3.2471  0.1147
 7151TIP3    H242945   5.813   1.474   1.247  1.4092 -2.3619 -0.9757
 7152TIP3   OH242946   0.088   0.408  15.006 -0.4714 -0.8238 -0.2414
 7152TIP3    H142947   0.100   0.368  15.092 -0.9300  0.2326  0.3448
 7152TIP3    H242948   0.172   0.395  14.961  0.1801 -0.3827  0.8109
 7153TIP3   OH242949   2.090   1.909   0.573 -0.0842 -0.0707  0.2663
 7153TIP3    H142950   2.058   1.982   0.521  1.0871  0.6689  0.5427
 7153TIP3    H242951   2.185   1.910   0.559  0.0376 -1.0337  0.9194
 7154TIP3   OH242952   5.391   4.988   0.348  0.0352  0.2844 -0.4156
 7154TIP3    H142953   5.318   4.933   0.322 -0.8828  0.9566  0.6007
 7154TIP3    H242954   5.393   5.058   0.283 -0.5644  0.5264 -0.1892
 7155TIP3   OH242955   0.614   3.588   4.078 -0.0233  0.0364  0.4523
 7155TIP3    H142956   0.636   3.674   4.114  1.0619  0.0186 -0.1350
 7155TIP3    H242957   0.693   3.561   4.031 -0.2522 -1.4125  0.8706
 7156TIP3   OH242958   6.145   3.684  13.386  0.0432  0.1165  0.0914
 7156TIP3    H142959   6.211   3.641  13.440  0.9099 -0.6174 -1.4768
 7156TIP3    H242960   6.177   3.774  13.376  0.2025  0.0825  0.2907
 7157TIP3   OH242961   6.747   4.578   3.976  0.5359 -0.4809 -0.9225
 7157TIP3    H142962   6.795   4.635   3.915  0.8551  0.9487  0.5915
 7157TIP3    H242963   6.816   4.536   4.028  0.2330  0.4300  0.2587
 7158TIP3   OH242964   3.876   5.196   4.524 -0.5821  0.0356 -0.0084
 7158TIP3    H142965   3.914   5.169   4.608 -1.8710  1.9679  1.2896
 7158TIP3    H242966   3.784   5.171   4.530 -0.1706 -2.2920 -2.0519
 7159TIP3   OH242967   2.644   1.802  12.792 -0.0579 -0.1875  0.4685
 7159TIP3    H142968   2.730   1.790  12.832  0.1344  1.1421  0.4943
 7159TIP3    H242969   2.588   1.829  12.864 -0.3314 -0.3174  0.3067
 7160TIP3   OH242970   0.151   1.025   0.512  0.0137  0.6160 -0.1399
 7160TIP3    H142971   0.220   0.991   0.569  2.3266 -1.0744 -3.5949
 7160TIP3    H242972   0.156   1.120   0.523  0.2937  0.3825  2.4049
 7161TIP3   OH242973   1.275   5.177  13.489  0.0878 -0.1384  0.1348
 7161TIP3    H142974   1.271   5.173  13.584  0.0969 -0.5646  0.1190
 7161TIP3    H242975   1.215   5.247  13.465  1.0511  0.8472  0.5217
 7162TIP3   OH242976   3.070   0.444  17.001 -1.1840 -0.3285 -0.1727
 7162TIP3    H142977   3.021   0.412  16.925 -0.2303 -0.0873 -0.9065
 7162TIP3    H242978   3.160   0.451  16.970 -0.9677  0.8177  0.6612
 7163TIP3   OH242979   5.553   4.889   4.669  0.0261 -0.0147 -0.3561
 7163TIP3    H142980   5.593   4.821   4.614 -0.1657 -0.7656  0.4156
 7163TIP3    H242981   5.592   4.971   4.638  0.4552 -0.5000 -1.1270
 7164TIP3   OH242982   0.982   0.952   2.463  0.5355  0.1318  0.5015
 7164TIP3    H142983   1.055   0.950   2.525  0.8566  1.7161  0.2118
 7164TIP3    H242984   0.988   1.038   2.421 -0.8899 -0.1102 -0.2668
 7165TIP3   OH242985   2.073   4.827   0.338  0.2025 -0.0119  0.0052
 7165TIP3    H142986   2.104   4.744   0.373 -2.8329 -1.5647 -0.6811
 7165TIP3    H242987   2.056   4.810   0.245 -1.4297  1.0167  0.0618
 7166TIP3   OH242988   4.618   1.358   0.149  0.3162 -0.2575 -0.5113
 7166TIP3    H142989   4.701   1.310   0.143  0.5925  0.0440  0.5503
 7166TIP3    H242990   4.636   1.441   0.105  0.6908 -0.0640 -0.0086
 7167TIP3   OH242991   1.206   5.855   1.642  0.0641 -0.2922 -0.3582
 7167TIP3    H142992   1.237   5.851   1.551  1.8591 -0.6633  0.2317
 7167TIP3    H242993   1.201   5.763   1.669  0.5576 -0.1438  0.2429
 7168TIP3   OH242994   3.719   3.546  17.215 -0.0265  0.7727 -0.0186
 7168TIP3    H142995   3.756   3.465  17.180 -0.5391  0.3194  0.4681
 7168TIP3    H242996   3.633   3.552  17.174 -0.9876 -0.1993  1.7121
 7169TIP3   OH242997   5.828   6.625  16.043 -0.0490  0.7189 -0.2881
 7169TIP3    H142998   5.847   6.539  16.005 -0.0745 -0.1125  1.4414
 7169TIP3    H242999   5.784   6.674  15.973 -1.4248 -1.2142 -0.8761
 7170TIP3   OH243000   3.551   1.223   1.975  0.3454  0.3268  0.2445
 7170TIP3    H143001   3.611   1.287   2.013  0.5681  0.3765 -0.1952
 7170TIP3    H243002   3.580   1.212   1.885 -0.2749  0.3107  0.0427
 7171TIP3   OH243003   2.920   5.411  12.980  0.2121 -0.1836 -0.1171
 7171TIP3    H143004   2.948   5.359  13.055 -0.0207  0.8351  0.6818
 7171TIP3    H243005   2.999   5.458  12.952 -0.3467  1.7831  1.4095
 7172TIP3   OH243006   1.847   6.193   3.145  0.0026 -0.0874  0.0621
 7172TIP3    H143007   1.886   6.191   3.232  0.1231  0.2930  0.0162
 7172TIP3    H243008   1.851   6.102   3.115 -0.1774 -0.2517  0.5125
 7173TIP3   OH243009   5.221   1.558   4.087  0.1930  0.0592  0.3337
 7173TIP3    H143010   5.252   1.474   4.120  1.4148 -0.9670 -3.0241
 7173TIP3    H243011   5.132   1.542   4.058  0.2160  0.0731  0.2532
 7174TIP3   OH243012   5.073   3.853   3.900 -0.2890 -0.8468 -0.2183
 7174TIP3    H143013   5.005   3.910   3.864  0.0418  0.0635  0.5818
 7174TIP3    H243014   5.154   3.884   3.860 -0.1253 -0.8564  0.1087
 7175TIP3   OH243015   2.716   2.722  17.140  0.4525 -0.1261 -0.2764
 7175TIP3    H143016   2.652   2.651  17.138 -0.3520  0.5976 -1.1726
 7175TIP3    H243017   2.674   2.792  17.190  0.0202  0.8019 -1.8761
 7176TIP3   OH243018   2.580   0.397   2.525 -0.6818  0.0716  0.1108
 7176TIP3    H143019   2.549   0.483   2.495 -0.5444  0.4510  1.0127
 7176TIP3    H243020   2.673   0.396   2.504 -0.8372 -0.1825 -0.6069
 7177TIP3   OH243021   2.812   1.250  16.971  0.0517 -0.1202  0.1809
 7177TIP3    H143022   2.791   1.249  17.065  0.7279 -0.6712  0.3343
 7177TIP3    H243023   2.828   1.342  16.951  0.8057 -0.1069  0.8210
 7178TIP3   OH243024   5.518   1.269   3.599 -0.1854  0.3035 -0.1841
 7178TIP3    H143025   5.591   1.331   3.588  0.4261 -0.1829  0.9424
 7178TIP3    H243026   5.546   1.191   3.552 -0.3576  0.4154 -0.4712
 7179TIP3   OH243027   1.021   1.131   3.797  0.2908 -0.0729 -0.3833
 7179TIP3    H143028   1.115   1.125   3.782  0.1952  1.3217 -1.8475
 7179TIP3    H243029   1.013   1.183   3.877  0.8053  2.5310 -1.9105
 7180TIP3   OH243030   6.032   4.512  11.966  0.1104 -0.3295  0.1025
 7180TIP3    H143031   6.028   4.461  11.885 -1.5975 -0.9133  0.5226
 7180TIP3    H243032   6.092   4.462  12.022  0.9460 -0.1572 -0.6129
 7181TIP3   OH243033   4.247   4.480  13.384  0.2968 -0.1099  0.5130
 7181TIP3    H143034   4.191   4.474  13.306  1.3131 -0.5869 -0.2018
 7181TIP3    H243035   4.257   4.574  13.398  0.9540  0.0037 -0.5813
 7182TIP3   OH243036   2.270   3.714  12.930  0.4894  0.3810  0.2598
 7182TIP3    H143037   2.250   3.805  12.908 -3.4500 -0.2605  0.5793
 7182TIP3    H243038   2.189   3.679  12.965  2.0407 -3.1576  0.7436
 7183TIP3   OH243039   0.611   2.308   3.623 -0.3865 -0.9990 -0.1488
 7183TIP3    H143040   0.520   2.322   3.647 -0.6440 -1.4986 -0.7807
 7183TIP3    H243041   0.609   2.293   3.528  0.4708 -0.0487 -0.3331
 7184TIP3   OH243042   2.185   0.978   5.654  0.0643  0.1608  0.3258
 7184TIP3    H143043   2.239   0.994   5.732 -0.7815  0.2204  0.9215
 7184TIP3    H243044   2.133   0.901   5.677  0.4735 -0.3890 -0.5553
 7185TIP3   OH243045   3.430   5.545  11.760 -0.0106  0.2330  0.3069
 7185TIP3    H143046   3.510   5.522  11.712 -2.4733 -2.3545 -3.1571
 7185TIP3    H243047   3.412   5.635  11.735  0.9898  0.3132 -0.1805
 7186TIP3   OH243048   5.489   1.916  15.553 -0.3893  0.0058 -0.2929
 7186TIP3    H143049   5.492   1.871  15.469  0.1593 -0.1230 -0.2018
 7186TIP3    H243050   5.417   1.874  15.600 -0.5883 -0.0338 -0.6268
 7187TIP3   OH243051   3.179   6.728   0.474  0.1790 -0.1660  0.2489
 7187TIP3    H143052   3.089   6.697   0.486  0.1613 -0.2245 -0.0189
 7187TIP3    H243053   3.216   6.730   0.562 -0.1184 -0.0381  0.3716
 7188TIP3   OH243054   0.565   2.880  15.154  0.3098 -0.2838 -0.4101
 7188TIP3    H143055   0.474   2.854  15.169  0.5032 -1.0624 -0.5208
 7188TIP3    H243056   0.583   2.852  15.064  0.7198 -0.3247 -0.3185
 7189TIP3   OH243057   6.126   0.857  11.333 -0.2132  0.0849 -0.1709
 7189TIP3    H143058   6.111   0.812  11.250 -0.6701  0.9366 -0.5574
 7189TIP3    H243059   6.055   0.921  11.340  1.9055  2.7330 -1.0063
 7190TIP3   OH243060   6.159   6.076   0.493 -0.1157 -0.2688  0.2516
 7190TIP3    H143061   6.111   5.994   0.498 -2.3329  0.8751 -0.8169
 7190TIP3    H243062   6.125   6.128   0.566  1.2402 -0.2315  0.8986
 7191TIP3   OH243063   4.449   0.579  11.741 -0.3648  0.1239  0.0546
 7191TIP3    H143064   4.374   0.525  11.768  0.0310 -0.4587 -0.0122
 7191TIP3    H243065   4.442   0.584  11.646  0.1648 -0.6507 -0.0317
 7192TIP3   OH243066   0.439   2.406   6.102 -0.3620 -0.1983 -0.0232
 7192TIP3    H143067   0.346   2.413   6.123  0.3169  1.5476  2.9140
 7192TIP3    H243068   0.459   2.313   6.112 -1.8757 -0.7099 -1.3553
 7193TIP3   OH243069   6.071   0.677  11.580 -0.1965  0.1246  0.0684
 7193TIP3    H143070   5.991   0.684  11.632  0.2473 -0.4940  0.8612
 7193TIP3    H243071   6.069   0.753  11.521 -1.3507  0.1203  0.0862
 7194TIP3   OH243072   4.780   6.282  16.454  0.0523  0.9875 -0.6024
 7194TIP3    H143073   4.705   6.221  16.458  0.6110  0.2195 -1.3520
 7194TIP3    H243074   4.848   6.240  16.505  0.0553  1.5743 -0.1183
 7195TIP3   OH243075   5.315   5.145   4.194  0.2472 -0.1509  0.2272
 7195TIP3    H143076   5.307   5.165   4.101  2.5686  0.5936  0.1391
 7195TIP3    H243077   5.283   5.055   4.202  0.9649 -0.5852 -1.4684
 7196TIP3   OH243078   6.572   1.917   2.472 -0.3581  0.9324  0.3990
 7196TIP3    H143079   6.586   1.991   2.532 -1.7161  2.0276 -0.5674
 7196TIP3    H243080   6.478   1.900   2.477 -0.2878  0.2248 -0.4863
 7197TIP3   OH243081   5.435   6.647   3.752 -0.4299 -0.1003  0.1211
 7197TIP3    H143082   5.450   6.555   3.777  0.7173  0.1117  0.2947
 7197TIP3    H243083   5.370   6.643   3.683 -0.5632 -1.0364  0.2845
 7198TIP3   OH243084   6.255   5.309   0.248  0.5155  0.2688 -0.2679
 7198TIP3    H143085   6.239   5.222   0.284  2.0948  0.1369  0.1845
 7198TIP3    H243086   6.230   5.302   0.156 -1.9742  0.1368  0.3592
 7199TIP3   OH243087   0.835   0.969   2.054  0.9339  0.0393  0.0370
 7199TIP3    H143088   0.750   1.012   2.041  0.6439  0.1660  2.0209
 7199TIP3    H243089   0.826   0.885   2.009 -1.1847 -0.9943  2.1938
 7200TIP3   OH243090   4.046   2.075   4.869  0.1275  0.2891 -0.3491
 7200TIP3    H143091   4.137   2.047   4.861 -0.1261 -0.7327  0.2035
 7200TIP3    H243092   4.017   2.088   4.779 -0.0007 -2.1110 -0.7100
 7201TIP3   OH243093   0.321   6.469   5.118  0.7112  0.7705  0.0394
 7201TIP3    H143094   0.256   6.435   5.179  0.0439  3.3354  0.9084
 7201TIP3    H243095   0.404   6.434   5.149  0.2314  0.9975  1.6675
 7202TIP3   OH243096   0.122   6.752  16.598 -0.0144 -0.3738 -0.1277
 7202TIP3    H143097   0.176   6.705  16.662 -2.2151 -1.7624  0.8165
 7202TIP3    H243098   0.086   6.827  16.646 -0.4204 -0.5180 -0.2036
 7203TIP3   OH243099   0.311   3.276  11.019 -0.5765  0.0912  0.6651
 7203TIP3    H143100   0.272   3.219  10.952  0.3937 -0.2865  0.3921
 7203TIP3    H243101   0.359   3.342  10.968  1.5407 -1.1444  0.9048
 7204TIP3   OH243102   3.872   2.797  17.027 -0.6319 -0.6765 -0.1485
 7204TIP3    H143103   3.825   2.791  16.944 -1.7265 -1.7648  0.5089
 7204TIP3    H243104   3.803   2.794  17.094  0.3594 -3.1213  0.8716
 7205TIP3   OH243105   5.906   0.835  14.980 -0.1272  0.8741 -0.2767
 7205TIP3    H143106   5.909   0.748  14.941  0.8091  0.5468  0.4710
 7205TIP3    H243107   5.998   0.859  14.990 -0.3678  1.5507  0.3872
 7206TIP3   OH243108   6.175   5.528   0.383  0.0287 -0.5920 -0.2300
 7206TIP3    H143109   6.192   5.452   0.328 -2.9419 -1.4661 -0.1155
 7206TIP3    H243110   6.121   5.494   0.455  0.4680  1.2480  1.0424
 7207TIP3   OH243111   3.204   3.069   1.897  0.6724 -0.0969  0.0923
 7207TIP3    H143112   3.187   3.084   1.990  0.8028 -1.0897  0.2915
 7207TIP3    H243113   3.297   3.050   1.892  0.5553 -0.6419 -0.1464
 7208TIP3   OH243114   2.837   6.075  12.709 -0.5303  0.1987  0.0569
 7208TIP3    H143115   2.787   6.017  12.767 -0.3939  0.8482  0.8447
 7208TIP3    H243116   2.779   6.150  12.695  0.7202  1.6528  2.1756
 7209TIP3   OH243117   6.285   6.098   1.075  0.4498 -0.2005 -0.5394
 7209TIP3    H143118   6.312   6.073   0.987  0.9186  1.1155 -0.8025
 7209TIP3    H243119   6.318   6.188   1.085 -0.3687 -0.0085  0.6421
 7210TIP3   OH243120   4.179   3.601   5.159  0.4277  0.2706  0.2599
 7210TIP3    H143121   4.238   3.676   5.160 -0.4202  1.1456 -2.8902
 7210TIP3    H243122   4.224   3.536   5.104  0.5994 -1.0943  1.9324
 7211TIP3   OH243123   3.596   0.471  13.515  0.0884  0.5663  0.1061
 7211TIP3    H143124   3.674   0.438  13.471 -1.2546 -0.7220 -1.4537
 7211TIP3    H243125   3.549   0.521  13.448  0.8435  3.7514  1.7561
 7212TIP3   OH243126   4.132   4.047  11.434  0.3226  0.3506 -0.5630
 7212TIP3    H143127   4.038   4.030  11.421  0.1207 -0.6471  1.6780
 7212TIP3    H243128   4.175   4.001  11.362 -0.8453 -0.3739 -0.8286
 7213TIP3   OH243129   4.638   0.610   1.275  0.1658  0.3424 -0.4269
 7213TIP3    H143130   4.704   0.679   1.277 -1.8583  2.6697 -3.6091
 7213TIP3    H243131   4.609   0.601   1.366  0.9139  3.3009  0.2044
 7214TIP3   OH243132   0.388   6.319  12.920 -0.2131  0.4096  0.0843
 7214TIP3    H143133   0.303   6.280  12.900 -0.7375  1.8772 -0.6802
 7214TIP3    H243134   0.449   6.275  12.861 -0.8403  0.9358 -0.9798
 7215TIP3   OH243135   5.707   3.064  14.453  0.2256  0.9792  0.0756
 7215TIP3    H143136   5.801   3.054  14.465  0.0440  1.1748  2.1982
 7215TIP3    H243137   5.694   3.067  14.359  2.2197 -0.1276 -0.2825
 7216TIP3   OH243138   0.468   6.230  16.255  0.2002 -0.5031 -0.0066
 7216TIP3    H143139   0.377   6.247  16.234  0.2785  0.2709  0.2678
 7216TIP3    H243140   0.472   6.136  16.271 -0.6870 -0.4253  0.6836
 7217TIP3   OH243141   1.870   0.903  13.373  0.6028  1.0313  1.0205
 7217TIP3    H143142   1.895   0.846  13.300 -0.1476 -1.3360  2.5038
 7217TIP3    H243143   1.774   0.898  13.375  0.5163  2.2876  1.2979
 7218TIP3   OH243144   1.249   5.284   4.531 -0.1549  0.0266 -0.3563
 7218TIP3    H143145   1.234   5.194   4.559 -1.9530  0.6836  0.9405
 7218TIP3    H243146   1.239   5.336   4.611 -0.0392  1.4622 -1.2421
 7219TIP3   OH243147   6.155   0.283   5.815  0.6128  0.2547 -0.3198
 7219TIP3    H143148   6.134   0.282   5.722  4.5619  0.7353 -1.3609
 7219TIP3    H243149   6.143   0.375   5.841  1.2103  0.4747 -0.8146
 7220TIP3   OH243150   0.253   3.227   5.683 -0.2360 -0.3980  0.1440
 7220TIP3    H143151   0.318   3.276   5.734  0.7728 -3.1106  1.6294
 7220TIP3    H243152   0.283   3.235   5.592  0.5687  0.6768  0.4831
 7221TIP3   OH243153   2.073   0.960  15.187 -0.2805  0.0819  0.0970
 7221TIP3    H143154   2.067   0.936  15.094 -0.7170  0.7783 -0.0696
 7221TIP3    H243155   2.167   0.960  15.206 -0.2357 -1.1928 -0.0245
 7222TIP3   OH243156   1.841   6.303  12.093 -0.1237 -0.0444 -0.2078
 7222TIP3    H143157   1.746   6.302  12.102  0.0270  1.2609  2.1082
 7222TIP3    H243158   1.874   6.297  12.182  2.0418 -1.9276 -1.0301
 7223TIP3   OH243159   5.417   0.714  11.255 -0.0852  0.3449  0.3139
 7223TIP3    H143160   5.443   0.777  11.188 -0.7449 -0.7866 -1.0496
 7223TIP3    H243161   5.420   0.629  11.211  0.3010 -0.5392  1.9643
 7224TIP3   OH243162   1.525   2.638  17.038  0.1204 -0.1619 -0.2466
 7224TIP3    H143163   1.532   2.605  17.128 -0.3908  0.4256  0.0097
 7224TIP3    H243164   1.434   2.665  17.029  1.0532  3.7019  0.4454
 7225TIP3   OH243165   3.804   6.108   2.218  0.4480 -0.2254  0.1412
 7225TIP3    H143166   3.777   6.115   2.126 -0.9064 -0.8262  0.4816
 7225TIP3    H243167   3.778   6.192   2.257  2.5693  0.7469 -0.3640
 7226TIP3   OH243168   6.335   5.992  16.516 -0.2022 -0.3578  0.0139
 7226TIP3    H143169   6.314   6.047  16.440 -0.8409 -0.3961  0.1597
 7226TIP3    H243170   6.388   6.048  16.573 -1.0657  0.1972  0.2861
 7227TIP3   OH243171   6.156   5.413   5.510  0.4198  0.4347  0.0489
 7227TIP3    H143172   6.114   5.350   5.569  0.3561  0.2630 -0.1758
 7227TIP3    H243173   6.132   5.498   5.546 -0.6628  0.3556 -0.4272
 7228TIP3   OH243174   2.538   1.303   0.119  0.0082 -0.0245 -0.0312
 7228TIP3    H143175   2.484   1.260   0.053 -0.3841  0.9621 -0.3801
 7228TIP3    H243176   2.476   1.360   0.166  0.9088  2.0594 -1.2346
 7229TIP3   OH243177   1.750   6.375  11.159  0.2716 -0.6475  0.2481
 7229TIP3    H143178   1.760   6.459  11.115  2.5378 -2.0779 -2.2463
 7229TIP3    H243179   1.830   6.327  11.139 -1.5148 -3.9661  0.3119
 7230TIP3   OH243180   1.400   2.225  16.196 -0.0831 -0.2380 -0.2189
 7230TIP3    H143181   1.448   2.294  16.150 -0.2563 -0.3664 -0.5939
 7230TIP3    H243182   1.406   2.149  16.139  0.3602 -0.6278  0.3307
 7231TIP3   OH243183   4.833   4.499  13.834  0.1429 -0.0520 -0.2778
 7231TIP3    H143184   4.749   4.463  13.861  0.6727 -0.6510  0.6375
 7231TIP3    H243185   4.884   4.423  13.807  1.5021 -0.1743  2.3004
 7232TIP3   OH243186   1.304   1.761   3.074  0.0739  0.0654 -1.0114
 7232TIP3    H143187   1.333   1.850   3.095 -2.3015  0.9893 -1.3124
 7232TIP3    H243188   1.319   1.753   2.980 -0.6641  0.5934 -1.1923
 7233TIP3   OH243189   5.765   6.279  13.471 -0.0219  0.3764  0.1241
 7233TIP3    H143190   5.781   6.373  13.473  0.5418  0.3212 -1.0319
 7233TIP3    H243191   5.730   6.262  13.383  0.1322 -0.5298  0.2229
 7234TIP3   OH243192   3.424   3.293  11.014 -0.8148 -0.2185  0.5427
 7234TIP3    H143193   3.452   3.375  11.056 -1.8566  0.4090  0.0415
 7234TIP3    H243194   3.404   3.318  10.924  3.4548 -1.9208 -1.1431
 7235TIP3   OH243195   0.149   6.627  14.453 -0.0652  0.2363  0.2544
 7235TIP3    H143196   0.204   6.626  14.375  2.4764 -0.0581  1.9051
 7235TIP3    H243197   0.119   6.537  14.464  1.0067 -0.1104  0.4984
 7236TIP3   OH243198   2.432   6.113   0.028 -0.1431  0.7809 -0.6796
 7236TIP3    H143199   2.361   6.154   0.076  0.3393  1.5720 -0.6200
 7236TIP3    H243200   2.486   6.072   0.096 -0.9486 -0.5023 -0.7864
 7237TIP3   OH243201   6.457   6.446  13.329  0.4290 -0.6951  0.3402
 7237TIP3    H143202   6.495   6.362  13.354  0.4197 -1.1398 -1.0516
 7237TIP3    H243203   6.525   6.489  13.277  0.5777  0.3349  1.3659
 7238TIP3   OH243204   4.918   6.478   2.149  0.7400  0.2334 -0.4966
 7238TIP3    H143205   4.868   6.507   2.072 -0.4923  1.8425  0.8307
 7238TIP3    H243206   4.970   6.554   2.174 -1.1489  0.8500  1.9879
 7239TIP3   OH243207   0.336   3.809   3.532  0.0140  0.2224 -0.5669
 7239TIP3    H143208   0.257   3.839   3.577  1.6212  1.5790  1.6072
 7239TIP3    H243209   0.396   3.884   3.536  1.5720 -0.8814 -1.7472
 7240TIP3   OH243210   3.507   6.595   0.765  0.0501 -0.0410 -0.8218
 7240TIP3    H143211   3.495   6.520   0.823 -2.2008  0.8340 -0.0392
 7240TIP3    H243212   3.421   6.638   0.764  0.5973  1.1253 -3.2244
 7241TIP3   OH243213   4.708   0.663  11.175 -0.0616 -0.1818 -0.5384
 7241TIP3    H143214   4.677   0.705  11.095 -1.2754 -0.4260 -0.2221
 7241TIP3    H243215   4.630   0.659  11.232  0.3771 -1.4738  0.0190
 7242TIP3   OH243216   5.319   0.753   2.333  0.2393  0.2276  0.3857
 7242TIP3    H143217   5.371   0.778   2.257  0.9427  0.2922  0.8812
 7242TIP3    H243218   5.243   0.708   2.296  1.0992 -0.7065 -0.3141
 7243TIP3   OH243219   0.124   2.987  13.779  0.0046  0.1899  0.5730
 7243TIP3    H143220   0.056   3.032  13.830 -1.0891 -0.4345 -0.2905
 7243TIP3    H243221   0.187   3.055  13.757 -0.4666  0.8343  1.1835
 7244TIP3   OH243222   6.761   5.764  16.813 -0.3949  0.2769  0.4545
 7244TIP3    H143223   6.833   5.777  16.752 -0.1086  4.5975  1.3680
 7244TIP3    H243224   6.798   5.713  16.884  0.7423 -0.4074 -0.5859
 7245TIP3   OH243225   2.169   3.828  16.720  0.3711  0.0368 -0.0538
 7245TIP3    H143226   2.258   3.830  16.686 -0.3877  0.4818 -2.1991
 7245TIP3    H243227   2.169   3.759  16.786  2.5542  0.8212  0.8396
 7246TIP3   OH243228   0.698   3.256   2.880 -0.0398  0.2584 -0.7454
 7246TIP3    H143229   0.707   3.348   2.904 -0.9664  0.3850 -0.8477
 7246TIP3    H243230   0.610   3.232   2.909 -0.0380 -0.4268 -1.2711
 7247TIP3   OH243231   1.076   3.357  15.085  0.7774 -0.4989 -0.0889
 7247TIP3    H143232   0.993   3.381  15.127  1.2506 -0.9444  1.1132
 7247TIP3    H243233   1.049   3.321  15.000 -0.0488  3.0600 -1.5299
 7248TIP3   OH243234   1.349   5.113  12.739  0.0060 -0.3448  0.3407
 7248TIP3    H143235   1.279   5.048  12.736 -0.6064  0.3461 -1.2732
 7248TIP3    H243236   1.356   5.136  12.832 -1.4941 -0.8615  0.6047
 7249TIP3   OH243237   0.835   4.140   5.496  0.5242  0.4249 -0.3836
 7249TIP3    H143238   0.846   4.052   5.531 -2.2141 -0.6676 -1.9449
 7249TIP3    H243239   0.820   4.195   5.572 -2.1518 -1.3173  0.4910
 7250TIP3   OH243240   2.684   4.635  17.296  0.1433 -0.3345 -0.4621
 7250TIP3    H143241   2.648   4.707  17.245  0.1390 -1.0874 -1.5725
 7250TIP3    H243242   2.749   4.674  17.353  0.1334  0.5356 -1.0436
 7251TIP3   OH243243   1.675   1.143   5.358 -0.5605 -0.3929  0.1680
 7251TIP3    H143244   1.588   1.182   5.370 -0.5330  0.5750 -2.2090
 7251TIP3    H243245   1.658   1.050   5.350 -1.4148 -0.1989 -0.4293
 7252TIP3   OH243246   5.341   0.190   1.484  0.5206  0.1798  0.0135
 7252TIP3    H143247   5.249   0.216   1.490  0.1325 -1.0294 -0.3621
 7252TIP3    H243248   5.340   0.096   1.502  1.3766 -0.3152 -2.2039
 7253TIP3   OH243249   3.215   5.102  12.802  0.2930 -1.0137 -0.2710
 7253TIP3    H143250   3.218   5.133  12.712 -0.1629  2.1202  0.6965
 7253TIP3    H243251   3.131   5.055  12.808  0.4333 -1.4687 -1.4942
 7254TIP3   OH243252   4.067   0.127  16.210  0.1468 -0.1614  0.5466
 7254TIP3    H143253   4.152   0.171  16.213 -0.2755  0.7088 -0.0497
 7254TIP3    H243254   4.004   0.195  16.188 -0.2687 -1.3276 -2.3502
 7255TIP3   OH243255   6.534   2.554   4.046  0.3828 -0.1919  0.0225
 7255TIP3    H143256   6.562   2.584   4.133 -0.5666 -2.2791  1.1334
 7255TIP3    H243257   6.443   2.526   4.059  0.6600 -1.8632 -1.2682
 7256TIP3   OH243258   4.586   2.515   6.232 -0.2963  0.2280  0.0643
 7256TIP3    H143259   4.597   2.609   6.221 -1.0350  0.1244 -2.2845
 7256TIP3    H243260   4.607   2.498   6.323  1.8117  2.3685  0.0618
 7257TIP3   OH243261   6.347   1.672   4.916  0.1038  0.3108  0.1356
 7257TIP3    H143262   6.407   1.659   4.842  0.1358  0.0540  0.2087
 7257TIP3    H243263   6.282   1.603   4.907  0.7301 -0.4086  0.9764
 7258TIP3   OH243264   6.363   6.040   1.336  0.1019 -0.1974  0.3268
 7258TIP3    H143265   6.345   6.050   1.242 -0.7473  1.2072  0.6257
 7258TIP3    H243266   6.279   6.053   1.379  0.7268  0.5459  1.3774
 7259TIP3   OH243267   0.512   3.004  15.977 -0.1038 -0.4977 -0.0611
 7259TIP3    H143268   0.522   2.914  16.009  0.0976 -0.7859 -0.9248
 7259TIP3    H243269   0.547   3.058  16.048  3.3917 -1.2475 -1.0103
 7260TIP3   OH243270   2.540   0.109   3.674 -0.3759 -0.0513 -0.7401
 7260TIP3    H143271   2.505   0.047   3.738  0.4582 -0.2632 -0.4878
 7260TIP3    H243272   2.559   0.188   3.725  0.4192 -0.2674 -0.6882
 7261TIP3   OH243273   0.235   4.212  12.816 -0.3716  0.7710 -0.7663
 7261TIP3    H143274   0.291   4.193  12.891 -0.5325 -0.4979 -0.9305
 7261TIP3    H243275   0.175   4.137  12.811 -0.2528  0.7330 -2.2549
 7262TIP3   OH243276   4.177   1.091   0.910 -0.1503 -0.1398 -0.6890
 7262TIP3    H143277   4.085   1.117   0.907 -0.1676 -0.0789  0.3019
 7262TIP3    H243278   4.219   1.144   0.842 -0.6650  0.5472 -0.4744
 7263TIP3   OH243279   2.613   4.198   5.495 -0.1282 -0.3033  0.0123
 7263TIP3    H143280   2.700   4.159   5.502  0.9507  2.1482  1.6610
 7263TIP3    H243281   2.554   4.124   5.477  2.0302 -2.2910  0.6762
 7264TIP3   OH243282   0.438   2.692  17.134  0.7070 -0.0162  0.3723
 7264TIP3    H143283   0.392   2.657  17.058  3.0518 -2.4571 -0.0916
 7264TIP3    H243284   0.425   2.786  17.129 -2.0845 -0.3820 -1.0371
 7265TIP3   OH243285   1.437   4.017   2.442 -0.0653 -0.0288  0.7041
 7265TIP3    H143286   1.390   4.042   2.522 -2.8237 -0.5189 -0.6190
 7265TIP3    H243287   1.489   4.094   2.419 -0.1505  0.5511  2.2840
 7266TIP3   OH243288   4.267   4.226  13.734  0.3819 -0.0358 -0.0228
 7266TIP3    H143289   4.263   4.304  13.679 -0.3284  0.3308  0.5234
 7266TIP3    H243290   4.211   4.162  13.690 -2.4306  1.1624  1.6057
 7267TIP3   OH243291   0.211   2.464  13.620 -0.3605  0.6299 -0.1275
 7267TIP3    H143292   0.124   2.427  13.608 -0.3644  0.6227 -0.0750
 7267TIP3    H243293   0.255   2.451  13.536 -0.1053 -0.1585  0.1190
 7268TIP3   OH243294   5.042   0.145   3.175  0.1874 -0.7748  0.1304
 7268TIP3    H143295   5.058   0.051   3.186  1.5419 -0.7723 -1.5717
 7268TIP3    H243296   5.069   0.183   3.259  3.2503 -1.5157 -0.4150
 7269TIP3   OH243297   2.583   2.236  14.673 -0.3907  0.0369  0.2646
 7269TIP3    H143298   2.495   2.206  14.693 -0.6351 -0.0793 -0.9144
 7269TIP3    H243299   2.572   2.327  14.646 -0.2584 -0.1683 -0.5247
 7270TIP3   OH243300   5.098   6.693   2.164  0.0886  0.4292 -0.2928
 7270TIP3    H143301   5.044   6.768   2.139  1.1413  0.6933 -1.9199
 7270TIP3    H243302   5.147   6.723   2.240 -0.6478  0.8345  0.0316
 7271TIP3   OH243303   0.727   4.459   2.739 -0.1286  0.1827 -0.2733
 7271TIP3    H143304   0.753   4.437   2.649 -1.2960 -0.5065 -0.4683
 7271TIP3    H243305   0.761   4.548   2.752 -0.7634  0.6915 -1.7587
 7272TIP3   OH243306   0.689   1.181   5.882 -0.1247  0.1315  0.1283
 7272TIP3    H143307   0.646   1.203   5.799 -1.1777  1.4356  0.9855
 7272TIP3    H243308   0.770   1.231   5.882  0.2345 -0.4306 -0.4090
 7273TIP3   OH243309   3.320   1.736  12.751  0.2201  0.0444 -0.0667
 7273TIP3    H143310   3.310   1.800  12.821 -0.8496  2.1744 -2.0052
 7273TIP3    H243311   3.230   1.718  12.722  0.6223 -0.9136 -0.7755
 7274TIP3   OH243312   3.212   4.199   0.494 -0.3318  0.2703 -0.3803
 7274TIP3    H143313   3.136   4.142   0.480  0.1421 -0.4758  0.0060
 7274TIP3    H243314   3.287   4.148   0.464  0.2330  0.2138  1.0295
 7275TIP3   OH243315   3.501   6.219   0.571  0.2564  0.3150  0.1656
 7275TIP3    H143316   3.446   6.260   0.638 -0.9823  1.4736 -1.4920
 7275TIP3    H243317   3.519   6.288   0.508  1.1196 -0.8165 -0.8860
 7276TIP3   OH243318   2.652   6.485   1.579  0.2084  0.0375  0.3114
 7276TIP3    H143319   2.595   6.414   1.609  1.4084 -0.3463  1.8146
 7276TIP3    H243320   2.729   6.441   1.543  2.4454  0.3853  4.1210
 7277TIP3   OH243321   0.897   6.422  11.730  0.1251 -0.0103 -0.0109
 7277TIP3    H143322   0.872   6.512  11.752  1.1978  0.4401 -0.5581
 7277TIP3    H243323   0.842   6.400  11.654  0.8758  0.7288 -0.7924
 7278TIP3   OH243324   5.657   1.031   3.498 -0.3045 -0.1281 -0.5001
 7278TIP3    H143325   5.611   0.990   3.571 -0.9211  0.6261 -0.4522
 7278TIP3    H243326   5.744   1.049   3.531 -0.8335  0.9773  0.3521
 7279TIP3   OH243327   5.711   4.311   1.954  0.2005  0.1226  0.2370
 7279TIP3    H143328   5.620   4.327   1.981 -0.4433 -0.5741 -1.3943
 7279TIP3    H243329   5.761   4.378   1.999 -1.1902  0.8282  0.8052
 7280TIP3   OH243330   2.728   1.314   3.829 -0.1868  0.4097 -0.1432
 7280TIP3    H143331   2.734   1.332   3.923 -1.9462 -0.4201  0.1708
 7280TIP3    H243332   2.637   1.334   3.806  0.1332  0.3156 -1.6202
 7281TIP3   OH243333   0.439   6.449   1.555  0.0867  0.0948  0.1549
 7281TIP3    H143334   0.509   6.498   1.511 -0.0888 -0.2236 -0.4898
 7281TIP3    H243335   0.387   6.517   1.598  1.9988  0.2184  2.5239
 7282TIP3   OH243336   3.482   4.200  12.399 -0.1462  0.1378 -0.5370
 7282TIP3    H143337   3.568   4.210  12.358  0.9650  0.5284  1.7445
 7282TIP3    H243338   3.494   4.129  12.462 -1.1664  0.9326  0.5932
 7283TIP3   OH243339   4.102   3.533  13.147  0.0318  0.2048  0.3068
 7283TIP3    H143340   4.088   3.602  13.083  0.6024  0.7976  0.8040
 7283TIP3    H243341   4.108   3.579  13.231  1.8341 -0.2692  0.4877
 7284TIP3   OH243342   1.622   1.704  16.583 -0.2359  0.0328 -0.1026
 7284TIP3    H143343   1.701   1.722  16.532  1.6475  1.1649  2.9363
 7284TIP3    H243344   1.567   1.781  16.571  0.8203  0.9243  0.6307
 7285TIP3   OH243345   0.735   6.535   3.859 -0.0205  0.3029 -0.5276
 7285TIP3    H143346   0.679   6.552   3.783 -0.7303 -0.8874 -0.3132
 7285TIP3    H243347   0.673   6.521   3.931  0.5642 -0.3309 -0.1310
 7286TIP3   OH243348   3.751   1.812  12.426 -0.3258  0.5441 -0.1012
 7286TIP3    H143349   3.702   1.847  12.501  0.7444 -0.8657  1.3241
 7286TIP3    H243350   3.843   1.825  12.449  0.0321 -0.4095 -0.9157
 7287TIP3   OH243351   6.278   0.337   3.457 -0.3973  1.0978 -0.3464
 7287TIP3    H143352   6.263   0.303   3.545  0.4486  0.4490 -0.4359
 7287TIP3    H243353   6.323   0.420   3.472  0.0512  0.8290 -0.1562
 7288TIP3   OH243354   6.521   3.764  12.465  0.2275 -0.5374 -0.4480
 7288TIP3    H143355   6.574   3.747  12.387  0.4115 -2.8982  0.1154
 7288TIP3    H243356   6.433   3.738  12.440 -0.7447  2.8779 -1.2036
 7289TIP3   OH243357   5.876   3.879   5.318 -0.0222  0.0350  0.4752
 7289TIP3    H143358   5.783   3.858   5.328  0.0646  0.0376  1.3795
 7289TIP3    H243359   5.880   3.974   5.318 -0.1055  0.0496 -0.5302
 7290TIP3   OH243360   0.308   5.320  14.127 -0.0245  0.5974  0.5170
 7290TIP3    H143361   0.366   5.334  14.202 -0.2062  1.2475  0.5418
 7290TIP3    H243362   0.223   5.299  14.166 -0.1240  0.9558  0.4993
 7291TIP3   OH243363   1.527   6.266  10.999  0.4889  0.0384 -0.0708
 7291TIP3    H143364   1.598   6.317  11.040  0.9913  1.1416 -2.1392
 7291TIP3    H243365   1.472   6.332  10.956 -2.0519 -0.7658  1.7284
 7292TIP3   OH243366   4.528   5.515   2.325  0.2528 -0.2313  0.0257
 7292TIP3    H143367   4.521   5.431   2.280 -0.2698 -0.1260 -0.0948
 7292TIP3    H243368   4.462   5.511   2.394 -0.5583  0.5129 -0.6810
 7293TIP3   OH243369   2.554   3.669   2.129  0.6252 -0.0770 -0.2491
 7293TIP3    H143370   2.506   3.604   2.179 -0.5870 -0.5076 -1.8599
 7293TIP3    H243371   2.616   3.707   2.191 -0.8036 -0.5339  1.5497
 7294TIP3   OH243372   0.437   3.672   2.708 -0.1339 -0.1037  0.1861
 7294TIP3    H143373   0.415   3.758   2.672  1.3411  0.4812  0.6090
 7294TIP3    H243374   0.357   3.643   2.751 -0.6362  1.0912  0.1045
 7295TIP3   OH243375   2.281   1.720   2.106  0.4208 -0.6034  0.0926
 7295TIP3    H143376   2.367   1.762   2.111 -0.0012  0.2309  0.5694
 7295TIP3    H243377   2.233   1.756   2.181 -0.5371 -0.6091 -0.5087
 7296TIP3   OH243378   4.570   0.578  15.285  0.2364 -0.2998  0.0840
 7296TIP3    H143379   4.572   0.482  15.281  2.8713 -0.2764 -1.6920
 7296TIP3    H243380   4.560   0.606  15.194 -2.2186  1.2068  0.7226
 7297TIP3   OH243381   3.281   3.933  15.790  0.2672 -0.6699  0.5187
 7297TIP3    H143382   3.364   3.893  15.767 -1.1413 -3.4676 -0.1152
 7297TIP3    H243383   3.280   4.016  15.741  1.9354 -1.3926 -0.8368
 7298TIP3   OH243384   5.890   0.672  15.348 -0.3527  0.0171  0.1251
 7298TIP3    H143385   5.871   0.763  15.323  0.3213 -0.0527 -0.6766
 7298TIP3    H243386   5.815   0.646  15.401 -1.3107  0.5230 -0.9444
 7299TIP3   OH243387   6.728   1.071  14.518  0.3729  0.0744 -1.0387
 7299TIP3    H143388   6.766   1.159  14.517 -2.5573  1.4865  0.0044
 7299TIP3    H243389   6.762   1.031  14.599 -0.1441  1.2216 -0.2213
 7300TIP3   OH243390   6.073   0.614  15.703  0.1185 -0.2656 -0.4222
 7300TIP3    H143391   6.064   0.537  15.645  1.4070  0.7369 -2.0455
 7300TIP3    H243392   6.167   0.621  15.719 -0.0405  0.6599  0.1689
 7301TIP3   OH243393   2.997   0.429   2.749  0.1967  0.1419 -0.3812
 7301TIP3    H143394   2.931   0.477   2.798  1.3109  0.7081  0.5973
 7301TIP3    H243395   3.054   0.497   2.711  0.1421 -0.3283 -1.3400
 7302TIP3   OH243396   0.048   1.748  14.173  0.7204 -0.0656 -0.1071
 7302TIP3    H143397  -0.001   1.666  14.166  0.7523 -0.0394 -0.6650
 7302TIP3    H243398   0.034   1.777  14.263 -0.4418  0.0417 -0.3093
 7303TIP3   OH243399   6.442   4.388   0.969 -0.2764  0.5859 -0.0043
 7303TIP3    H143400   6.435   4.369   1.062 -0.7877 -0.5350 -0.2531
 7303TIP3    H243401   6.413   4.479   0.961  0.0543  0.7844  0.9601
 7304TIP3   OH243402   2.507   1.790  15.229  0.3060 -0.2308  0.7437
 7304TIP3    H143403   2.587   1.834  15.201 -0.8089  0.5456 -1.5313
 7304TIP3    H243404   2.453   1.786  15.150 -1.6591 -1.2880  2.0409
 7305TIP3   OH243405   4.596   0.044   5.539  0.4799  0.0537 -0.0710
 7305TIP3    H143406   4.668   0.088   5.493 -1.9068  1.0517 -3.2571
 7305TIP3    H243407   4.540   0.116   5.569 -0.4922 -0.7135 -0.0027
 7306TIP3   OH243408   5.373   5.804  11.625  0.3614 -0.0235 -0.4679
 7306TIP3    H143409   5.440   5.822  11.559 -1.1291  0.2744 -1.9359
 7306TIP3    H243410   5.333   5.721  11.598  0.1778 -0.2542  0.4579
 7307TIP3   OH243411   4.252   1.247   3.304 -0.0369 -0.2771 -0.6425
 7307TIP3    H143412   4.192   1.190   3.258  0.0318  0.4927 -1.7163
 7307TIP3    H243413   4.331   1.195   3.316 -0.4475 -0.8515 -0.3886
 7308TIP3   OH243414   5.792   3.142   4.539  0.1800  0.0317  0.2696
 7308TIP3    H143415   5.868   3.085   4.524  1.4738  2.1785 -2.1646
 7308TIP3    H243416   5.829   3.221   4.578 -0.4154  1.8280 -2.5591
 7309TIP3   OH243417   2.304   4.924   3.555 -0.5945  0.1927  0.0103
 7309TIP3    H143418   2.341   4.983   3.489  0.7012 -1.0822 -0.4787
 7309TIP3    H243419   2.256   4.859   3.503 -3.6165  1.7641  0.6271
 7310TIP3   OH243420   5.453   1.117   5.542  0.1197 -0.1548 -0.3010
 7310TIP3    H143421   5.511   1.149   5.472  1.0577 -0.1662  0.4528
 7310TIP3    H243422   5.453   1.187   5.607 -2.5467  0.8626 -1.2665
 7311TIP3   OH243423   5.079   5.155  15.352 -0.2906  0.0804 -0.0481
 7311TIP3    H143424   5.133   5.170  15.274  0.2909 -1.9677 -0.0996
 7311TIP3    H243425   5.032   5.074  15.333  0.6603 -1.0554  2.1129
 7312TIP3   OH243426   3.071   3.850  15.118  0.0763  0.6716  0.1657
 7312TIP3    H143427   2.980   3.826  15.097  0.2428  0.3250 -0.1783
 7312TIP3    H243428   3.122   3.818  15.043  0.5750  0.2112  0.6903
 7313TIP3   OH243429   5.096   6.143   1.142 -0.3468 -0.2628 -0.7386
 7313TIP3    H143430   5.050   6.092   1.077 -1.7981 -0.1927  0.1907
 7313TIP3    H243431   5.032   6.158   1.211  0.8003  0.6339  0.1840
 7314TIP3   OH243432   1.017   6.693   3.396 -0.0069  0.5056  0.3953
 7314TIP3    H143433   1.111   6.713   3.395 -0.0547  0.7075  0.1057
 7314TIP3    H243434   1.014   6.597   3.398  0.2039  0.4923  0.1665
 7315TIP3   OH243435   0.246   0.122   4.632 -0.5078 -0.4799  0.0553
 7315TIP3    H143436   0.323   0.149   4.683  0.2616 -0.1367 -1.2384
 7315TIP3    H243437   0.176   0.180   4.662 -0.0034 -0.0967  0.5160
 7316TIP3   OH243438   4.006   4.884   2.359  0.1266 -0.1723  0.1178
 7316TIP3    H143439   4.041   4.812   2.412  1.1696  0.5289  0.3969
 7316TIP3    H243440   3.957   4.937   2.421  0.1549 -0.1220  0.0969
 7317TIP3   OH243441   5.728   2.263   0.816 -0.3068 -0.4678 -0.0459
 7317TIP3    H143442   5.713   2.302   0.902  0.8151  0.7767 -0.3926
 7317TIP3    H243443   5.765   2.177   0.836  0.2459 -0.0678  0.7161
 7318TIP3   OH243444   0.718   6.288   5.050 -0.0113 -0.1518 -0.2288
 7318TIP3    H143445   0.789   6.335   5.094  1.3891 -1.9934 -0.4146
 7318TIP3    H243446   0.705   6.336   4.968  0.7066  0.4831  0.0197
 7319TIP3   OH243447   6.573   6.091   6.321 -0.3891  0.0220 -0.3115
 7319TIP3    H143448   6.556   6.184   6.338  0.5401  0.3053 -0.8236
 7319TIP3    H243449   6.646   6.070   6.380  0.0550 -0.1028 -0.8901
 7320TIP3   OH243450   3.271   2.668  12.560  0.7417  0.5362 -0.0767
 7320TIP3    H143451   3.294   2.595  12.618  1.0815  0.5394 -0.2057
 7320TIP3    H243452   3.338   2.734  12.577  0.6466  0.6719 -0.2268
 7321TIP3   OH243453   2.737   1.228   2.775  0.4232  0.2442  1.0353
 7321TIP3    H143454   2.663   1.269   2.820  0.8314  1.3214  0.7713
 7321TIP3    H243455   2.699   1.191   2.696  0.2498  1.3829  0.5641
 7322TIP3   OH243456   4.376   3.439   2.451  0.1614  0.1344 -0.2949
 7322TIP3    H143457   4.340   3.518   2.491  0.7091  0.5640 -0.6291
 7322TIP3    H243458   4.450   3.415   2.507 -0.1137 -0.2502 -0.0918
 7323TIP3   OH243459   4.725   1.021  15.577  0.3378  0.1181 -0.2964
 7323TIP3    H143460   4.654   1.085  15.574  0.0694 -0.2043 -0.8977
 7323TIP3    H243461   4.802   1.072  15.602 -0.5553  0.0721  3.0994
 7324TIP3   OH243462   0.781   1.410   1.860  0.3396  0.2529  0.3617
 7324TIP3    H143463   0.732   1.484   1.826  0.5396  0.6641  0.9600
 7324TIP3    H243464   0.873   1.433   1.845  0.3852 -0.1463  0.0006
 7325TIP3   OH243465   5.334   6.408   3.924  0.3232  0.2792  0.3483
 7325TIP3    H143466   5.336   6.411   4.020  2.1995  4.1626  0.3922
 7325TIP3    H243467   5.415   6.363   3.900  0.6385  0.6556  0.6693
 7326TIP3   OH243468   5.339   5.111  13.468 -0.2789 -0.6512 -0.3943
 7326TIP3    H143469   5.374   5.032  13.509 -1.4424  0.0005  2.0724
 7326TIP3    H243470   5.414   5.150  13.423  1.1410 -1.4556  1.1442
 7327TIP3   OH243471   5.751   0.598   5.314  0.4891 -0.4478 -0.0165
 7327TIP3    H143472   5.802   0.605   5.233  0.0699 -1.2339 -0.3610
 7327TIP3    H243473   5.673   0.547   5.289  1.5153 -2.8663  1.4013
 7328TIP3   OH243474   5.586   0.505   2.198  0.3201 -0.2657 -0.1904
 7328TIP3    H143475   5.664   0.561   2.200 -0.2321  0.6364 -1.9137
 7328TIP3    H243476   5.572   0.487   2.105  1.0338 -4.1475  0.2979
 7329TIP3   OH243477   6.344   6.729  12.963 -0.4880  0.3797 -0.0065
 7329TIP3    H143478   6.327   6.659  13.026 -1.2767  0.3215 -0.2825
 7329TIP3    H243479   6.372   6.684  12.884  0.3691  0.4475  0.2471
 7330TIP3   OH243480   3.484   4.765  13.768  0.0956  0.2466 -0.2429
 7330TIP3    H143481   3.479   4.716  13.686 -0.0882 -1.4113  0.7009
 7330TIP3    H243482   3.423   4.838  13.757  0.4828  0.3668 -1.7636
 7331TIP3   OH243483   6.649   5.225   1.713  0.1163 -0.1914 -0.2394
 7331TIP3    H143484   6.665   5.301   1.658  0.8390  0.4031  0.7444
 7331TIP3    H243485   6.639   5.152   1.652 -0.4259  0.6602 -1.1899
 7332TIP3   OH243486   3.643   6.110   1.699 -0.0868  0.5158  0.0242
 7332TIP3    H143487   3.602   6.023   1.704  0.5620  0.0850 -1.4364
 7332TIP3    H243488   3.572   6.171   1.719 -1.2681 -0.2363 -1.5854
 7333TIP3   OH243489   0.481   2.354  11.682  0.0844  0.1843  0.0157
 7333TIP3    H143490   0.416   2.291  11.713 -0.8689  1.9846  1.9582
 7333TIP3    H243491   0.565   2.308  11.690 -0.7709 -1.6407 -1.0077
 7334TIP3   OH243492   5.223   4.741  15.947 -0.2160  0.4374 -0.2773
 7334TIP3    H143493   5.240   4.710  15.858 -0.4986 -0.4900 -0.0194
 7334TIP3    H243494   5.260   4.829  15.949  1.2309 -0.1315 -0.8310
 7335TIP3   OH243495   5.615   0.913   5.648  0.2433 -0.3037 -0.3546
 7335TIP3    H143496   5.564   0.970   5.590 -0.6421  0.2039  0.8872
 7335TIP3    H243497   5.689   0.885   5.594  0.3687  1.5143 -1.2021
 7336TIP3   OH243498   4.086   2.957   2.120  0.2286  0.4103  0.0388
 7336TIP3    H143499   4.145   2.938   2.194 -0.6873  1.7660  1.1617
 7336TIP3    H243500   4.003   2.979   2.161 -0.2570  1.3914 -1.4080
 7337TIP3   OH243501   5.675   2.957   1.762 -0.2473  0.6035 -0.1394
 7337TIP3    H143502   5.586   2.925   1.776  0.1000 -1.2193 -1.6913
 7337TIP3    H243503   5.724   2.926   1.838 -0.7543  0.8019  0.2671
 7338TIP3   OH243504   2.841   5.330   5.596  0.1656  0.3541  0.0918
 7338TIP3    H143505   2.904   5.267   5.631 -0.6926 -0.1942  0.6928
 7338TIP3    H243506   2.759   5.310   5.642 -0.4746  0.9744 -0.7470
 7339TIP3   OH243507   4.197   6.215  16.685  0.1321  0.4710  0.1877
 7339TIP3    H143508   4.209   6.175  16.772  1.6710  0.1464 -0.1397
 7339TIP3    H243509   4.169   6.304  16.703  0.1191  0.3090  1.0104
 7340TIP3   OH243510   1.189   6.169  15.804  0.4022 -0.1863 -0.1550
 7340TIP3    H143511   1.278   6.133  15.793 -0.0204 -1.9298  1.5815
 7340TIP3    H243512   1.143   6.143  15.724  0.9956 -0.8205 -0.3018
 7341TIP3   OH243513   2.591   3.635   1.257 -0.4458 -0.4822  0.1785
 7341TIP3    H143514   2.526   3.652   1.189  0.4989 -3.2647 -1.5563
 7341TIP3    H243515   2.675   3.634   1.212  0.4970 -0.0510  1.8291
 7342TIP3   OH243516   2.726   3.752   0.485 -0.7617 -0.2274  0.0751
 7342TIP3    H143517   2.790   3.733   0.416 -1.5803 -0.0181 -0.7595
 7342TIP3    H243518   2.685   3.667   0.503  0.4422 -0.5770  1.3590
 7343TIP3   OH243519   0.936   1.120  13.971 -0.4296  0.1146 -0.0740
 7343TIP3    H143520   0.963   1.209  13.992 -2.1047  1.1246 -1.9524
 7343TIP3    H243521   0.841   1.119  13.982 -0.3188 -1.9140  1.4048
 7344TIP3   OH243522   4.221   5.667   3.730  0.2487  0.3551 -0.0411
 7344TIP3    H143523   4.273   5.732   3.777  1.0728  0.5346 -1.1533
 7344TIP3    H243524   4.141   5.658   3.782  1.6719 -0.4950  2.1320
 7345TIP3   OH243525   4.189   6.418   2.820  0.0033  0.4500 -0.0269
 7345TIP3    H143526   4.242   6.477   2.874  0.2321  0.9374 -0.7661
 7345TIP3    H243527   4.100   6.429   2.854  0.5192 -1.5206  2.2514
 7346TIP3   OH243528   6.814   5.972  14.245  0.5280  0.3184 -0.1636
 7346TIP3    H143529   6.787   6.060  14.273  0.5764 -0.3436  2.1693
 7346TIP3    H243530   6.746   5.914  14.277  1.7879 -0.7621  0.6626
 7347TIP3   OH243531   2.524   5.606  17.134  0.1013 -0.2229 -0.0432
 7347TIP3    H143532   2.504   5.659  17.212 -1.2659  1.2959 -1.3528
 7347TIP3    H243533   2.619   5.612  17.125 -0.0245  2.6704 -0.5060
 7348TIP3   OH243534   1.869   0.958   4.752 -0.1329 -0.2786  0.0222
 7348TIP3    H143535   1.952   0.989   4.786  0.2834 -1.5352  0.1966
 7348TIP3    H243536   1.824   1.037   4.722  1.0370  0.4329  0.0950
 7349TIP3   OH243537   3.852   1.628  13.274 -0.3631 -0.2834  0.2326
 7349TIP3    H143538   3.820   1.675  13.197  0.3417 -2.4148 -1.4851
 7349TIP3    H243539   3.782   1.568  13.297  1.1871 -3.2507 -2.0470
 7350TIP3   OH243540   6.606   0.661  17.003  0.2007 -0.2883 -0.0174
 7350TIP3    H143541   6.665   0.617  17.063 -1.2009 -2.9048 -0.4173
 7350TIP3    H243542   6.615   0.613  16.920 -1.3050  0.2419 -0.5278
 7351TIP3   OH243543   5.328   1.137  12.381 -0.1212  0.0091  0.2186
 7351TIP3    H143544   5.319   1.055  12.332  0.0111  0.6099 -0.8451
 7351TIP3    H243545   5.351   1.202  12.314 -1.5276  1.1867  0.8217
 7352TIP3   OH243546   5.138   1.725  14.245  0.5438 -0.5185  0.6898
 7352TIP3    H143547   5.082   1.719  14.323  0.0571 -1.1107  0.3074
 7352TIP3    H243548   5.108   1.654  14.189  0.9319 -0.1323 -0.0165
 7353TIP3   OH243549   2.179   3.378  12.728  0.3209  0.7976 -0.2974
 7353TIP3    H143550   2.112   3.379  12.795  1.2005 -0.9018  0.6897
 7353TIP3    H243551   2.259   3.406  12.773  1.0865 -1.1156 -0.3517
 7354TIP3   OH243552   2.859   0.439  12.369  0.4879 -0.1799  0.4802
 7354TIP3    H143553   2.898   0.434  12.281  0.1494 -1.1489  0.3670
 7354TIP3    H243554   2.836   0.531  12.380 -0.8010 -0.2666 -1.0589
 7355TIP3   OH243555   3.290   0.388   5.521  0.1878  0.1954 -0.5323
 7355TIP3    H143556   3.226   0.410   5.454  0.3699  1.2146 -0.4001
 7355TIP3    H243557   3.239   0.372   5.600  0.0806  0.9482 -0.4420
 7356TIP3   OH243558   4.918   6.771  11.082  0.2167  0.0392  0.4811
 7356TIP3    H143559   4.869   6.777  11.000  1.4865 -1.9148 -0.4983
 7356TIP3    H243560   4.872   6.830  11.141 -2.7691 -0.9659 -0.6295
 7357TIP3   OH243561   1.150   6.241   0.875  0.4997  0.6003 -0.2539
 7357TIP3    H143562   1.184   6.294   0.802 -2.1651  1.8381 -0.7557
 7357TIP3    H243563   1.133   6.155   0.836  0.5646  0.7808 -0.6954
 7358TIP3   OH243564   6.083   3.273  12.433 -0.0690 -0.4770  0.4729
 7358TIP3    H143565   6.095   3.292  12.525 -2.6867 -2.7554  1.4394
 7358TIP3    H243566   6.016   3.335  12.404  2.6589  2.1056 -0.7870
 7359TIP3   OH243567   2.899   1.720  16.705 -0.0811  0.3104  0.1241
 7359TIP3    H143568   2.929   1.714  16.614 -0.7266 -0.3942 -0.0580
 7359TIP3    H243569   2.804   1.703  16.699 -0.1469  0.3973  0.9130
 7360TIP3   OH243570   6.053   4.696  13.556 -0.1260 -0.0427  0.8250
 7360TIP3    H143571   6.065   4.644  13.477 -1.9369  0.1033  0.4149
 7360TIP3    H243572   6.141   4.709  13.590  0.6252 -0.6787 -0.7974
 7361TIP3   OH243573   4.061   1.298   3.874  0.1870 -0.1001 -0.4419
 7361TIP3    H143574   4.001   1.223   3.881  0.7080 -0.6111 -1.1986
 7361TIP3    H243575   4.073   1.328   3.964 -0.7338 -0.3621 -0.2221
 7362TIP3   OH243576   4.623   6.583  13.699  0.3553  0.1123  0.0191
 7362TIP3    H143577   4.562   6.518  13.734  1.4231 -0.5388  0.7071
 7362TIP3    H243578   4.663   6.541  13.623 -0.5643  0.8200 -0.8982
 7363TIP3   OH243579   0.681   1.302   2.286 -0.5050 -0.0068 -0.1007
 7363TIP3    H143580   0.756   1.312   2.228  0.4131  2.9039  1.3980
 7363TIP3    H243581   0.712   1.242   2.354  0.6185  1.3904  0.6610
 7364TIP3   OH243582   2.967   0.084   3.464  0.7928 -0.2061  0.0695
 7364TIP3    H143583   2.879   0.085   3.502 -0.1718  3.9442 -1.7685
 7364TIP3    H243584   2.972   0.000   3.418 -2.1955 -0.5939  0.2522
 7365TIP3   OH243585   2.997   0.172  12.666  0.5896 -0.0481 -0.3545
 7365TIP3    H143586   3.042   0.162  12.582  0.3075 -0.5268 -0.4535
 7365TIP3    H243587   2.980   0.082  12.695  1.2651  0.1012  0.5395
 7366TIP3   OH243588   3.494   6.287   0.846  0.2176  0.5463 -0.3102
 7366TIP3    H143589   3.573   6.235   0.834  0.9839  1.6424 -0.1974
 7366TIP3    H243590   3.501   6.322   0.935  0.0290  1.3361 -0.5996
 7367TIP3   OH243591   2.624   2.078   5.849  0.2293  0.1229 -0.1892
 7367TIP3    H143592   2.604   2.170   5.837  1.7317  0.3525 -1.1380
 7367TIP3    H243593   2.686   2.075   5.922  0.9704 -0.0252 -0.8154
 7368TIP3   OH243594   6.460   1.371  13.621  0.1038  0.8425 -0.3461
 7368TIP3    H143595   6.519   1.379  13.696 -0.8113  1.5199  0.3273
 7368TIP3    H243596   6.456   1.277  13.604 -0.1468  0.6188  0.8430
 7369TIP3   OH243597   3.088   6.597  13.002  0.0111  0.1043 -0.0292
 7369TIP3    H143598   3.024   6.533  13.034 -0.1270  0.0236 -0.4594
 7369TIP3    H243599   3.082   6.670  13.064 -0.7915  0.2700 -0.2968
 7370TIP3   OH243600   3.107   1.831   1.380 -0.0330  0.4458  0.9967
 7370TIP3    H143601   3.056   1.912   1.375 -0.1543  0.3152 -0.1598
 7370TIP3    H243602   3.190   1.857   1.418 -0.2805  1.0167  1.1569
 7371TIP3   OH243603   0.006   6.377   1.031  0.0743 -0.4671  0.2656
 7371TIP3    H143604  -0.057   6.358   0.962  0.5413  2.9858 -1.3184
 7371TIP3    H243605  -0.048   6.394   1.109 -0.9363  0.9439 -0.6858
 7372TIP3   OH243606   3.292   1.147  15.158 -0.3155  0.3359 -0.3820
 7372TIP3    H143607   3.245   1.113  15.082  0.6625  0.9363 -1.2772
 7372TIP3    H243608   3.369   1.090  15.166  0.0956  0.8778 -0.4441
 7373TIP3   OH243609   0.790   0.121   0.705  0.3698  0.3094  0.7755
 7373TIP3    H143610   0.742   0.137   0.787  1.3846 -1.4447  1.7758
 7373TIP3    H243611   0.722   0.105   0.640 -0.4492  1.0165  1.4284
 7374TIP3   OH243612   6.762   2.534   1.548 -0.1962  0.0419 -0.1564
 7374TIP3    H143613   6.667   2.541   1.554 -0.4517 -1.5957 -1.3633
 7374TIP3    H243614   6.786   2.594   1.477 -0.3919  0.0651 -0.2026
 7375TIP3   OH243615   5.408   5.692  15.580  0.0645  0.1508 -0.0343
 7375TIP3    H143616   5.416   5.741  15.662 -0.0751  0.7351 -0.3714
 7375TIP3    H243617   5.328   5.724  15.540 -1.5622 -2.3018  1.0402
 7376TIP3   OH243618   2.577   1.396  12.942  0.1308 -0.2569  0.1688
 7376TIP3    H143619   2.606   1.305  12.931 -2.6267 -1.2323  0.3472
 7376TIP3    H243620   2.499   1.391  12.997 -0.0637  2.2533  0.2528
 7377TIP3   OH243621   0.452   4.036   3.604 -0.0573  0.0220  0.7672
 7377TIP3    H143622   0.499   4.111   3.567  0.2220 -0.0657  0.9433
 7377TIP3    H243623   0.397   4.074   3.673 -0.7314  0.2149  0.1347
 7378TIP3   OH243624   2.902   1.049  13.853 -0.2113  0.4232 -0.0084
 7378TIP3    H143625   2.971   1.077  13.794  2.2796 -0.9176  2.0874
 7378TIP3    H243626   2.936   0.970  13.895 -2.1390  0.8530  2.6422
 7379TIP3   OH243627   3.516   5.500  14.716 -0.1745 -0.6275 -0.0218
 7379TIP3    H143628   3.493   5.435  14.783  0.9032 -0.0615  0.9336
 7379TIP3    H243629   3.534   5.580  14.766 -3.6293  1.1533 -1.2850
 7380TIP3   OH243630   1.733   6.598   4.709 -0.7325 -0.0398 -0.2045
 7380TIP3    H143631   1.824   6.597   4.679 -0.8706  0.3996 -0.6519
 7380TIP3    H243632   1.739   6.600   4.804 -0.2924 -1.6631 -0.1777
 7381TIP3   OH243633   2.595   0.074  16.332  0.3558  0.6238  0.0389
 7381TIP3    H143634   2.549   0.135  16.391 -1.0781 -0.8960  0.5697
 7381TIP3    H243635   2.536   0.066  16.257  0.6447  0.0702 -0.1249
 7382TIP3   OH243636   0.695   2.072  17.192  0.0275 -0.0846 -0.3086
 7382TIP3    H143637   0.757   2.002  17.212 -0.9295 -0.8368  0.0672
 7382TIP3    H243638   0.652   2.044  17.111  0.2564  0.5052 -0.6465
 7383TIP3   OH243639   3.975   1.478  14.726 -0.0099 -0.3139 -0.1507
 7383TIP3    H143640   4.001   1.566  14.696  1.1339 -0.3021  0.8047
 7383TIP3    H243641   4.055   1.426  14.716  0.0658 -0.5986  1.7385
 7384TIP3   OH243642   1.037   1.115   2.735 -0.5500 -0.1672  0.0108
 7384TIP3    H143643   0.983   1.047   2.694 -2.2712  1.0802  0.0934
 7384TIP3    H243644   0.982   1.193   2.734  1.2083  1.1371  0.3051
 7385TIP3   OH243645   1.042   4.833  17.229  0.0429 -0.5255 -0.5034
 7385TIP3    H143646   1.055   4.927  17.242 -1.9539 -0.3213  0.3497
 7385TIP3    H243647   1.041   4.822  17.134 -3.0541  0.9309 -0.7663
 7386TIP3   OH243648   0.767   2.193   5.447 -0.4630  0.0996 -0.2760
 7386TIP3    H143649   0.834   2.137   5.484  0.2593  1.9790  1.4148
 7386TIP3    H243650   0.687   2.140   5.449  0.3131 -1.0708  0.6639
 7387TIP3   OH243651   4.821   5.162  12.367 -0.4146  0.4857 -0.0804
 7387TIP3    H143652   4.731   5.159  12.402 -0.5994  1.0948 -0.4861
 7387TIP3    H243653   4.809   5.163  12.272  0.0569 -0.2385 -0.1531
 7388TIP3   OH243654   5.115   1.366  17.277  0.2115  0.5324  0.2709
 7388TIP3    H143655   5.181   1.436  17.272  0.3842  0.3185 -0.5624
 7388TIP3    H243656   5.034   1.409  17.251  0.4013  0.3355 -0.7087
 7389TIP3   OH243657   0.467   0.981   2.362 -0.4806 -0.5909  0.0635
 7389TIP3    H143658   0.562   0.974   2.352 -0.2282  1.0217  0.9762
 7389TIP3    H243659   0.432   0.907   2.312  1.1972 -0.6476 -1.1005
 7390TIP3   OH243660   6.396   1.838  12.295  0.6133 -0.5080 -0.1426
 7390TIP3    H143661   6.356   1.857  12.210 -1.9561 -0.4488  0.9980
 7390TIP3    H243662   6.387   1.743  12.305  1.2485 -0.5645 -0.0889
 7391TIP3   OH243663   1.133   2.117   1.293 -0.2799  0.4770  0.2925
 7391TIP3    H143664   1.146   2.053   1.224 -0.2229  0.3432  0.4254
 7391TIP3    H243665   1.213   2.113   1.345  0.3697  1.7099 -0.5440
 7392TIP3   OH243666   0.444   5.630   2.846  0.1974  0.0503 -0.2660
 7392TIP3    H143667   0.387   5.558   2.818  0.2933 -0.7363  1.4001
 7392TIP3    H243668   0.386   5.706   2.849 -0.6685 -0.6198  0.8816
 7393TIP3   OH243669   0.896   4.691   3.711 -0.8799 -0.0384  0.0601
 7393TIP3    H143670   0.969   4.654   3.660 -0.8377 -0.1877  0.2303
 7393TIP3    H243671   0.821   4.686   3.652 -0.4658  1.4063 -0.6510
 7394TIP3   OH243672   5.502   4.176  12.355 -0.2416 -0.0426 -0.0863
 7394TIP3    H143673   5.579   4.124  12.331  1.5478  3.3313 -2.3502
 7394TIP3    H243674   5.536   4.263  12.372 -3.3417  1.0221  1.3632
 7395TIP3   OH243675   3.193   5.058   0.519  0.0611  0.3255  0.2434
 7395TIP3    H143676   3.190   5.119   0.446  1.1461 -0.5278 -0.5328
 7395TIP3    H243677   3.193   5.114   0.597 -1.1333  1.2351 -0.3782
 7396TIP3   OH243678   2.137   3.816  15.227  0.3038 -0.3416 -0.3484
 7396TIP3    H143679   2.146   3.739  15.283  1.0198 -1.9402 -2.4986
 7396TIP3    H243680   2.191   3.795  15.150  1.3311  2.7583 -0.6011
 7397TIP3   OH243681   6.660   2.477  12.768 -0.0468 -0.0245  0.4104
 7397TIP3    H143682   6.741   2.524  12.750  1.0866 -1.6418  1.0544
 7397TIP3    H243683   6.624   2.519  12.846  0.9771 -0.2338  1.0122
 7398TIP3   OH243684   3.713   4.797  14.207 -0.1928  0.6433 -0.0466
 7398TIP3    H143685   3.724   4.705  14.231  2.6712  0.4018 -1.8097
 7398TIP3    H243686   3.626   4.801  14.167 -0.7822 -1.0565  0.9572
 7399TIP3   OH243687   6.772   6.785   0.941 -0.1773  0.0368  0.5129
 7399TIP3    H143688   6.772   6.836   0.860 -2.0396 -0.7639 -0.0343
 7399TIP3    H243689   6.744   6.847   1.008 -0.1913  0.3058  0.2626
 7400TIP3   OH243690   5.040   3.916   4.759 -0.3663 -0.6651  0.3283
 7400TIP3    H143691   5.076   3.993   4.715  0.0661 -1.0622 -0.0318
 7400TIP3    H243692   4.998   3.950   4.838 -0.7664  0.0124 -0.1611
 7401TIP3   OH243693   5.203   5.746  10.674 -0.3749  0.3064 -0.0373
 7401TIP3    H143694   5.253   5.791  10.606  1.2896  1.3756  1.7900
 7401TIP3    H243695   5.135   5.809  10.698 -0.2706  0.3837  0.0560
 7402TIP3   OH243696   5.264   0.689  15.828 -0.1034 -0.2713  0.1597
 7402TIP3    H143697   5.350   0.692  15.868 -0.3967  0.2352  0.7776
 7402TIP3    H243698   5.224   0.608  15.862  0.2270 -0.6509 -0.3479
 7403TIP3   OH243699   5.381   3.037   4.428 -0.2441 -0.6469  0.3929
 7403TIP3    H143700   5.457   3.087   4.399  1.8752 -3.5848  0.3449
 7403TIP3    H243701   5.376   3.053   4.522 -1.7383  2.1335 -0.0638
 7404TIP3   OH243702   1.606   3.785   5.341  0.7173  0.2712 -0.0749
 7404TIP3    H143703   1.638   3.859   5.393 -0.1728 -0.3500  1.4202
 7404TIP3    H243704   1.670   3.715   5.358  0.4456  0.0787  0.1611
 7405TIP3   OH243705   3.668   4.603  13.929  0.1730  0.5297 -0.0025
 7405TIP3    H143706   3.611   4.680  13.917  1.3703  1.4389 -0.0520
 7405TIP3    H243707   3.607   4.531  13.942 -1.0875  1.0662 -2.2181
 7406TIP3   OH243708   0.472   6.038  14.845  0.0474  0.0683  0.8834
 7406TIP3    H143709   0.554   6.042  14.895  0.4242 -0.4084  0.3162
 7406TIP3    H243710   0.456   5.944  14.833 -0.0702  0.1776  0.1582
 7407TIP3   OH243711   2.432   6.490  11.587 -0.2801  0.2968 -0.2638
 7407TIP3    H143712   2.423   6.508  11.680 -0.4453  1.4326 -0.4843
 7407TIP3    H243713   2.480   6.407  11.583 -0.8682 -0.1278  0.8290
 7408TIP3   OH243714   3.821   5.651  17.104 -0.3632 -0.3599  0.3045
 7408TIP3    H143715   3.782   5.580  17.155 -1.3688  1.4705  2.2434
 7408TIP3    H243716   3.904   5.669  17.149 -1.3403  1.3862  1.5219
 7409TIP3   OH243717   4.198   3.568  15.998  0.5173  0.6797 -0.1378
 7409TIP3    H143718   4.103   3.563  16.012  0.5004  1.6199  0.1425
 7409TIP3    H243719   4.223   3.478  15.975 -0.2840  0.2081  0.7289
 7410TIP3   OH243720   1.512   6.039   1.329 -0.0127 -0.4600 -0.1028
 7410TIP3    H143721   1.424   6.027   1.364  0.3171 -0.8407  0.6377
 7410TIP3    H243722   1.542   5.950   1.310  0.1843 -0.3266 -0.4215
 7411TIP3   OH243723   1.233   6.647  16.565  0.3103  0.3900  0.3114
 7411TIP3    H143724   1.254   6.612  16.479 -1.0058 -0.6203  0.3791
 7411TIP3    H243725   1.283   6.729  16.570  0.4843  0.4198 -1.3604
 7412TIP3   OH243726   0.674   1.650  16.105  0.5434 -0.5505 -0.2293
 7412TIP3    H143727   0.747   1.607  16.060  0.0727 -0.5245 -1.0513
 7412TIP3    H243728   0.686   1.628  16.197  1.1705 -1.1627 -0.4465
 7413TIP3   OH243729   6.778   1.938  12.924 -0.0563 -0.6175  0.1086
 7413TIP3    H143730   6.866   1.977  12.920  0.4461 -1.6822  0.5578
 7413TIP3    H243731   6.729   1.985  12.856  0.7373  0.2797  0.1284
 7414TIP3   OH243732   4.222   5.223   6.658 -0.3345  0.2567 -0.4782
 7414TIP3    H143733   4.235   5.131   6.679  0.2985  0.0827 -1.5526
 7414TIP3    H243734   4.143   5.248   6.706  0.0864 -0.5530  0.6686
 7415TIP3   OH243735   4.593   5.392   5.226 -0.5681  1.2597 -0.3013
 7415TIP3    H143736   4.602   5.359   5.137  0.2300  2.0893 -0.5400
 7415TIP3    H243737   4.673   5.442   5.241 -0.6951  1.1273  0.8833
 7416TIP3   OH243738   4.528   2.808  11.055  0.0367  0.5251  0.5682
 7416TIP3    H143739   4.612   2.827  11.012 -0.0499 -0.0366  0.1451
 7416TIP3    H243740   4.463   2.818  10.986 -0.2027  0.5530  0.7974
 7417TIP3   OH243741   4.222   3.304  13.078  0.6169 -0.3073 -0.1587
 7417TIP3    H143742   4.174   3.385  13.093  0.7649 -0.0796 -0.9146
 7417TIP3    H243743   4.220   3.260  13.163 -0.7284 -0.1978 -0.1096
 7418TIP3   OH243744   4.274   0.727  17.101  0.3531 -0.1335 -0.0328
 7418TIP3    H143745   4.349   0.706  17.045 -0.8416  1.7290 -2.5204
 7418TIP3    H243746   4.271   0.655  17.164  1.7304 -2.5037 -2.4461
 7419TIP3   OH243747   5.319   1.546   3.161  0.0075 -0.2567 -0.6259
 7419TIP3    H143748   5.310   1.641   3.155  0.0334 -0.2132 -0.0356
 7419TIP3    H243749   5.230   1.513   3.156 -0.0830 -0.1401  0.1275
 7420TIP3   OH243750   2.012   0.082   5.698 -0.7422  0.7002 -0.4453
 7420TIP3    H143751   1.986   0.170   5.674 -1.5569  1.4912  2.8112
 7420TIP3    H243752   1.931   0.032   5.697 -0.6120  0.4862 -0.4428
 7421TIP3   OH243753   5.586   2.046   6.316 -0.3576  0.3384 -0.7743
 7421TIP3    H143754   5.572   2.075   6.406 -2.1192 -2.0199 -0.1899
 7421TIP3    H243755   5.610   1.954   6.323 -0.1902  0.1766 -2.7205
 7422TIP3   OH243756   4.756   0.568   2.118 -0.7009  0.0857 -0.6619
 7422TIP3    H143757   4.822   0.619   2.165 -0.9516 -1.9118  2.1289
 7422TIP3    H243758   4.673   0.609   2.141 -0.6754  0.6413 -1.5180
 7423TIP3   OH243759   0.387   4.373   0.577 -0.1005 -0.2155  0.1391
 7423TIP3    H143760   0.428   4.395   0.661 -0.3943  1.0128 -0.0166
 7423TIP3    H243761   0.460   4.347   0.521  0.2410  0.0577  0.4462
 7424TIP3   OH243762   4.976   2.989   1.315  0.0693  0.7415  0.1105
 7424TIP3    H143763   4.942   3.078   1.307 -0.1336  0.5798 -0.9565
 7424TIP3    H243764   5.019   2.973   1.231  3.3082  1.1303  1.5659
 7425TIP3   OH243765   4.215   6.476  11.671 -0.1379  0.3753 -0.2693
 7425TIP3    H143766   4.209   6.491  11.765  1.2733 -2.1707  0.3168
 7425TIP3    H243767   4.236   6.562  11.634 -1.6888  1.6185  1.5799
 7426TIP3   OH243768   3.462   0.219   3.172 -0.6647 -0.0112  0.3219
 7426TIP3    H143769   3.454   0.127   3.197 -0.7229 -0.4652 -1.2987
 7426TIP3    H243770   3.380   0.240   3.127 -0.1537  0.4621 -0.4222
 7427TIP3   OH243771   2.288   5.499   3.684 -0.1836  0.4299  0.0449
 7427TIP3    H143772   2.272   5.533   3.596  0.0003  0.0558 -0.1312
 7427TIP3    H243773   2.372   5.454   3.678  0.2322  1.0988  0.6101
 7428TIP3   OH243774   0.721   1.381  13.243  0.3743  0.2821  0.3350
 7428TIP3    H143775   0.712   1.303  13.189 -0.0859  1.0700 -0.7801
 7428TIP3    H243776   0.691   1.354  13.330  1.2440 -1.0481  0.2440
 7429TIP3   OH243777   5.653   5.471  12.551 -0.1342 -1.2005 -0.6800
 7429TIP3    H143778   5.623   5.388  12.587  1.5397 -2.5021 -2.0705
 7429TIP3    H243779   5.584   5.534  12.571 -1.1321 -2.7758  1.0030
 7430TIP3   OH243780   2.925   1.041   1.390  0.0529  0.4684 -0.2055
 7430TIP3    H143781   3.018   1.040   1.411 -0.2412 -1.3844  1.3008
 7430TIP3    H243782   2.921   1.055   1.296  1.7576  2.3881 -0.0622
 7431TIP3   OH243783   2.427   2.814  12.023  0.2352 -0.0740  0.9870
 7431TIP3    H143784   2.336   2.844  12.027  0.2337  0.0879  0.0308
 7431TIP3    H243785   2.474   2.885  11.979  0.8046 -0.2173  1.3502
 7432TIP3   OH243786   5.796   0.115  11.309 -0.0793  0.4762 -0.0248
 7432TIP3    H143787   5.780   0.135  11.217  1.2786  0.9436 -0.1762
 7432TIP3    H243788   5.860   0.044  11.308 -1.6706 -1.0208  0.5646
 7433TIP3   OH243789   5.366   1.626  13.162  0.2316 -0.0738 -0.6815
 7433TIP3    H143790   5.460   1.627  13.146  0.2635  1.9805 -0.6277
 7433TIP3    H243791   5.357   1.657  13.252 -0.4572 -1.7041 -0.1441
 7434TIP3   OH243792   5.556   0.732   6.079 -0.1527 -0.1882  0.4981
 7434TIP3    H143793   5.560   0.705   6.171 -1.3192 -0.1407  0.5790
 7434TIP3    H243794   5.504   0.663   6.037  1.0379 -0.6294 -0.2977
 7435TIP3   OH243795   1.284   6.387  12.139 -0.1360 -0.2751  0.8122
 7435TIP3    H143796   1.271   6.340  12.057 -0.7336  2.4570 -0.7690
 7435TIP3    H243797   1.242   6.472  12.126  0.8076  0.7300  3.5079
 7436TIP3   OH243798   4.273   5.961   1.147  0.1327  0.0311 -0.5681
 7436TIP3    H143799   4.193   6.000   1.111 -1.8289 -0.4869  2.8002
 7436TIP3    H243800   4.242   5.892   1.205  2.9895  0.2628  1.4385
 7437TIP3   OH243801   2.645   6.002   0.160 -0.1307 -0.0491 -0.5326
 7437TIP3    H143802   2.653   5.911   0.189 -1.7417 -0.2239 -0.5555
 7437TIP3    H243803   2.735   6.030   0.145  0.6905 -0.6355  2.4994
 7438TIP3   OH243804   3.115   1.705   0.014  0.0014 -0.2334 -0.7134
 7438TIP3    H143805   3.145   1.768   0.079  0.8923 -0.7667 -0.5807
 7438TIP3    H243806   3.020   1.700   0.027  0.0542  0.3123 -0.0463
 7439TIP3   OH243807   6.040   6.408  12.913 -0.0551  0.1748  0.0168
 7439TIP3    H143808   5.959   6.361  12.932 -0.0871  0.2624  0.0998
 7439TIP3    H243809   6.047   6.472  12.984  0.6546 -0.5724  0.6347
 7440TIP3   OH243810   3.026   1.738   3.256  0.0412 -0.3109 -0.4460
 7440TIP3    H143811   3.069   1.757   3.172  0.5313 -0.2831 -0.1932
 7440TIP3    H243812   3.027   1.821   3.303  0.8918 -0.6057  0.0821
 7441TIP3   OH243813   0.971   0.210   5.764  0.5340 -0.3160 -0.6970
 7441TIP3    H143814   1.001   0.120   5.776 -1.1058 -0.6450  1.6520
 7441TIP3    H243815   0.876   0.204   5.767  0.3863  1.6519  1.4045
 7442TIP3   OH243816   0.953   1.413   5.772  0.1186 -0.4230  0.2712
 7442TIP3    H143817   0.934   1.442   5.861  1.9857 -0.7660  0.8350
 7442TIP3    H243818   1.002   1.332   5.783  0.1896 -0.5917 -1.0764
 7443TIP3   OH243819   6.670   5.706  10.820  0.9311 -0.1623  0.7588
 7443TIP3    H143820   6.606   5.648  10.860  1.1862 -0.9532  0.0247
 7443TIP3    H243821   6.622   5.787  10.803  0.4342 -0.3434  1.2566
 7444TIP3   OH243822   1.482   2.899  12.894  0.1354  0.1546  0.6810
 7444TIP3    H143823   1.571   2.902  12.858 -0.2353 -0.0129 -0.2888
 7444TIP3    H243824   1.431   2.953  12.834 -0.9029 -1.7681 -0.2602
 7445TIP3   OH243825   6.000   3.877  11.376  0.6231 -0.3227 -0.0513
 7445TIP3    H143826   6.035   3.868  11.464 -0.0787  1.2799  0.4247
 7445TIP3    H243827   5.908   3.851  11.384  0.3635  0.5508 -0.1405
 7446TIP3   OH243828   5.122   3.680  14.286 -0.2575  0.7173  0.0013
 7446TIP3    H143829   5.201   3.723  14.251 -1.1033  1.3610 -1.1756
 7446TIP3    H243830   5.068   3.662  14.209 -0.8478 -0.6045  0.6990
 7447TIP3   OH243831   5.341   6.483  12.990  0.2587 -0.3560 -0.4897
 7447TIP3    H143832   5.392   6.439  12.923 -1.8224 -3.0752 -0.4694
 7447TIP3    H243833   5.286   6.415  13.027 -2.5487  2.0830  0.2609
 7448TIP3   OH243834   2.774   0.726   2.062  0.5246 -0.2919  0.2902
 7448TIP3    H143835   2.770   0.700   2.154 -0.8997 -0.7281  0.1374
 7448TIP3    H243836   2.688   0.765   2.044  1.6047  2.0162 -0.2416
 7449TIP3   OH243837   1.816   4.440  12.819  0.5296  0.2632  0.0587
 7449TIP3    H143838   1.871   4.425  12.742  1.0261  0.9323  0.2699
 7449TIP3    H243839   1.747   4.499  12.788  1.6296  1.8286  0.4723
 7450TIP3   OH243840   1.600   6.714  12.467  0.0887  0.5224 -0.1234
 7450TIP3    H143841   1.529   6.777  12.467  0.2355  0.7585 -2.3146
 7450TIP3    H243842   1.678   6.765  12.446 -0.0344 -0.4588 -3.7816
 7451TIP3   OH243843   3.884   6.626  13.383 -0.1301 -0.8281 -0.1525
 7451TIP3    H143844   3.881   6.535  13.413  1.4622 -0.3125  1.7793
 7451TIP3    H243845   3.952   6.626  13.315  0.4504 -0.9682  0.4094
 7452TIP3   OH243846   0.531   3.897  16.038  0.0821  0.0555 -0.0301
 7452TIP3    H143847   0.550   3.983  15.998  0.6320  0.2502  0.6149
 7452TIP3    H243848   0.492   3.919  16.122 -0.5749 -0.3453 -0.2300
 7453TIP3   OH243849   3.767   6.355   4.020  0.5928 -0.4943 -0.6567
 7453TIP3    H143850   3.717   6.406   3.956  1.7127  2.1076  0.3861
 7453TIP3    H243851   3.701   6.314   4.075 -0.3970  0.7776 -0.8609
 7454TIP3   OH243852   4.063   2.326   2.553 -0.2627 -0.0715 -0.0241
 7454TIP3    H143853   4.145   2.278   2.552  0.8564  1.7296 -1.5847
 7454TIP3    H243854   4.036   2.331   2.462 -1.4666  0.4039  0.3352
 7455TIP3   OH243855   6.450   4.603  13.359 -0.9058  0.3084 -0.2860
 7455TIP3    H143856   6.503   4.647  13.425 -1.6347 -0.9894  1.2239
 7455TIP3    H243857   6.412   4.529  13.404 -1.3912 -0.6810 -2.2007
 7456TIP3   OH243858   0.083   1.075   0.093 -0.0917 -0.3328  0.2684
 7456TIP3    H143859   0.009   1.084   0.152  0.0498 -0.0222  0.4004
 7456TIP3    H243860   0.128   0.995   0.122 -0.0691 -0.2244  0.5282
 7457TIP3   OH243861   3.114   2.929  12.830  0.4703  0.2635 -0.3993
 7457TIP3    H143862   3.029   2.889  12.848 -0.5415  2.0481 -1.0306
 7457TIP3    H243863   3.126   2.918  12.735  1.5208 -0.9779 -0.1649
 7458TIP3   OH243864   4.958   5.160   3.817 -0.4598  0.1887  0.6028
 7458TIP3    H143865   5.030   5.222   3.806 -0.3418  0.3333  1.9788
 7458TIP3    H243866   4.909   5.194   3.893 -3.0729  1.1161 -1.3590
 7459TIP3   OH243867   1.358   0.101  10.284  0.3633  0.5677 -0.4990
 7459TIP3    H143868   1.340   0.025  10.228  1.1676  1.2367 -1.7318
 7459TIP3    H243869   1.282   0.108  10.341 -1.6961  1.2496 -3.1196
 7460TIP3   OH243870   1.983   4.007  14.119 -0.3089  0.6165 -0.0422
 7460TIP3    H143871   1.992   4.021  14.213  1.4866  1.1627 -0.2423
 7460TIP3    H243872   1.943   3.920  14.111  0.1159  0.2849  1.2261
 7461TIP3   OH243873   0.999   3.954   3.700 -0.0397  0.0616 -0.2117
 7461TIP3    H143874   0.913   3.933   3.663  0.3048  1.5539 -2.0087
 7461TIP3    H243875   0.994   3.925   3.791 -0.8617 -4.1183 -1.3948
 7462TIP3   OH243876   0.757   2.731   1.193  0.8160 -0.8978 -0.4013
 7462TIP3    H143877   0.736   2.767   1.107 -0.5242  0.0104  0.2687
 7462TIP3    H243878   0.711   2.788   1.254  1.7299 -1.5404  0.9253
 7463TIP3   OH243879   5.477   5.323   5.923 -0.0919 -0.3077 -0.7985
 7463TIP3    H143880   5.538   5.267   5.874  0.3210 -0.1636 -0.4554
 7463TIP3    H243881   5.432   5.264   5.982  0.7652 -0.2064 -0.0169
 7464TIP3   OH243882   6.205   1.701   4.529 -0.7466  0.0024 -0.3083
 7464TIP3    H143883   6.249   1.630   4.483 -1.3650 -0.1870 -0.6171
 7464TIP3    H243884   6.114   1.671   4.540 -0.7180  0.2181  0.6609
 7465TIP3   OH243885   4.954   5.328  13.551  0.3285 -0.3411 -0.3294
 7465TIP3    H143886   4.995   5.381  13.483  1.1275 -0.3637  0.1297
 7465TIP3    H243887   4.981   5.369  13.634  0.0568 -0.8098 -0.0010
 7466TIP3   OH243888   3.703   4.858   3.981 -0.2257 -0.1245  0.5029
 7466TIP3    H143889   3.717   4.946   4.014 -0.9271 -0.0453  0.6137
 7466TIP3    H243890   3.608   4.848   3.980 -0.2472 -0.1024 -1.5714
 7467TIP3   OH243891   2.476   2.671   0.766 -0.7864  0.1053  0.3701
 7467TIP3    H143892   2.428   2.687   0.847 -0.0922 -0.8194  0.9775
 7467TIP3    H243893   2.464   2.751   0.715 -2.5477  0.0809  0.7054
 7468TIP3   OH243894   5.678   2.538   4.324 -0.0906 -0.7165 -0.2641
 7468TIP3    H143895   5.591   2.579   4.318  0.0120 -0.6978 -2.1675
 7468TIP3    H243896   5.737   2.610   4.345 -0.3818 -0.5372 -0.0526
 7469TIP3   OH243897   1.448   0.172  15.160  0.2574  0.0802 -0.3504
 7469TIP3    H143898   1.534   0.132  15.152  0.7079  0.5752  1.4261
 7469TIP3    H243899   1.387   0.098  15.159  0.7578 -0.3373 -0.8257
 7470TIP3   OH243900   3.280   2.955  15.359  0.1380 -0.0665  0.3463
 7470TIP3    H143901   3.356   2.958  15.416  0.2755  0.3464  0.1412
 7470TIP3    H243902   3.209   2.995  15.411  0.2028  0.0876  0.3140
 7471TIP3   OH243903   2.845   3.722  12.311  0.3257  0.4085  0.0249
 7471TIP3    H143904   2.828   3.717  12.217 -0.0891  0.2276  0.1045
 7471TIP3    H243905   2.871   3.813  12.326 -0.1447  0.5834 -0.1859
 7472TIP3   OH243906   4.823   1.778   3.023  0.0147 -0.2680  0.4004
 7472TIP3    H143907   4.777   1.847   3.072 -1.1922  1.4819 -2.9151
 7472TIP3    H243908   4.756   1.710   3.012 -0.0475 -0.1839  0.2604
 7473TIP3   OH243909   1.918   6.298   1.794  0.4696 -0.5570  0.1053
 7473TIP3    H143910   1.928   6.210   1.758  2.1444 -0.1971 -0.3994
 7473TIP3    H243911   1.856   6.287   1.867 -0.4474 -1.8767 -0.8293
 7474TIP3   OH243912   2.423   2.461   0.486  0.4298  0.3055 -0.2142
 7474TIP3    H143913   2.403   2.416   0.568  1.7456 -0.6828 -0.4146
 7474TIP3    H243914   2.339   2.499   0.459  0.1259  1.3743  1.9826
 7475TIP3   OH243915   5.132   2.324  16.005 -0.5414 -1.0004  0.1048
 7475TIP3    H143916   5.164   2.354  16.090 -0.7976  1.2412 -0.5142
 7475TIP3    H243917   5.039   2.347  16.005 -0.1640  0.7408 -1.4200
 7476TIP3   OH243918   0.508   1.111  10.952 -0.1673 -0.0612 -0.0884
 7476TIP3    H143919   0.433   1.066  10.912  0.5342 -2.3243  0.9440
 7476TIP3    H243920   0.583   1.057  10.928  0.6184  0.0634  1.8871
 7477TIP3   OH243921   3.275   4.887  16.543  0.4650  0.2255 -0.4331
 7477TIP3    H143922   3.238   4.933  16.617  1.6687  0.8057 -0.1709
 7477TIP3    H243923   3.245   4.936  16.466  2.9417  2.4673 -0.1104
 7478TIP3   OH243924   0.388   1.458  15.326 -0.2892 -0.7845  0.1164
 7478TIP3    H143925   0.304   1.445  15.369 -0.5636 -0.3211 -0.2698
 7478TIP3    H243926   0.443   1.387  15.359  0.3613  1.0169  3.2682
 7479TIP3   OH243927   4.448   4.835   6.514  0.0381  0.1417  0.3123
 7479TIP3    H143928   4.446   4.924   6.479 -0.4271  0.5523  1.3464
 7479TIP3    H243929   4.502   4.786   6.451  0.5101  1.2020 -0.1385
 7480TIP3   OH243930   2.750   3.574  16.758  0.0438 -0.2315 -0.2278
 7480TIP3    H143931   2.657   3.595  16.750  0.1398 -0.1948 -1.3118
 7480TIP3    H243932   2.789   3.654  16.794 -0.0076  0.5623 -1.8613
 7481TIP3   OH243933   3.548   3.516  11.108 -0.0789 -0.1523  0.3323
 7481TIP3    H143934   3.547   3.528  11.203  2.5637  0.9554  0.3035
 7481TIP3    H243935   3.531   3.604  11.073  1.2827 -0.0472 -0.1418
 7482TIP3   OH243936   3.345   3.349   4.384  0.2674 -0.3934  0.2704
 7482TIP3    H143937   3.360   3.292   4.308 -2.0065 -0.2876 -0.3300
 7482TIP3    H243938   3.376   3.298   4.459  0.2060 -1.5549 -0.4660
 7483TIP3   OH243939   3.803   3.964   6.040  0.0282 -0.5346 -0.1591
 7483TIP3    H143940   3.889   3.998   6.063 -0.5880  0.8956  0.1636
 7483TIP3    H243941   3.772   4.023   5.971 -0.6165 -1.1506 -0.4070
 7484TIP3   OH243942   2.704   4.344  14.004  0.0874 -0.3554 -0.0904
 7484TIP3    H143943   2.657   4.426  13.986 -0.5060 -0.7389 -0.3500
 7484TIP3    H243944   2.757   4.330  13.925 -0.6560 -0.7820 -0.5281
 7485TIP3   OH243945   4.860   0.001  15.095 -0.1463  0.0285  0.5779
 7485TIP3    H143946   4.863   0.021  15.001 -0.3816 -0.2862  0.5007
 7485TIP3    H243947   4.840   0.084  15.137  3.2602  0.9651  0.6547
 7486TIP3   OH243948   0.267   4.032  17.016  0.3008  0.3398  0.1025
 7486TIP3    H143949   0.254   3.939  16.999  1.1381 -0.0087  1.2497
 7486TIP3    H243950   0.278   4.071  16.929 -1.5503 -0.3732 -0.4892
 7487TIP3   OH243951   6.422   1.340  15.363  0.1552 -0.0805 -0.0998
 7487TIP3    H143952   6.400   1.247  15.364  2.4066 -0.7267 -2.0821
 7487TIP3    H243953   6.341   1.384  15.388 -1.0990 -2.5303  0.4370
 7488TIP3   OH243954   2.442   0.529  12.257 -0.1439  0.0682 -0.2642
 7488TIP3    H143955   2.429   0.472  12.181 -0.7646 -0.5475  0.2857
 7488TIP3    H243956   2.427   0.473  12.333  0.3774  0.6931  0.3228
 7489TIP3   OH243957   4.684   5.272  13.450  0.3854  0.4208 -0.2610
 7489TIP3    H143958   4.625   5.347  13.440  0.5073  0.7773  1.4604
 7489TIP3    H243959   4.763   5.309  13.490  0.7656 -0.4920 -0.1550
 7490TIP3   OH243960   4.116   4.399  14.478  0.1366 -0.7054  0.4503
 7490TIP3    H143961   4.074   4.480  14.508  2.0916 -0.1475  1.8084
 7490TIP3    H243962   4.049   4.332  14.492 -0.8771  0.3711  1.0347
 7491TIP3   OH243963   1.430   3.273   4.642  0.1394  0.4255  0.6415
 7491TIP3    H143964   1.455   3.329   4.715  1.5750  0.9565 -0.2228
 7491TIP3    H243965   1.392   3.332   4.577 -1.7053 -0.1191  1.1399
 7492TIP3   OH243966   5.335   1.088  15.312  0.4143 -0.2700 -0.1118
 7492TIP3    H143967   5.360   1.171  15.272 -1.1717  0.5642  0.5486
 7492TIP3    H243968   5.406   1.028  15.289 -0.0282  0.3089 -3.5482
 7493TIP3   OH243969   3.951   2.846   1.671  0.0969 -0.5337  0.3328
 7493TIP3    H143970   3.885   2.797   1.622 -0.9280  1.0858  0.0211
 7493TIP3    H243971   3.947   2.809   1.760 -0.2900 -1.3251 -0.0011
 7494TIP3   OH243972   5.861   1.221  11.982  0.2735  0.5722  0.1414
 7494TIP3    H143973   5.927   1.226  12.051  1.4288  2.0665 -0.9994
 7494TIP3    H243974   5.911   1.232  11.901 -1.1619 -0.1993 -0.8898
 7495TIP3   OH243975   6.533   6.121  14.241 -0.0948 -0.1371 -0.3032
 7495TIP3    H143976   6.524   6.208  14.203 -1.1875 -0.5066 -0.9300
 7495TIP3    H243977   6.446   6.100  14.274  0.1272 -1.0350 -0.2523
 7496TIP3   OH243978   6.647   4.617  17.268 -1.3685 -0.1230 -0.7905
 7496TIP3    H143979   6.626   4.613  17.175 -0.3304  0.6937 -1.0799
 7496TIP3    H243980   6.585   4.681  17.304 -0.2307  1.3922 -1.4117
 7497TIP3   OH243981   6.269   3.373  13.336 -0.4173 -0.0312 -0.1326
 7497TIP3    H143982   6.265   3.467  13.318  1.4163  0.3682  1.2640
 7497TIP3    H243983   6.298   3.334  13.253  1.2921  0.9724 -0.0538
 7498TIP3   OH243984   5.644   2.421  15.902  0.5644 -0.2766  0.4081
 7498TIP3    H143985   5.648   2.458  15.990 -0.0905 -0.9831  0.7452
 7498TIP3    H243986   5.735   2.405  15.879  0.9953  2.5019 -0.1901
 7499TIP3   OH243987   1.152   1.002  14.572 -0.5974  0.5362 -0.5199
 7499TIP3    H143988   1.201   1.066  14.625  1.7900 -0.9011 -0.8296
 7499TIP3    H243989   1.174   1.024  14.481 -0.3226 -0.2583 -0.6567
 7500TIP3   OH243990   5.095   6.246  11.500  0.1232 -0.3411  0.0394
 7500TIP3    H143991   5.054   6.323  11.539 -0.0370 -0.6214  0.4358
 7500TIP3    H243992   5.044   6.229  11.421  2.1166  1.8517 -1.8232
 7501TIP3   OH243993   1.233   2.783  12.549 -0.1447  0.0919  0.1292
 7501TIP3    H143994   1.202   2.771  12.460  0.9997  0.0781 -0.2821
 7501TIP3    H243995   1.319   2.741  12.551  1.2395  2.7150  0.3634
 7502TIP3   OH243996   1.883   0.632   6.022  0.1671 -0.4191 -0.0663
 7502TIP3    H143997   1.856   0.644   5.931 -0.4561 -2.3923 -0.2131
 7502TIP3    H243998   1.808   0.588   6.063 -0.0600  1.5119  1.7413
 7503TIP3   OH243999   6.509   1.941  14.989 -0.4245  0.1737  0.4480
 7503TIP3    H144000   6.510   2.005  14.918  1.8980 -0.3241 -0.0571
 7503TIP3    H244001   6.591   1.892  14.978 -0.0923 -0.0712  3.3368
 7504TIP3   OH244002   5.450   3.118  12.766  0.2587  0.6200  0.1214
 7504TIP3    H144003   5.470   3.184  12.833  1.7266  0.9169 -0.5616
 7504TIP3    H244004   5.358   3.097  12.780  0.2048  1.5808  1.4357
 7505TIP3   OH244005   3.682   6.654  11.971  0.0062  0.0392 -0.0266
 7505TIP3    H144006   3.776   6.639  11.979 -0.0372 -0.3937 -0.3228
 7505TIP3    H244007   3.657   6.696  12.053  0.6634  1.1843 -0.3810
 7506TIP3   OH244008   1.803   3.158   2.206  0.5095 -0.1911  0.7619
 7506TIP3    H144009   1.793   3.228   2.271  2.5809 -0.2133  1.1656
 7506TIP3    H244010   1.757   3.191   2.129 -0.2441  0.7428  1.5809
 7507TIP3   OH244011   3.419   2.406  12.648  0.3145  0.0149  0.4110
 7507TIP3    H144012   3.391   2.422  12.558 -2.2124 -1.2643  0.8536
 7507TIP3    H244013   3.428   2.311  12.653 -0.8667 -0.0611  1.7818
 7508TIP3   OH244014   3.151   3.025   1.525  0.2051 -0.0127 -0.2246
 7508TIP3    H144015   3.188   3.063   1.605  0.0556  0.4013 -0.3480
 7508TIP3    H244016   3.227   2.989   1.478  0.5157  1.1429 -0.6419
 7509TIP3   OH244017   0.752   5.475  13.150  0.3956  1.1486  0.4898
 7509TIP3    H144018   0.809   5.437  13.217  0.5667  2.2615  0.9937
 7509TIP3    H244019   0.671   5.494  13.196  0.2180  1.1530  0.1735
 7510TIP3   OH244020   0.647   3.645   6.253  0.2355 -0.2822  0.3669
 7510TIP3    H144021   0.596   3.706   6.305  0.1288 -1.0009  1.1240
 7510TIP3    H244022   0.650   3.565   6.305 -1.3632 -1.6318 -1.4906
 7511TIP3   OH244023   5.402   1.834   2.932 -0.4338  0.3129  0.2463
 7511TIP3    H144024   5.380   1.742   2.918 -1.5503  0.7793 -1.3726
 7511TIP3    H244025   5.488   1.845   2.891 -0.6741  0.1642 -0.3038
 7512TIP3   OH244026   3.994   4.773  13.216 -0.1624  0.3552  0.8726
 7512TIP3    H144027   4.038   4.802  13.135  0.2559  0.5283  1.1562
 7512TIP3    H244028   3.923   4.835  13.228  0.6268  1.1920  1.3839
 7513TIP3   OH244029   0.262   2.048   5.571  0.3256 -0.1066 -0.4958
 7513TIP3    H144030   0.240   2.059   5.664  0.4313 -2.4618 -0.1497
 7513TIP3    H244031   0.195   2.098   5.525 -0.5257  0.0042  0.8131
 7514TIP3   OH244032   3.129   1.599  16.156 -0.1070  0.0305  0.0754
 7514TIP3    H144033   3.186   1.612  16.080  0.6294 -0.0246  0.6079
 7514TIP3    H244034   3.041   1.589  16.119  0.5174 -2.2582 -0.9583
 7515TIP3   OH244035   1.318   0.749   0.583 -0.0925 -0.0044  0.0613
 7515TIP3    H144036   1.246   0.688   0.592  0.1511 -0.2588  0.2884
 7515TIP3    H244037   1.379   0.706   0.524  0.3894 -0.2735  0.7464
 7516TIP3   OH244038   6.057   6.454   4.322 -0.1771 -0.1717  0.2132
 7516TIP3    H144039   6.101   6.537   4.340 -0.0361  0.0088 -0.9155
 7516TIP3    H244040   5.964   6.472   4.341 -0.6305  1.1548 -2.7361
 7517TIP3   OH244041   4.748   4.684  15.110 -0.1627 -0.5735  0.1661
 7517TIP3    H144042   4.664   4.690  15.155  0.0978  2.1552  0.4743
 7517TIP3    H244043   4.813   4.696  15.180  0.3184  1.1809 -0.5296
 7518TIP3   OH244044   4.855   2.942  11.932 -0.4631 -0.2548 -0.0986
 7518TIP3    H144045   4.840   3.022  11.982 -2.1347 -0.5061 -0.1343
 7518TIP3    H244046   4.811   2.957  11.849 -0.5495 -1.1072 -0.2141
 7519TIP3   OH244047   5.737   3.208  11.061  0.0758  0.2270 -0.1089
 7519TIP3    H144048   5.688   3.287  11.036 -2.6359 -1.5678 -0.8824
 7519TIP3    H244049   5.772   3.174  10.979  0.1357 -0.0714  0.0398
 7520TIP3   OH244050   5.899   5.350   2.298 -0.2214  0.3608 -0.2323
 7520TIP3    H144051   5.806   5.344   2.276 -0.2590 -0.4384  0.1333
 7520TIP3    H244052   5.902   5.348   2.393  0.0988  1.6644 -0.1872
 7521TIP3   OH244053   2.590   0.543   0.807  0.7238  0.1783 -0.3632
 7521TIP3    H144054   2.517   0.486   0.786 -0.1367  0.4449  1.7127
 7521TIP3    H244055   2.564   0.589   0.887  2.4195  1.6206 -0.5537
 7522TIP3   OH244056   1.193   3.242  13.698 -0.0684 -1.0729 -0.2721
 7522TIP3    H144057   1.184   3.272  13.788 -1.6684 -2.1706 -0.0262
 7522TIP3    H244058   1.104   3.226  13.669  0.4065 -0.5883 -2.1312
 7523TIP3   OH244059   1.201   1.394   0.127  0.4767  0.3119  0.3261
 7523TIP3    H144060   1.282   1.385   0.077  0.9841 -0.2107  1.2142
 7523TIP3    H244061   1.170   1.482   0.106  1.4806  0.6664  0.2716
 7524TIP3   OH244062   1.036   5.644   6.097  0.5981  0.5981 -0.0193
 7524TIP3    H144063   1.112   5.685   6.056  2.0499 -1.7135  0.1426
 7524TIP3    H244064   1.071   5.563   6.135 -2.3917 -1.9161 -2.1468
 7525TIP3   OH244065   3.302   2.514  15.305  0.0346 -0.8289  0.0262
 7525TIP3    H144066   3.270   2.598  15.271  1.1282 -0.6966 -0.7338
 7525TIP3    H244067   3.237   2.450  15.278 -1.4016 -0.1069  1.5685
 7526TIP3   OH244068   5.364   0.730  12.493 -0.4940 -0.4320 -0.3458
 7526TIP3    H144069   5.367   0.646  12.447 -0.9722  0.5753 -2.3102
 7526TIP3    H244070   5.406   0.792  12.433  0.0122  0.7309  1.1386
 7527TIP3   OH244071   1.570   1.335  12.926  1.0536 -0.3350 -0.1678
 7527TIP3    H144072   1.574   1.264  12.990 -0.4005  0.3780  0.7640
 7527TIP3    H244073   1.659   1.344  12.894  1.3306 -2.3282 -0.0322
 7528TIP3   OH244074   6.627   4.352  15.654  0.6353  0.2766  0.5727
 7528TIP3    H144075   6.663   4.301  15.581  0.4551  0.0363  0.6497
 7528TIP3    H244076   6.549   4.395  15.618  0.4229 -0.0149  0.6796
 7529TIP3   OH244077   1.783   5.869   1.472  0.4517  0.2320  0.2773
 7529TIP3    H144078   1.752   5.959   1.473 -1.8663 -0.4985  1.2813
 7529TIP3    H244079   1.715   5.821   1.425  2.1773 -0.8598 -1.2174
 7530TIP3   OH244080   3.216   2.225  16.307  0.2189  0.0302 -0.5799
 7530TIP3    H144081   3.227   2.134  16.278  0.7009 -0.0687 -0.1092
 7530TIP3    H244082   3.269   2.231  16.387 -0.1507  0.6130 -0.3742
 7531TIP3   OH244083   2.461   5.149  16.237 -0.9148  0.2418  0.3829
 7531TIP3    H144084   2.447   5.127  16.145 -0.0004 -1.4525  0.6197
 7531TIP3    H244085   2.506   5.073  16.274  3.5777  2.8192  1.0031
 7532TIP3   OH244086   5.693   5.606  15.007  0.2885 -0.1168  0.0085
 7532TIP3    H144087   5.740   5.685  14.981 -0.4269  0.8655  1.5883
 7532TIP3    H244088   5.615   5.605  14.951 -0.1265  0.7685  0.5530
 7533TIP3   OH244089   5.623   2.880   3.386  0.0793 -0.0246  0.3219
 7533TIP3    H144090   5.566   2.884   3.310 -0.2608 -3.0638  0.3154
 7533TIP3    H244091   5.574   2.923   3.456 -0.3697  1.1481 -0.6829
 7534TIP3   OH244092   2.127   0.939   3.313 -0.5371  0.5147  0.5467
 7534TIP3    H144093   2.086   0.984   3.387 -0.0855 -3.0444  3.3100
 7534TIP3    H244094   2.060   0.937   3.245 -2.0638  1.5221  1.9493
 7535TIP3   OH244095   4.139   3.381   3.148  0.4838 -0.0713  0.0639
 7535TIP3    H144096   4.143   3.286   3.150  0.6080 -0.0820 -0.5496
 7535TIP3    H244097   4.161   3.405   3.058 -0.1088  0.5119  0.0648
 7536TIP3   OH244098   3.558   3.859  13.156  0.3315  0.1357  0.6679
 7536TIP3    H144099   3.469   3.886  13.179 -0.1765 -0.3468 -0.6079
 7536TIP3    H244100   3.546   3.783  13.099  1.5493  0.3679  0.0586
 7537TIP3   OH244101   2.686   4.064   4.278  0.2969 -0.2503 -0.1548
 7537TIP3    H144102   2.729   4.147   4.257  0.4720 -0.4153 -0.4582
 7537TIP3    H244103   2.710   4.047   4.369  1.8811 -0.9478 -0.6694
 7538TIP3   OH244104   2.433   6.205   6.327  0.1076 -0.2063 -0.0313
 7538TIP3    H144105   2.523   6.172   6.321 -0.1131 -0.8308  0.0965
 7538TIP3    H244106   2.443   6.296   6.357  0.7337 -0.0193 -0.7745
 7539TIP3   OH244107   0.665   6.295   5.981  0.0887  0.0704  0.4683
 7539TIP3    H144108   0.677   6.379   6.024  0.6831  0.4134 -0.3341
 7539TIP3    H244109   0.570   6.281   5.982 -0.1419  1.3423 -0.4458
 7540TIP3   OH244110   5.596   0.314   4.535  0.0420  0.0042 -0.1917
 7540TIP3    H144111   5.662   0.287   4.471 -0.0994 -0.9054  0.0233
 7540TIP3    H244112   5.514   0.315   4.486  0.0365 -0.0286 -0.1834
 7541TIP3   OH244113   2.501   2.519  17.150  0.1652 -0.4856  0.3520
 7541TIP3    H144114   2.536   2.475  17.227 -2.9083 -0.6542  1.7893
 7541TIP3    H244115   2.459   2.449  17.100  1.5631 -0.2693 -1.2254
 7542TIP3   OH244116   5.310   1.890   2.461  0.5846  0.1957  0.3236
 7542TIP3    H144117   5.337   1.978   2.437 -1.0146  0.6682  0.1616
 7542TIP3    H244118   5.238   1.903   2.522 -1.3092 -0.9621 -1.5551
 7543TIP3   OH244119   4.679   1.791   4.783 -0.0905 -0.1888  0.5963
 7543TIP3    H144120   4.724   1.723   4.834  1.7117  0.9344  0.5767
 7543TIP3    H244121   4.736   1.806   4.708 -1.5641 -0.1723 -0.5676
 7544TIP3   OH244122   4.015   4.005  12.822 -0.4716 -0.6631  0.2189
 7544TIP3    H144123   3.972   3.958  12.750  1.3277  0.4467 -1.6826
 7544TIP3    H244124   3.945   4.055  12.863 -1.6689 -1.8624 -0.2667
 7545TIP3   OH244125   2.100   5.252   1.605  0.5407 -0.0374  0.2854
 7545TIP3    H144126   2.020   5.303   1.593 -1.1653 -2.7074 -0.3914
 7545TIP3    H244127   2.113   5.249   1.700  1.2464  2.3107  0.3409
 7546TIP3   OH244128   2.740   6.331   4.502  0.1966  0.1383 -0.3993
 7546TIP3    H144129   2.742   6.316   4.596 -0.5950 -0.0039 -0.3986
 7546TIP3    H244130   2.693   6.414   4.492  1.5023  0.8884 -0.5986
 7547TIP3   OH244131   1.696   2.839   2.900  0.0624 -0.2114  0.2724
 7547TIP3    H144132   1.657   2.754   2.918 -2.0685  0.6869  0.1373
 7547TIP3    H244133   1.625   2.901   2.909  1.3458  1.4751 -0.5668
 7548TIP3   OH244134   0.950   0.189   3.440  0.4623  1.2725  0.3826
 7548TIP3    H144135   0.984   0.233   3.519  0.4104  0.6681  0.7484
 7548TIP3    H244136   1.001   0.108   3.434 -0.2258  0.8321  0.3682
 7549TIP3   OH244137   4.033   0.051  12.503  0.2664 -0.4997  0.0184
 7549TIP3    H144138   4.050   0.144  12.491 -1.8747 -0.1284 -0.6205
 7549TIP3    H244139   4.099   0.007  12.449  0.5170  0.6893 -0.6826
 7550TIP3   OH244140   2.354   6.457  12.835  0.3019  0.2222 -0.1908
 7550TIP3    H144141   2.448   6.452  12.819  0.0360 -0.1173 -1.8916
 7550TIP3    H244142   2.345   6.451  12.930  1.9777  0.0019 -0.0168
 7551TIP3   OH244143   0.694   1.153  11.597 -0.5616 -0.2168 -0.0570
 7551TIP3    H144144   0.736   1.239  11.599 -1.1439  0.0634  0.1973
 7551TIP3    H244145   0.653   1.148  11.510 -2.0200  0.4944  0.5575
 7552TIP3   OH244146   2.782   3.388   4.289 -0.3801  0.2430  0.6067
 7552TIP3    H144147   2.868   3.428   4.304  0.1274 -0.6043  0.0122
 7552TIP3    H244148   2.726   3.428   4.356  0.4118  0.9909  0.8455
 7553TIP3   OH244149   5.869   6.668   0.841  0.5216  0.7691  0.1342
 7553TIP3    H144150   5.787   6.717   0.854 -0.9671 -0.8980 -2.1671
 7553TIP3    H244151   5.904   6.701   0.759  1.1581  0.1431  0.1476
 7554TIP3   OH244152   2.169   1.609  16.102  0.1296 -0.2829  0.1672
 7554TIP3    H144153   2.243   1.577  16.050  0.4161  0.2125  0.2679
 7554TIP3    H244154   2.202   1.613  16.192 -0.2473 -0.7651  0.3352
 7555TIP3   OH244155   1.010   1.973   0.039  0.4689  0.0718 -0.3173
 7555TIP3    H144156   0.923   1.940   0.064  0.6401  0.4154  0.7929
 7555TIP3    H244157   1.035   1.919  -0.036 -0.1966 -0.8358  0.0841
 7556TIP3   OH244158   1.538   0.949  12.887 -0.0263 -0.2549  0.0193
 7556TIP3    H144159   1.466   0.986  12.837  0.6572 -0.3850 -1.0885
 7556TIP3    H244160   1.495   0.910  12.964 -1.2053 -0.7722 -0.8565
 7557TIP3   OH244161   0.531   5.101  11.524 -0.3377 -0.2606  0.2304
 7557TIP3    H144162   0.607   5.060  11.565  0.4775  0.1970 -0.7727
 7557TIP3    H244163   0.547   5.195  11.534 -1.5743 -0.1454  1.4132
 7558TIP3   OH244164   4.516   0.334   4.453  0.1785 -0.0901  0.0120
 7558TIP3    H144165   4.448   0.316   4.388 -0.8966  2.2018  0.3986
 7558TIP3    H244166   4.584   0.380   4.405  0.1990  0.0309  0.1553
 7559TIP3   OH244167   4.507   4.986  12.676 -0.3946 -0.1074  0.7237
 7559TIP3    H144168   4.475   4.918  12.736  0.5643 -0.0326  1.3421
 7559TIP3    H244169   4.460   5.065  12.701  0.0341 -0.0635  1.4400
 7560TIP3   OH244170   5.141   1.788   0.146 -0.6633  0.2419 -0.7668
 7560TIP3    H144171   5.080   1.805   0.075 -0.0560  2.1602 -0.8812
 7560TIP3    H244172   5.203   1.723   0.111 -0.9307  0.4551 -1.6426
 7561TIP3   OH244173   6.443   2.129  13.418  0.4088 -0.3300 -0.2622
 7561TIP3    H144174   6.471   2.070  13.488  1.5097 -0.5014 -0.8184
 7561TIP3    H244175   6.429   2.213  13.462  1.3610 -0.3614  0.1378
 7562TIP3   OH244176   0.169   5.636   1.189 -0.2697 -0.1415 -0.6647
 7562TIP3    H144177   0.202   5.579   1.119 -0.6668  1.5050 -2.2732
 7562TIP3    H244178   0.241   5.696   1.207 -1.1833  1.3995 -1.9015
 7563TIP3   OH244179   3.533   3.071   5.826 -0.3901  0.1654 -0.2965
 7563TIP3    H144180   3.583   3.010   5.772  0.4927  0.8131 -0.2516
 7563TIP3    H244181   3.587   3.151   5.826 -1.2314  0.7427  0.1112
 7564TIP3   OH244182   4.428   5.821  14.782 -0.0990  0.3355 -0.1661
 7564TIP3    H144183   4.345   5.785  14.750  0.7075 -1.5939 -0.2562
 7564TIP3    H244184   4.433   5.908  14.743 -1.6803  0.1532 -0.8561
 7565TIP3   OH244185   4.924   6.686   2.940  0.0846 -0.4929 -0.1077
 7565TIP3    H144186   5.007   6.699   2.986  0.1085  0.1520 -0.3240
 7565TIP3    H244187   4.887   6.774   2.934 -0.5428 -0.7595 -0.1495
 7566TIP3   OH244188   3.517   2.226  15.844 -0.3262  0.2255  0.4127
 7566TIP3    H144189   3.549   2.162  15.781  1.0215  1.7154 -0.4945
 7566TIP3    H244190   3.506   2.177  15.926 -0.7562 -1.4443 -0.6067
 7567TIP3   OH244191   0.961   6.745  14.947  0.3034 -0.2309 -0.6289
 7567TIP3    H144192   0.890   6.781  14.893 -0.3154  0.6003  0.6911
 7567TIP3    H244193   0.967   6.653  14.921 -0.0632  0.1100 -1.9973
 7568TIP3   OH244194   3.472   5.072  10.853 -0.1964 -0.8444 -0.6664
 7568TIP3    H144195   3.483   5.123  10.773  0.2640 -1.1193 -0.7837
 7568TIP3    H244196   3.552   5.020  10.859 -0.0360 -0.5036  0.2033
 7569TIP3   OH244197   3.714   1.240  13.370  0.4423  0.4632  0.0631
 7569TIP3    H144198   3.676   1.249  13.283  1.0485 -0.5148 -0.3175
 7569TIP3    H244199   3.739   1.148  13.376 -0.8541  0.1583  1.8013
 7570TIP3   OH244200   5.487   2.089  11.027  0.2591  0.4243  0.4789
 7570TIP3    H144201   5.488   2.066  10.934  0.9460 -1.2500  0.8821
 7570TIP3    H244202   5.432   2.167  11.031 -1.6819 -0.7825 -1.0409
 7571TIP3   OH244203   0.456   5.066   3.268  0.0811  0.0588  0.0939
 7571TIP3    H144204   0.517   5.136   3.243  0.9359 -0.0125  1.8086
 7571TIP3    H244205   0.476   4.994   3.207  1.5345  0.1388  0.4343
 7572TIP3   OH244206   4.628   1.507  12.710 -0.0573  0.1569  0.0738
 7572TIP3    H144207   4.646   1.413  12.722  1.9038  0.5164  0.2919
 7572TIP3    H244208   4.585   1.534  12.791  3.0044  0.2266  1.8036
 7573TIP3   OH244209   2.367   1.266  14.062 -0.6624 -0.1047 -0.0749
 7573TIP3    H144210   2.304   1.250  14.132  0.0204 -0.4143  0.4757
 7573TIP3    H244211   2.411   1.182  14.049  1.1570  0.6226  1.0559
 7574TIP3   OH244212   5.847   4.794  16.987 -0.1206 -0.1149  0.4733
 7574TIP3    H144213   5.832   4.805  16.893  1.3549  0.5799  0.2858
 7574TIP3    H244214   5.784   4.853  17.029 -1.6885 -1.3943  0.0066
 7575TIP3   OH244215   4.883   0.119   5.007 -0.1247 -0.2740 -0.3655
 7575TIP3    H144216   4.978   0.113   5.020  0.1112  1.1494 -1.2146
 7575TIP3    H244217   4.856   0.030   4.984  1.5752 -0.1183 -3.4751
 7576TIP3   OH244218   1.486   4.167   5.050  0.2023 -0.4464  0.3409
 7576TIP3    H144219   1.424   4.194   5.117 -1.3657 -1.9576 -0.4053
 7576TIP3    H244220   1.515   4.080   5.077  0.8558 -0.3712 -0.0781
 7577TIP3   OH244221   0.808   2.420  11.978  0.9400  0.0929  0.2138
 7577TIP3    H144222   0.727   2.454  11.941  1.5060  0.7935 -0.4152
 7577TIP3    H244223   0.812   2.329  11.948 -0.1356 -0.2826  1.1532
 7578TIP3   OH244224   0.129   5.437  17.205 -0.0862 -0.7144  0.6326
 7578TIP3    H144225   0.133   5.416  17.298 -0.0584 -1.9534  0.3721
 7578TIP3    H244226   0.107   5.354  17.163 -1.6782  0.1585 -0.3383
 7579TIP3   OH244227   3.715   0.479  11.886  0.5663  0.2359 -0.0034
 7579TIP3    H144228   3.632   0.449  11.848 -0.1908 -0.2166  1.8962
 7579TIP3    H244229   3.772   0.495  11.810 -0.7935 -0.7692 -1.2933
 7580TIP3   OH244230   1.615   4.507  15.809 -0.1863  0.6466 -0.3559
 7580TIP3    H144231   1.642   4.462  15.729 -1.3721  1.1751 -1.0815
 7580TIP3    H244232   1.696   4.542  15.846  0.6125 -1.1510 -0.3393
 7581TIP3   OH244233   6.085   5.367   4.507  0.0365 -0.2240 -0.0756
 7581TIP3    H144234   6.180   5.374   4.512  0.2341 -0.0202 -2.7991
 7581TIP3    H244235   6.056   5.456   4.487 -0.5075 -0.7034 -1.4861
 7582TIP3   OH244236   4.958   3.162   0.825 -0.0915 -0.1762 -0.1409
 7582TIP3    H144237   4.898   3.220   0.777 -1.1573 -1.2097 -0.1175
 7582TIP3    H244238   5.011   3.122   0.756  1.1859  1.3665 -0.0973
 7583TIP3   OH244239   0.738   5.728  12.029 -0.0403  0.0881 -0.3598
 7583TIP3    H144240   0.697   5.642  12.020  0.1210 -0.0327  0.0445
 7583TIP3    H244241   0.668   5.784  12.062 -0.7127  0.5970 -2.5126
 7584TIP3   OH244242   2.459   4.681   5.891 -0.2467  0.3470  0.3290
 7584TIP3    H144243   2.504   4.620   5.951  1.3343  1.5347  0.4146
 7584TIP3    H244244   2.410   4.739   5.949 -0.4689  0.1517  0.3386
 7585TIP3   OH244245   3.469   1.590  14.628  0.3834  0.2447 -0.1201
 7585TIP3    H144246   3.526   1.529  14.674 -0.1901  1.1631  1.9359
 7585TIP3    H244247   3.396   1.605  14.689  0.7663  3.3536 -0.2689
 7586TIP3   OH244248   1.599   0.570   4.349  0.3752  0.1849 -0.3447
 7586TIP3    H144249   1.548   0.648   4.367  1.4532  1.1580 -1.3392
 7586TIP3    H244250   1.545   0.520   4.287 -0.4720 -0.0661  0.5644
 7587TIP3   OH244251   5.135   2.031  13.416 -0.0776 -0.4094  0.6711
 7587TIP3    H144252   5.048   1.990  13.418 -0.1724 -0.1877  1.3591
 7587TIP3    H244253   5.179   1.996  13.494  0.3642 -0.3258  0.4603
 7588TIP3   OH244254   0.955   0.292  14.933  0.3607 -0.1627  0.6240
 7588TIP3    H144255   1.013   0.288  14.857 -0.3756 -0.9954  0.0901
 7588TIP3    H244256   0.880   0.238  14.909  1.1621 -2.4932  2.8588
 7589TIP3   OH244257   4.798   2.380  12.734 -0.2929  0.1591 -0.8502
 7589TIP3    H144258   4.724   2.321  12.745  0.2966 -0.4844 -0.1170
 7589TIP3    H244259   4.870   2.323  12.707  0.5521  0.3316  0.8774
 7590TIP3   OH244260   6.041   3.751  12.717  0.1169 -0.0431  0.7113
 7590TIP3    H144261   5.954   3.785  12.696  0.2602  0.4843  0.9398
 7590TIP3    H244262   6.041   3.742  12.812  0.0058 -0.9191  0.6352
 7591TIP3   OH244263   0.155   3.229  13.122  0.0212 -0.1428 -0.0031
 7591TIP3    H144264   0.196   3.168  13.183  1.1815 -0.0338 -0.6467
 7591TIP3    H244265   0.076   3.184  13.093  0.9915 -1.4784 -0.6613
 7592TIP3   OH244266   5.058   6.086   5.773 -0.0548  0.5306  0.1932
 7592TIP3    H144267   5.058   6.160   5.834 -0.3254  2.5796 -2.1133
 7592TIP3    H244268   5.007   6.018   5.817  1.1450  1.2419  2.8963
 7593TIP3   OH244269   1.686   1.496   4.939  0.0747  0.0390 -0.0360
 7593TIP3    H144270   1.717   1.412   4.974  1.0254  0.5967  0.4801
 7593TIP3    H244271   1.658   1.476   4.850  2.2631 -0.4278 -0.6708
 7594TIP3   OH244272   3.027   0.480   4.343 -0.0236  0.6742  0.0689
 7594TIP3    H144273   3.011   0.465   4.436  0.2490 -0.0634 -0.0017
 7594TIP3    H244274   2.971   0.555   4.321 -1.8841 -0.5695  0.3042
 7595TIP3   OH244275   3.325   0.711   3.236  0.2439 -0.3348  0.2797
 7595TIP3    H144276   3.276   0.765   3.175 -0.0504 -0.7138  0.1771
 7595TIP3    H244277   3.259   0.658   3.280  0.3588  0.5193  1.5285
 7596TIP3   OH244278   1.534   1.683  16.215  0.0295  0.3427 -0.6149
 7596TIP3    H144279   1.581   1.678  16.131  0.7759  0.8229 -0.2393
 7596TIP3    H244280   1.597   1.724  16.275 -0.6430  0.3795  0.0775
 7597TIP3   OH244281   3.010   3.632   0.286 -0.4176 -0.3541  1.0618
 7597TIP3    H144282   3.077   3.693   0.255 -0.8174 -0.7205 -0.6701
 7597TIP3    H244283   3.010   3.561   0.221  0.0418 -2.2378  3.0114
 7598TIP3   OH244284   0.563   1.872  13.246  0.2609 -0.3182 -0.1241
 7598TIP3    H144285   0.631   1.810  13.271  0.3239 -0.2192 -0.0492
 7598TIP3    H244286   0.553   1.929  13.322  0.0538 -0.3669 -0.1118
 7599TIP3   OH244287   6.568   3.329  12.761 -0.4851  0.0038  0.2340
 7599TIP3    H144288   6.520   3.341  12.679  0.1028 -1.2560 -0.3246
 7599TIP3    H244289   6.511   3.272  12.814  0.3539 -1.4688 -0.4185
 7600TIP3   OH244290   4.079   4.496   2.073  0.0676  0.9947  0.2536
 7600TIP3    H144291   4.158   4.546   2.052  2.1089 -2.7291 -2.0576
 7600TIP3    H244292   4.006   4.552   2.044  2.1945  2.2613 -3.2661
 7601TIP3   OH244293   3.059   1.252   4.717  0.0607 -0.0860 -0.2902
 7601TIP3    H144294   3.093   1.305   4.790  2.0923 -1.2601 -0.3133
 7601TIP3    H244295   3.038   1.168   4.756 -2.0814  0.3106 -0.4742
 7602TIP3   OH244296   0.869   1.728  11.668 -0.5723  0.3525 -0.4183
 7602TIP3    H144297   0.935   1.778  11.620  0.2777 -0.0777  0.2830
 7602TIP3    H244298   0.798   1.790  11.683  0.3499  1.2776  0.2224
 7603TIP3   OH244299   5.262   1.621   2.755  0.1297 -1.1537  0.0515
 7603TIP3    H144300   5.203   1.662   2.817  0.6067 -1.0230  0.4275
 7603TIP3    H244301   5.206   1.567   2.700 -0.3940 -0.6517  0.0898
 7604TIP3   OH244302   6.479   3.377  16.386 -0.3453  0.0131  0.5976
 7604TIP3    H144303   6.523   3.450  16.344 -0.6281  0.0805  0.4199
 7604TIP3    H244304   6.386   3.389  16.366 -0.7245  1.0231  2.7047
 7605TIP3   OH244305   6.331   2.745   0.129 -0.1429 -0.2774  0.3618
 7605TIP3    H144306   6.280   2.778   0.055 -0.1203 -1.5462 -0.2497
 7605TIP3    H244307   6.279   2.767   0.206 -0.6858  0.1128 -0.1037
 7606TIP3   OH244308   6.109   5.194   3.411 -0.2725 -0.7705  0.7858
 7606TIP3    H144309   6.114   5.193   3.507 -2.4805 -1.1857  0.9525
 7606TIP3    H244310   6.155   5.273   3.385  0.5077 -0.7411  2.1678
 7607TIP3   OH244311   5.224   2.292  11.199  0.4019 -0.0049  0.2027
 7607TIP3    H144312   5.263   2.330  11.121 -1.2598  2.1843  0.3325
 7607TIP3    H244313   5.137   2.263  11.171  0.3569 -0.5758  0.9058
 7608TIP3   OH244314   4.277   0.810  14.833  0.1222  0.1611 -0.1687
 7608TIP3    H144315   4.257   0.903  14.819 -1.0006  0.1124  0.8763
 7608TIP3    H244316   4.340   0.809  14.905  1.7208  0.1702 -1.5032
 7609TIP3   OH244317   5.847   0.994   0.689 -0.0686 -0.2725 -0.1941
 7609TIP3    H144318   5.939   0.986   0.662 -0.3964 -0.9207 -1.1330
 7609TIP3    H244319   5.816   0.904   0.697 -0.2102 -0.0986  1.6224
 7610TIP3   OH244320   4.608   5.508   4.569  0.3807 -0.5408 -0.0223
 7610TIP3    H144321   4.683   5.542   4.617 -0.2329  0.8131  0.0264
 7610TIP3    H244322   4.631   5.519   4.477  0.9651 -1.8159 -0.0556
 7611TIP3   OH244323   0.082   2.182  15.669 -0.1939 -0.4468  0.2769
 7611TIP3    H144324   0.124   2.176  15.583 -1.2566 -1.7902 -0.1959
 7611TIP3    H244325   0.037   2.266  15.668  1.1507  0.3033  0.1923
 7612TIP3   OH244326   4.790   3.161  15.964  0.2964 -0.0799  0.1289
 7612TIP3    H144327   4.834   3.240  15.934 -0.4510  0.9452  1.5872
 7612TIP3    H244328   4.859   3.094  15.963  0.9494  0.5741 -1.1148
 7613TIP3   OH244329   0.024   1.950  12.443  0.0446 -0.1764  0.0666
 7613TIP3    H144330   0.111   1.940  12.404 -0.6338 -2.4611 -1.0316
 7613TIP3    H244331   0.041   1.977  12.533  1.8036  0.9300 -0.5367
 7614TIP3   OH244332   2.241   2.247   1.532 -0.3683  0.4119  0.2836
 7614TIP3    H144333   2.188   2.304   1.587 -1.8291  0.6366 -1.2849
 7614TIP3    H244334   2.273   2.179   1.591 -0.7638  1.3799  1.6562
 7615TIP3   OH244335   4.455   2.117  12.493  0.3254 -0.2235 -0.6923
 7615TIP3    H144336   4.392   2.188  12.503  1.4844  0.7005  0.4988
 7615TIP3    H244337   4.432   2.055  12.562  1.0170  0.3811  0.1066
 7616TIP3   OH244338   0.400   4.077  15.477 -0.1509  0.0721  0.0227
 7616TIP3    H144339   0.402   4.152  15.418 -0.4122  0.4278  0.4572
 7616TIP3    H244340   0.371   4.004  15.423  0.6269  0.1606 -0.5362
 7617TIP3   OH244341   1.356   6.309   1.064  0.5267 -0.4710  0.2409
 7617TIP3    H144342   1.387   6.400   1.063  1.0968 -0.6604  0.3796
 7617TIP3    H244343   1.302   6.301   0.985 -1.0933  0.5182  1.1947
 7618TIP3   OH244344   4.975   4.687  13.637  0.4949 -0.6289 -0.4229
 7618TIP3    H144345   5.040   4.691  13.707 -0.5998  4.1686  0.6482
 7618TIP3    H244346   4.891   4.702  13.681 -0.7684 -1.5467 -2.3725
 7619TIP3   OH244347   4.532   2.961   1.962  0.9080 -0.8061  0.1672
 7619TIP3    H144348   4.524   3.054   1.983 -0.7093 -1.1110  1.0430
 7619TIP3    H244349   4.574   2.960   1.876  1.6989  0.6862  0.4918
 7620TIP3   OH244350   4.470   5.829   3.233 -0.2982 -0.1211  0.4133
 7620TIP3    H144351   4.416   5.907   3.248  0.1991  0.1459  0.8217
 7620TIP3    H244352   4.540   5.835   3.297  0.4390 -0.2690 -0.3635
 7621TIP3   OH244353   4.644   4.372  13.372  0.5133 -0.8398  0.1326
 7621TIP3    H144354   4.663   4.359  13.465  1.0595 -2.3272 -0.1592
 7621TIP3    H244355   4.720   4.418  13.338  0.7163 -1.0935  0.2440
 7622TIP3   OH244356   2.545   3.224   0.596 -0.3221  0.3306 -0.2797
 7622TIP3    H144357   2.454   3.195   0.601  0.1519 -1.0994  0.9010
 7622TIP3    H244358   2.568   3.247   0.686  0.5123  0.5784 -0.5500
 7623TIP3   OH244359   2.594   6.353  14.647 -0.1891 -0.5658 -0.4749
 7623TIP3    H144360   2.674   6.301  14.641  0.4395  0.3625 -0.3024
 7623TIP3    H244361   2.544   6.311  14.717  0.7610 -0.3606  0.3556
 7624TIP3   OH244362   3.566   6.350  15.512  0.0611  0.0718 -0.0284
 7624TIP3    H144363   3.526   6.435  15.529  1.0654  0.4802  0.3142
 7624TIP3    H244364   3.646   6.349  15.565  0.9295 -0.4190 -1.3105
 7625TIP3   OH244365   6.708   0.475   5.262  0.1742 -0.1545 -0.4029
 7625TIP3    H144366   6.641   0.536   5.296 -1.0945 -0.6530 -1.9152
 7625TIP3    H244367   6.675   0.388   5.285  0.7856 -0.3822 -0.3615
 7626TIP3   OH244368   3.095   4.871   0.791 -0.5263 -0.0221  0.2955
 7626TIP3    H144369   3.190   4.865   0.785 -0.2295  1.3676  2.4398
 7626TIP3    H244370   3.079   4.958   0.830 -2.7503  0.3467 -1.2601
 7627TIP3   OH244371   1.846   4.626  15.384 -0.5420 -0.0932  0.7529
 7627TIP3    H144372   1.894   4.555  15.340  0.1247 -0.7522  2.4570
 7627TIP3    H244373   1.755   4.614  15.357 -0.0882 -0.1489 -0.8322
 7628TIP3   OH244374   6.336   3.905   1.440 -0.2256  0.2795 -0.2104
 7628TIP3    H144375   6.424   3.877   1.464 -0.1137  1.1079  0.4251
 7628TIP3    H244376   6.347   3.955   1.360  0.1611  1.8623  0.7865
 7629TIP3   OH244377   0.106   0.616   5.865 -0.4417  0.1381 -0.9627
 7629TIP3    H144378   0.188   0.632   5.912 -0.8974 -1.1776  0.3422
 7629TIP3    H244379   0.128   0.631   5.773  1.6192 -1.4395 -0.7889
 7630TIP3   OH244380   3.566   1.650   0.127 -0.2152 -0.7882 -0.7628
 7630TIP3    H144381   3.553   1.741   0.156 -0.7234 -1.3306  0.8318
 7630TIP3    H244382   3.489   1.631   0.074 -1.3904 -1.0173  0.9208
 7631TIP3   OH244383   0.013   5.678  16.011  0.2402 -0.5395 -0.0331
 7631TIP3    H144384  -0.016   5.600  16.057  1.6504 -0.9285  0.2367
 7631TIP3    H244385  -0.034   5.750  16.055 -0.2458 -1.1241  0.4289
 7632TIP3   OH244386   6.301   2.376  13.496  0.0249  0.1884  0.5875
 7632TIP3    H144387   6.227   2.326  13.528 -0.5517  1.4311  1.2829
 7632TIP3    H244388   6.280   2.395  13.404 -0.1255 -0.1516  0.5509
 7633TIP3   OH244389   0.423   3.203   3.413  0.2618  1.1488 -0.0891
 7633TIP3    H144390   0.419   3.137   3.482  0.7625 -0.3513 -1.4537
 7633TIP3    H244391   0.514   3.200   3.382 -0.4934  0.0826 -2.3926
 7634TIP3   OH244392   3.981   2.092  11.217  0.2184  0.1788 -0.3178
 7634TIP3    H144393   3.918   2.134  11.276  0.8109 -0.7949  1.0874
 7634TIP3    H244394   3.945   2.004  11.204  1.5240 -0.5878  0.9728
 7635TIP3   OH244395   6.293   3.830  13.052 -0.0110  0.2931  0.3491
 7635TIP3    H144396   6.304   3.920  13.083 -1.6916  1.7135 -2.6885
 7635TIP3    H244397   6.328   3.832  12.962 -0.4604 -2.0040  0.0665
 7636TIP3   OH244398   1.434   3.636   2.527  0.1851 -0.0060 -0.6509
 7636TIP3    H144399   1.496   3.612   2.595  0.0670 -0.0131 -0.5461
 7636TIP3    H244400   1.367   3.568   2.529  0.0114  0.1649 -0.5568
 7637TIP3   OH244401   1.108   2.230   2.013 -0.2855  0.3723  0.5313
 7637TIP3    H144402   1.057   2.267   1.941 -1.1046  0.4418  1.1261
 7637TIP3    H244403   1.165   2.301   2.042  1.1255 -0.0896 -0.9801
 7638TIP3   OH244404   3.057   3.002  14.309 -0.3491 -0.2527  0.0186
 7638TIP3    H144405   2.969   3.003  14.349 -0.5083  0.9441 -0.3181
 7638TIP3    H244406   3.104   2.934  14.357 -1.2228 -0.3643  0.7520
 7639TIP3   OH244407   5.611   4.908  15.849 -0.2925  0.6400 -0.3959
 7639TIP3    H144408   5.573   4.856  15.779 -0.7839  0.1277  0.2374
 7639TIP3    H244409   5.581   4.997  15.832 -0.2588  0.5549 -0.9301
 7640TIP3   OH244410   0.165   3.164  16.195 -0.4564  0.4448  0.2502
 7640TIP3    H144411   0.102   3.093  16.183 -0.4321  0.3490  0.6986
 7640TIP3    H244412   0.217   3.138  16.271 -0.7723  1.1818  0.7257
 7641TIP3   OH244413   4.140   0.559  12.326  0.0755  0.0136  0.5188
 7641TIP3    H144414   4.133   0.633  12.387  2.4383 -0.4068  1.4174
 7641TIP3    H244415   4.096   0.487  12.370 -1.8189  0.7110 -0.1478
 7642TIP3   OH244416   4.230   3.789  12.638 -0.2711 -0.4025 -0.5051
 7642TIP3    H144417   4.229   3.696  12.657  0.2498 -0.0674  1.3273
 7642TIP3    H244418   4.310   3.822  12.680  0.1855  0.6995 -2.0992
 7643TIP3   OH244419   2.761   1.962  16.473  0.2501 -0.3990  0.4351
 7643TIP3    H144420   2.765   2.041  16.526 -1.1531  1.6619 -2.2636
 7643TIP3    H244421   2.849   1.953  16.436  0.2497  0.3478  0.2357
 7644TIP3   OH244422   4.848   1.875   3.673 -0.2241 -0.9497 -0.4447
 7644TIP3    H144423   4.887   1.945   3.725  1.2473 -1.2173 -1.1252
 7644TIP3    H244424   4.814   1.920   3.595 -0.9201 -0.7705 -0.0455
 7645TIP3   OH244425   1.568   3.573   5.845 -0.4778  0.4313 -0.2335
 7645TIP3    H144426   1.514   3.617   5.911 -1.9488  1.7787 -2.2251
 7645TIP3    H244427   1.543   3.614   5.762  1.6133 -0.8836 -1.6032
 7646TIP3   OH244428   4.702   1.011  14.639 -0.1956 -0.1606  0.3831
 7646TIP3    H144429   4.785   0.963  14.644  0.3437  0.4976 -1.4889
 7646TIP3    H244430   4.716   1.088  14.694  0.0886 -0.5244  0.8254
 7647TIP3   OH244431   3.321   1.588  11.438  0.1937 -0.1696 -0.6186
 7647TIP3    H144432   3.408   1.550  11.452 -0.3513 -2.3016 -2.4365
 7647TIP3    H244433   3.264   1.540  11.497  0.0722  0.5037 -0.1813
 7648TIP3   OH244434   2.911   5.005   0.517 -0.2707  1.1813  0.2041
 7648TIP3    H144435   2.995   4.980   0.555 -1.7736 -3.0849  1.3205
 7648TIP3    H244436   2.932   5.040   0.431  2.6496  0.5575  0.5807
 7649TIP3   OH244437   1.294   4.925  16.322  0.1147  0.0718  0.2463
 7649TIP3    H144438   1.341   5.008  16.331 -1.1103  0.7918  0.2830
 7649TIP3    H244439   1.308   4.880  16.405  1.1558  0.0254  0.0634
 7650TIP3   OH244440   4.607   6.817   5.811 -0.8073  0.3413 -0.6060
 7650TIP3    H144441   4.521   6.802   5.850 -1.3575 -3.5659 -2.7948
 7650TIP3    H244442   4.587   6.834   5.718  0.7310  1.0847 -0.8183
 7651TIP3   OH244443   4.807   3.572  16.725  0.4336 -0.5389 -0.0826
 7651TIP3    H144444   4.802   3.533  16.637  0.6774 -0.4406 -0.1412
 7651TIP3    H244445   4.833   3.662  16.709 -0.0389 -0.3767  0.0600
 7652TIP3   OH244446   4.487   4.045  16.225  0.1458  0.2465 -0.1337
 7652TIP3    H144447   4.453   4.130  16.254  0.7737  1.0431 -1.5940
 7652TIP3    H244448   4.546   4.018  16.296 -3.0254 -0.9811  2.2612
 7653TIP3   OH244449   0.804   5.637   5.909 -0.2157 -0.3006 -0.6502
 7653TIP3    H144450   0.722   5.667   5.950 -0.3636 -3.3760  1.6624
 7653TIP3    H244451   0.872   5.659   5.972  0.3701 -0.2234 -1.2996
 7654TIP3   OH244452   5.111   2.429  14.837  0.0761  0.7049  0.3511
 7654TIP3    H144453   5.093   2.493  14.768  0.4125  0.9675  0.5025
 7654TIP3    H244454   5.086   2.345  14.799 -1.3677  1.0207  0.5064
 7655TIP3   OH244455   3.652   3.998   2.530 -0.2262  0.3221 -0.2251
 7655TIP3    H144456   3.719   4.064   2.547 -0.8119  0.6317  0.9838
 7655TIP3    H244457   3.590   4.041   2.472  0.9236 -0.1832 -1.9045
 7656TIP3   OH244458   5.118   2.784   5.283  0.0443  0.3893 -0.2406
 7656TIP3    H144459   5.158   2.821   5.204 -0.5914  1.0589 -0.2653
 7656TIP3    H244460   5.025   2.776   5.261  0.1848 -1.4577 -0.3053
 7657TIP3   OH244461   0.346   2.559   2.803  0.0191 -0.0921  0.3132
 7657TIP3    H144462   0.278   2.614   2.764  0.6980  0.4106 -0.1826
 7657TIP3    H244463   0.367   2.495   2.735 -2.8242 -2.9657  1.8352
 7658TIP3   OH244464   2.765   4.500   2.002  0.3044  0.3036  0.5661
 7658TIP3    H144465   2.798   4.583   1.968 -1.7599  1.5015  1.3222
 7658TIP3    H244466   2.763   4.512   2.097  3.5899 -2.0728  1.1086
 7659TIP3   OH244467   5.649   6.117   3.442 -0.0393  0.0326 -0.3697
 7659TIP3    H144468   5.709   6.150   3.374  0.5759 -1.2917 -0.5027
 7659TIP3    H244469   5.633   6.193   3.499  2.1023  0.3384 -0.0904
 7660TIP3   OH244470   0.951   6.417   1.059 -0.0339 -0.0760  0.6658
 7660TIP3    H144471   1.017   6.370   1.008 -1.0947  0.3913 -1.2411
 7660TIP3    H244472   0.869   6.370   1.043 -0.4254  0.1488  1.8960
 7661TIP3   OH244473   4.112   1.310  11.497 -0.0795  1.0436  0.2433
 7661TIP3    H144474   4.105   1.365  11.419 -0.1745  0.6375 -0.0382
 7661TIP3    H244475   4.131   1.371  11.568 -0.9920  1.5468  0.0803
 7662TIP3   OH244476   2.038   3.616   5.619 -0.4963 -0.0573 -0.0682
 7662TIP3    H144477   2.003   3.537   5.658  1.0219 -0.7799 -0.1120
 7662TIP3    H244478   1.971   3.683   5.635 -1.6051 -1.2371  0.3357
 7663TIP3   OH244479   2.302   5.640  11.652 -0.8803  0.1265  0.0160
 7663TIP3    H144480   2.349   5.628  11.735  1.6491 -0.2349 -1.3680
 7663TIP3    H244481   2.348   5.713  11.610 -2.3371  0.5214 -0.9405
 7664TIP3   OH244482   3.035   6.410  15.198  0.4190  0.2791  0.1924
 7664TIP3    H144483   3.093   6.469  15.150 -0.6574  2.2736  1.2163
 7664TIP3    H244484   2.955   6.407  15.146 -0.7357  2.4119  1.7239
 7665TIP3   OH244485   1.413   4.912   0.003  0.5340  0.0669  0.4792
 7665TIP3    H144486   1.465   4.866   0.069  1.6101  1.0906  0.3893
 7665TIP3    H244487   1.474   4.976  -0.034  0.1113 -0.8087 -1.8756
 7666TIP3   OH244488   4.391   0.574  12.204  0.1644 -0.7725  0.3281
 7666TIP3    H144489   4.301   0.547  12.226  0.5837 -2.9772 -0.4459
 7666TIP3    H244490   4.425   0.610  12.286 -0.4104 -2.8399  1.5542
 7667TIP3   OH244491   3.831   0.391   2.930 -0.7525 -0.2642  0.6454
 7667TIP3    H144492   3.783   0.309   2.943 -0.5928 -0.6157 -0.8446
 7667TIP3    H244493   3.775   0.458   2.970 -0.7304 -1.1011  2.1898
 7668TIP3   OH244494   4.595   6.088   5.978  0.3429  0.2747  0.1473
 7668TIP3    H144495   4.632   6.171   5.949 -0.2035  0.0947 -1.1203
 7668TIP3    H244496   4.537   6.061   5.907  2.1105 -2.2358 -0.4841
 7669TIP3   OH244497   2.153   6.161  15.108  0.1683  0.0670 -0.4207
 7669TIP3    H144498   2.167   6.123  15.020 -1.7010  1.6139 -1.4481
 7669TIP3    H244499   2.129   6.252  15.091  1.1591  0.8160  1.8199
 7670TIP3   OH244500   2.241   2.368  12.538 -0.0039  0.5019  0.2312
 7670TIP3    H144501   2.165   2.426  12.535  0.3178  0.8852 -1.4013
 7670TIP3    H244502   2.212   2.289  12.492  0.4288  0.4472  0.0524
 7671TIP3   OH244503   0.458   2.580  14.674 -0.8119  0.0724  0.5491
 7671TIP3    H144504   0.472   2.511  14.610 -2.3588  0.6565 -0.4638
 7671TIP3    H244505   0.454   2.534  14.758  0.8766 -0.7342  0.2369
 7672TIP3   OH244506   1.775   1.639  11.391  0.5688 -0.1322 -0.3516
 7672TIP3    H144507   1.754   1.558  11.344 -1.0694  0.4375 -0.6666
 7672TIP3    H244508   1.742   1.623  11.480  0.6796 -0.0005 -0.2879
 7673TIP3   OH244509   3.792   2.712  12.655 -0.2319 -0.4192  0.4257
 7673TIP3    H144510   3.762   2.623  12.633 -2.2081  0.5497 -1.1973
 7673TIP3    H244511   3.855   2.733  12.586  0.4011 -0.6007  0.9335
 7674TIP3   OH244512   1.002   2.492  14.872  0.1230  0.1215  0.2936
 7674TIP3    H144513   1.070   2.560  14.864  0.1036  0.1620  0.4628
 7674TIP3    H244514   0.929   2.525  14.818  0.0897  0.2650  0.4256
 7675TIP3   OH244515   4.205   5.073   5.455 -0.2331 -0.1373  0.4312
 7675TIP3    H144516   4.276   5.019   5.489  0.9158  1.2149  0.2841
 7675TIP3    H244517   4.242   5.116   5.378 -1.5574 -0.1875 -0.2718
 7676TIP3   OH244518   2.881   4.085  16.894  0.1308  0.0017  0.0454
 7676TIP3    H144519   2.888   4.164  16.949  0.5134 -0.1961  0.2909
 7676TIP3    H244520   2.892   4.117  16.805  0.8996  0.1619  0.1842
 7677TIP3   OH244521   2.633   1.130   0.310  0.1993  0.1477  0.1595
 7677TIP3    H144522   2.602   1.200   0.368  2.3074  1.2646  0.0537
 7677TIP3    H244523   2.594   1.151   0.225  0.1008  0.7014  0.3317
 7678TIP3   OH244524   6.636   3.530  12.941  1.0363  0.1734  0.0212
 7678TIP3    H144525   6.604   3.455  12.992  2.0692 -1.3112 -1.4027
 7678TIP3    H244526   6.657   3.493  12.855 -0.0846  2.4701 -1.3264
 7679TIP3   OH244527   4.996   0.188   4.735  0.3912 -0.2780  0.3530
 7679TIP3    H144528   4.931   0.245   4.693  0.4550 -0.1057  0.4906
 7679TIP3    H244529   4.971   0.187   4.827  0.1402 -0.8083  0.2825
 7680TIP3   OH244530   2.279   2.861   1.553  0.2904  0.3570 -0.1546
 7680TIP3    H144531   2.318   2.891   1.470  1.9916 -0.1560  0.4065
 7680TIP3    H244532   2.324   2.912   1.620 -1.3658  1.0604  0.4720
 7681TIP3   OH244533   5.049   5.307   2.053 -0.5077  0.4053 -0.1789
 7681TIP3    H144534   4.992   5.310   1.976 -0.1951  0.5686 -0.4018
 7681TIP3    H244535   5.011   5.238   2.108 -0.5300  0.0554 -0.6333
 7682TIP3   OH244536   6.272   1.650   3.600 -0.1256  0.5099 -0.2006
 7682TIP3    H144537   6.348   1.695   3.562  0.1551  0.3965  0.2098
 7682TIP3    H244538   6.307   1.567   3.632 -0.2255  0.8377  0.7976
 7683TIP3   OH244539   1.434   5.559   5.728  0.0287  0.6223  0.3607
 7683TIP3    H144540   1.529   5.549   5.725  0.0837  1.4152 -1.2748
 7683TIP3    H244541   1.415   5.580   5.819  1.6467  2.5030  0.3253
 7684TIP3   OH244542   1.219   1.317   0.806  0.2578  0.1216 -0.1389
 7684TIP3    H144543   1.168   1.385   0.762  0.8321  1.0131  0.5592
 7684TIP3    H244544   1.297   1.306   0.751  0.9589  1.2113  0.5991
 7685TIP3   OH244545   2.112   5.685   3.531 -0.0328 -0.1011  0.0164
 7685TIP3    H144546   2.091   5.769   3.490  1.6107 -0.1879 -1.0837
 7685TIP3    H244547   2.094   5.620   3.463 -0.4865 -0.5758  0.5781
 7686TIP3   OH244548   4.087   1.168  16.671  0.0803  0.2911 -0.2265
 7686TIP3    H144549   4.059   1.153  16.580 -1.3969  1.3727  0.0110
 7686TIP3    H244550   4.044   1.250  16.696 -1.5481 -1.1563  2.2021
 7687TIP3   OH244551   3.800   2.597   3.746 -0.2676 -0.1876 -0.3967
 7687TIP3    H144552   3.760   2.680   3.718 -2.2502 -1.0870 -0.4506
 7687TIP3    H244553   3.866   2.578   3.679  2.1392  2.5764  0.9823
 7688TIP3   OH244554   1.430   2.151   0.487 -0.7048 -0.1819  0.6759
 7688TIP3    H144555   1.396   2.168   0.575  0.4924  0.7325  0.9842
 7688TIP3    H244556   1.519   2.119   0.502 -1.2277 -2.2282 -0.1234
 7689TIP3   OH244557   4.547   1.383   4.437 -0.2606  0.1520 -0.0723
 7689TIP3    H144558   4.604   1.339   4.499 -2.9439 -1.9768  1.1104
 7689TIP3    H244559   4.503   1.451   4.489  0.9402  1.6324 -0.9130
 7690TIP3   OH244560   2.152   1.994  13.617 -0.1961 -0.4246 -0.0974
 7690TIP3    H144561   2.183   1.906  13.593 -0.2375 -0.6516  0.6482
 7690TIP3    H244562   2.104   2.024  13.540  1.9767  0.0054 -1.3837
 7691TIP3   OH244563   1.360   4.678   2.214  0.2691  0.3394  0.5539
 7691TIP3    H144564   1.291   4.662   2.279  0.0102  1.8213  0.6905
 7691TIP3    H244565   1.338   4.764   2.177  2.0960  0.9004  0.6820
 7692TIP3   OH244566   1.872   1.235   3.238 -0.2174 -0.2059  0.1358
 7692TIP3    H144567   1.936   1.277   3.296  0.9353 -1.6570 -0.0203
 7692TIP3    H244568   1.788   1.250   3.281  0.5039 -0.4513  1.7254
 7693TIP3   OH244569   5.805   3.463   5.674  0.0379 -0.2053  0.2520
 7693TIP3    H144570   5.851   3.531   5.625  0.5884 -0.8722 -0.1810
 7693TIP3    H244571   5.872   3.397   5.693 -0.7286 -1.2170 -0.4331
 7694TIP3   OH244572   5.189   5.776  15.865 -0.2031  0.0526  0.4844
 7694TIP3    H144573   5.139   5.712  15.815 -2.3304  2.6144 -0.9952
 7694TIP3    H244574   5.126   5.810  15.929 -0.2226  2.6819 -0.7710
 7695TIP3   OH244575   4.192   5.797   0.385  0.3692 -0.1902  0.1386
 7695TIP3    H144576   4.279   5.809   0.346  0.3131 -1.1454 -0.3044
 7695TIP3    H244577   4.138   5.765   0.314  0.1829 -1.6588  0.9036
 7696TIP3   OH244578   5.820   1.181  14.559 -0.3639  0.0747 -0.5864
 7696TIP3    H144579   5.903   1.222  14.585 -0.3530  1.7414 -2.9616
 7696TIP3    H244580   5.840   1.136  14.477 -1.6235 -0.1556 -0.7819
 7697TIP3   OH244581   4.599   2.658  15.221 -0.5211 -0.0306 -0.4205
 7697TIP3    H144582   4.672   2.669  15.282 -1.2760 -0.8204  0.6507
 7697TIP3    H244583   4.607   2.733  15.161  0.6174  0.3995  0.2332
 7698TIP3   OH244584   1.792   3.146  15.660 -0.4770 -0.3880 -0.1512
 7698TIP3    H144585   1.836   3.203  15.723  1.6478 -1.4850 -0.5673
 7698TIP3    H244586   1.861   3.117  15.601 -1.5985 -2.8036 -0.4139
 7699TIP3   OH244587   3.574   0.083  11.067 -0.2651 -0.0120 -0.1458
 7699TIP3    H144588   3.596  -0.010  11.078 -0.8373 -0.1181  0.1251
 7699TIP3    H244589   3.627   0.111  10.992 -0.8744 -0.8263 -0.8984
 7700TIP3   OH244590   5.524   4.409  15.641 -0.8088 -0.0329 -0.2461
 7700TIP3    H144591   5.551   4.476  15.578  0.0184 -0.5955 -0.5070
 7700TIP3    H244592   5.555   4.442  15.725 -0.5310 -0.0212 -0.3535
 7701TIP3   OH244593   4.900   6.447   1.039  0.3007  0.3199  0.2804
 7701TIP3    H144594   4.855   6.531   1.032 -2.3790 -0.9105  1.3644
 7701TIP3    H244595   4.890   6.421   1.131  1.7157 -0.8708  0.1491
 7702TIP3   OH244596   5.580   0.193   6.190  0.1997  0.4685 -0.0597
 7702TIP3    H144597   5.557   0.284   6.207 -0.9375  0.1686  0.0741
 7702TIP3    H244598   5.532   0.170   6.111 -2.2496 -0.9673  1.7072
 7703TIP3   OH244599   4.160   0.495  14.118 -0.2356  0.5225  0.2290
 7703TIP3    H144600   4.102   0.572  14.114  0.1008  0.7627 -0.1933
 7703TIP3    H244601   4.241   0.529  14.155 -0.5874  0.0367  1.4866
 7704TIP3   OH244602   1.915   3.364   5.743  0.1578  0.6463  0.2856
 7704TIP3    H144603   1.843   3.357   5.805  1.3468 -0.7637  1.5754
 7704TIP3    H244604   1.990   3.325   5.787  1.0337 -0.5842 -2.0716
 7705TIP3   OH244605   3.427   5.184   4.839  0.1996 -0.0878  0.0350
 7705TIP3    H144606   3.471   5.100   4.848  1.8015  0.6135 -0.7876
 7705TIP3    H244607   3.474   5.243   4.898 -0.6782  0.3275  0.3400
 7706TIP3   OH244608   3.977   1.314  15.146 -0.2321  0.0924 -0.2517
 7706TIP3    H144609   3.975   1.219  15.153  0.3487  0.0527 -0.5599
 7706TIP3    H244610   4.067   1.334  15.122  0.8573  0.9731  3.7576
 7707TIP3   OH244611   3.999   1.797  14.601 -0.1339 -0.2877  0.0185
 7707TIP3    H144612   3.911   1.821  14.629  0.3907 -0.0543  1.5586
 7707TIP3    H244613   3.986   1.750  14.518 -1.5990  0.7019 -0.3446
 7708TIP3   OH244614   3.684   4.010  14.172 -0.3241 -0.4010  0.2761
 7708TIP3    H144615   3.775   3.995  14.145 -0.1339 -1.9283  1.6138
 7708TIP3    H244616   3.633   3.947  14.121 -0.4458 -0.5974  0.6414
 7709TIP3   OH244617   3.221   4.469   3.617 -0.4519  0.0976 -0.6438
 7709TIP3    H144618   3.286   4.406   3.645  0.2803  0.3177 -1.7691
 7709TIP3    H244619   3.146   4.455   3.675 -0.1449 -1.5012 -0.6030
 7710TIP3   OH244620   0.997   5.152   5.567 -0.1525  0.1527 -0.6398
 7710TIP3    H144621   1.081   5.127   5.531 -0.3153  0.9637 -1.6237
 7710TIP3    H244622   0.935   5.089   5.530  0.1786 -1.3208  1.1791
 7711TIP3   OH244623   1.896   1.198   2.958 -0.1321  0.2271 -0.3988
 7711TIP3    H144624   1.888   1.209   3.053  0.1402  0.7712 -0.4337
 7711TIP3    H244625   1.985   1.227   2.938  0.9266 -2.7424 -0.4326
 7712TIP3   OH244626   2.911   2.727   4.675  0.2436  0.5595 -0.0897
 7712TIP3    H144627   2.914   2.643   4.628  0.1594 -0.3727  1.5262
 7712TIP3    H244628   2.946   2.708   4.762 -1.9952  1.6425  1.1426
 7713TIP3   OH244629   4.264   0.229   0.943  0.0316 -0.9254 -0.3343
 7713TIP3    H144630   4.236   0.262   0.857  1.5386  0.8987 -0.2035
 7713TIP3    H244631   4.232   0.295   1.004 -0.4820 -1.8881  0.4551
 7714TIP3   OH244632   6.092   3.566  14.578 -0.3312 -0.1615 -0.6041
 7714TIP3    H144633   6.089   3.589  14.485 -1.9628  0.7456 -0.3568
 7714TIP3    H244634   6.181   3.589  14.605 -0.2434  0.8031 -1.6452
 7715TIP3   OH244635   1.874   5.367   5.693  0.9418  0.0400  0.2127
 7715TIP3    H144636   1.953   5.314   5.704  1.3658  0.1239 -1.9725
 7715TIP3    H244637   1.803   5.303   5.685  1.2800 -0.1897 -1.1618
 7716TIP3   OH244638   5.741   1.739   4.855  0.3750  0.1268 -0.4602
 7716TIP3    H144639   5.810   1.777   4.908 -0.8162  1.3270  0.2833
 7716TIP3    H244640   5.785   1.670   4.804  1.8378 -0.0269  0.9369
 7717TIP3   OH244641   3.535   0.121  11.842  0.1863 -0.2563 -0.0617
 7717TIP3    H144642   3.597   0.075  11.897  0.0992  0.5274  0.7128
 7717TIP3    H244643   3.456   0.067  11.845 -0.0604  0.1405  1.1925
 7718TIP3   OH244644   0.503   6.537   4.061  0.3648 -0.1061  0.1569
 7718TIP3    H144645   0.561   6.588   4.117 -0.7265  0.9197  0.3869
 7718TIP3    H244646   0.451   6.485   4.122 -1.1944  1.4048  0.1920
 7719TIP3   OH244647   1.570   6.724   4.054 -0.4445  0.4446  0.8620
 7719TIP3    H144648   1.560   6.817   4.074  2.2465  0.8189  0.9216
 7719TIP3    H244649   1.586   6.684   4.139  1.5539  0.5059  0.5708
 7720TIP3   OH244650   2.121   5.118   3.326 -0.1656 -0.4983  0.2816
 7720TIP3    H144651   2.144   5.096   3.236 -1.8344 -0.5446 -0.1555
 7720TIP3    H244652   2.203   5.151   3.363  0.7579 -1.2407 -0.9895
 7721TIP3   OH244653   4.529   2.086   0.965  0.0555 -0.4097 -0.7494
 7721TIP3    H144654   4.490   2.160   0.917 -0.8639 -0.6322 -0.3772
 7721TIP3    H244655   4.464   2.016   0.955  0.9871 -1.2148 -1.2278
 7722TIP3   OH244656   1.455   4.445  17.099  0.7354  0.1186 -0.5032
 7722TIP3    H144657   1.449   4.460  17.005  0.5629  1.1044 -0.3478
 7722TIP3    H244658   1.395   4.508  17.138  1.4425  0.3154  0.3163
 7723TIP3   OH244659   1.005   1.781  15.706  0.2621  0.4136  0.1793
 7723TIP3    H144660   0.974   1.860  15.661  1.0426  0.6590  0.0587
 7723TIP3    H244661   0.970   1.789  15.795  2.0987  1.9918  0.8172
 7724TIP3   OH244662   3.576   3.841  11.449 -0.1658 -0.2738  0.4351
 7724TIP3    H144663   3.616   3.912  11.501 -1.8627  0.0310  1.3800
 7724TIP3    H244664   3.579   3.873  11.359  0.8658  0.1274  0.5922
 7725TIP3   OH244665   5.332   0.363  16.030 -0.1801  0.3929 -0.0041
 7725TIP3    H144666   5.286   0.399  16.106  0.5327 -1.6603  1.4985
 7725TIP3    H244667   5.363   0.439  15.982 -1.4951  1.7677  1.2188
 7726TIP3   OH244668   5.504   2.600   2.655 -0.3270  0.1966 -0.1062
 7726TIP3    H144669   5.561   2.629   2.727 -1.3043 -4.2190  2.8930
 7726TIP3    H244670   5.417   2.632   2.680 -0.0390  3.1582 -2.3643
 7727TIP3   OH244671   1.125   5.087  15.220 -0.2307 -0.6321  0.3263
 7727TIP3    H144672   1.101   5.062  15.309 -3.1939  1.0941  0.1711
 7727TIP3    H244673   1.043   5.120  15.182  1.1834 -0.2214 -2.6659
 7728TIP3   OH244674   0.403   0.856  14.418  0.0448  0.5068  0.0136
 7728TIP3    H144675   0.344   0.917  14.464 -1.2640  0.0295 -0.9682
 7728TIP3    H244676   0.401   0.777  14.471 -0.7603  0.2622 -0.3614
 7729TIP3   OH244677   6.648   4.653   0.393  0.3693  0.4169  0.1900
 7729TIP3    H144678   6.582   4.616   0.451  1.7226 -1.3579  0.6637
 7729TIP3    H244679   6.610   4.644   0.305 -1.2500  2.2012  0.6290
 7730TIP3   OH244680   2.280   5.795  14.072 -0.1787 -0.2228  0.0217
 7730TIP3    H144681   2.315   5.760  13.991  2.3952  0.3579  0.7908
 7730TIP3    H244682   2.186   5.776  14.068 -0.5485  1.3641 -3.8847
 7731TIP3   OH244683   5.143   4.957   4.931 -0.3506  0.2131  0.0481
 7731TIP3    H144684   5.151   4.927   5.022  1.0392 -0.0493 -0.1419
 7731TIP3    H244685   5.083   4.894   4.890  0.2947 -0.6336  0.3814
 7732TIP3   OH244686   3.279   1.687   2.802  0.3347 -0.2197  0.6080
 7732TIP3    H144687   3.191   1.725   2.797  0.2963  0.0308  2.3953
 7732TIP3    H244688   3.334   1.759   2.832  0.7530 -0.8910  1.4892
 7733TIP3   OH244689   6.806   4.298  14.101 -0.1899 -0.1441 -0.1437
 7733TIP3    H144690   6.840   4.336  14.182  1.6090  1.7327 -1.6550
 7733TIP3    H244691   6.873   4.235  14.074 -0.7499 -0.7165 -0.2210
 7734TIP3   OH244692   3.282   6.744   5.044  0.2354  0.3646  0.1922
 7734TIP3    H144693   3.219   6.721   5.112 -0.6795  1.5180 -0.2377
 7734TIP3    H244694   3.335   6.814   5.082 -0.8179  1.5993 -0.5249
 7735TIP3   OH244695   1.782   6.072   5.464  0.5493  0.6045 -0.0806
 7735TIP3    H144696   1.789   6.152   5.515  1.2834  0.0052  0.7989
 7735TIP3    H244697   1.782   6.002   5.529 -0.5730 -0.1010 -0.7986
 7736TIP3   OH244698   4.267   0.627  12.821 -0.7145 -0.0492 -0.6264
 7736TIP3    H144699   4.186   0.613  12.772 -0.1913 -0.4011 -1.4162
 7736TIP3    H244700   4.331   0.572  12.776  0.1645  0.8951 -0.5455
 7737TIP3   OH244701   0.301   5.422  13.864 -0.1744  0.3763 -0.0629
 7737TIP3    H144702   0.326   5.383  13.948  4.0426  1.1007 -0.7948
 7737TIP3    H244703   0.266   5.348  13.814 -0.2152 -0.6396  1.3718
 7738TIP3   OH244704   3.032   3.502   2.277  0.3695 -0.1190  0.1147
 7738TIP3    H144705   3.086   3.423   2.276 -0.0404 -0.4130  0.5063
 7738TIP3    H244706   3.089   3.570   2.311  0.1950 -0.6728  1.6076
 7739TIP3   OH244707   1.500   5.693  16.576  0.1387  0.1888  0.0904
 7739TIP3    H144708   1.492   5.618  16.518 -0.0798 -0.8538  1.4076
 7739TIP3    H244709   1.467   5.767  16.526  1.5327 -0.3430 -1.6969
 7740TIP3   OH244710   6.252   0.403   4.524 -0.0771 -0.1900  0.1434
 7740TIP3    H144711   6.330   0.364   4.565  0.4580 -0.7013 -1.3059
 7740TIP3    H244712   6.179   0.372   4.578  0.5298 -1.5542  0.2317
 7741TIP3   OH244713   5.121   5.931  13.739 -0.1988  0.1675 -0.1310
 7741TIP3    H144714   5.184   5.955  13.671 -1.5710  0.5314 -1.3232
 7741TIP3    H244715   5.079   6.013  13.763  0.4080  0.0712  1.3337
 7742TIP3   OH244716   5.596   0.221  16.016  0.1947 -0.2244 -0.2156
 7742TIP3    H144717   5.509   0.249  16.043  0.8675  2.2817 -0.4704
 7742TIP3    H244718   5.650   0.231  16.095  0.4903 -0.7526 -0.3413
 7743TIP3   OH244719   5.017   0.312  11.246 -0.1038  0.5452 -0.2468
 7743TIP3    H144720   5.076   0.237  11.235 -0.8669 -0.2984  1.1166
 7743TIP3    H244721   5.076   0.387  11.259  0.7181 -0.3365  1.5336
 7744TIP3   OH244722   6.089   1.418  15.059  0.2411 -0.2899 -0.8881
 7744TIP3    H144723   6.120   1.357  14.992  0.3669 -0.2149 -0.8978
 7744TIP3    H244724   6.156   1.486  15.062  0.6290 -0.6961 -0.1227
 7745TIP3   OH244725   6.212   4.791   2.752  0.9147 -0.0394  0.3089
 7745TIP3    H144726   6.128   4.820   2.716 -0.3478 -1.4519  1.9443
 7745TIP3    H244727   6.210   4.695   2.746  2.3089 -0.1183  0.6084
 7746TIP3   OH244728   1.916   1.537   3.220  0.1328 -0.7355 -0.5521
 7746TIP3    H144729   1.928   1.572   3.131 -1.3792 -0.2875 -0.6187
 7746TIP3    H244730   1.910   1.442   3.208 -0.5789 -0.6416 -1.0181
 7747TIP3   OH244731   6.562   5.205   1.025  0.4141  0.8761 -0.2587
 7747TIP3    H144732   6.495   5.250   1.076  0.7315  0.7053  0.3230
 7747TIP3    H244733   6.539   5.112   1.033 -0.3647  0.9305 -1.6329
 7748TIP3   OH244734   6.776   3.227   3.187 -0.3145 -0.0916 -0.0238
 7748TIP3    H144735   6.681   3.232   3.191 -0.3451 -1.0708  1.8757
 7748TIP3    H244736   6.795   3.135   3.170  0.2827  0.0396 -0.1000
 7749TIP3   OH244737   1.761   5.123  15.264  0.0607  0.2865  0.0454
 7749TIP3    H144738   1.772   5.156  15.175  1.1830  3.6060  1.2548
 7749TIP3    H244739   1.714   5.193  15.310 -2.3449 -2.1571  1.6875
 7750TIP3   OH244740   0.153   1.337   2.170 -0.7152 -0.2484  0.2016
 7750TIP3    H144741   0.179   1.319   2.260  0.0818 -1.5628 -0.2604
 7750TIP3    H244742   0.202   1.416   2.146 -1.0049  0.1592  0.9358
 7751TIP3   OH244743   3.090   3.000  12.082  0.0584  0.1980  0.7280
 7751TIP3    H144744   3.055   2.913  12.065  2.1474 -0.3950 -1.0801
 7751TIP3    H244745   3.042   3.057  12.022  0.0175 -0.0588  0.5131
 7752TIP3   OH244746   4.661   6.090  16.961 -0.2005  0.2707 -0.2225
 7752TIP3    H144747   4.715   6.109  17.038 -1.8575  0.3517  0.9813
 7752TIP3    H244748   4.602   6.166  16.955 -0.3230  0.0996 -1.3818
 7753TIP3   OH244749   1.879   5.262   3.315  0.2453  0.0674  0.0445
 7753TIP3    H144750   1.964   5.219   3.315  0.6501  0.8536 -0.2138
 7753TIP3    H244751   1.899   5.356   3.313 -0.6207  0.2525 -1.5165
 7754TIP3   OH244752   2.833   6.048   4.842  0.3485 -0.4146  0.2282
 7754TIP3    H144753   2.815   5.964   4.800  0.8008 -0.2168 -0.3769
 7754TIP3    H244754   2.768   6.054   4.912  0.8543 -1.6500  0.8424
 7755TIP3   OH244755   2.384   6.742  16.209  0.4018 -0.4548  0.6191
 7755TIP3    H144756   2.348   6.817  16.161  0.3480 -2.8974 -3.6961
 7755TIP3    H244757   2.317   6.675  16.203  1.7774 -1.9547  1.2536
 7756TIP3   OH244758   6.692   3.770   4.434 -0.3225 -0.6390  0.0171
 7756TIP3    H144759   6.693   3.821   4.353  1.4858 -0.1939  0.2909
 7756TIP3    H244760   6.679   3.679   4.405 -1.2932 -0.3061 -0.6344
 7757TIP3   OH244761   0.461   0.104  13.012 -0.0218  0.1234  0.1062
 7757TIP3    H144762   0.534   0.165  13.004 -0.2413  0.3519 -0.2280
 7757TIP3    H244763   0.496   0.020  12.984  0.0867  0.2549 -0.1580
 7758TIP3   OH244764   2.238   0.688  11.721 -0.2275  0.0615 -0.3281
 7758TIP3    H144765   2.268   0.664  11.633 -1.0170 -0.3950 -0.4776
 7758TIP3    H244766   2.149   0.655  11.726  0.6189 -2.2891  1.5816
 7759TIP3   OH244767   6.104   6.226   3.962 -0.0078 -0.0856  0.5449
 7759TIP3    H144768   6.068   6.313   3.947 -2.3622 -1.0159  0.2696
 7759TIP3    H244769   6.154   6.207   3.883 -1.0658  0.3072 -0.2518
 7760TIP3   OH244770   0.197   4.689  11.754 -0.0839  0.1633  0.5298
 7760TIP3    H144771   0.189   4.758  11.819  0.2291 -0.0244  0.7675
 7760TIP3    H244772   0.181   4.608  11.803 -0.5945  0.0743  0.2249
 7761TIP3   OH244773   3.633   2.152   5.372 -0.5234 -0.2942 -0.0308
 7761TIP3    H144774   3.692   2.208   5.423 -0.2073  1.4673 -2.1463
 7761TIP3    H244775   3.592   2.212   5.309 -3.1033 -1.8260  0.0566
 7762TIP3   OH244776   2.319   0.974   2.893  0.4715  0.1809  0.1891
 7762TIP3    H144777   2.403   1.000   2.933 -0.6843  2.4882  1.3239
 7762TIP3    H244778   2.268   1.055   2.891 -1.0369 -0.7211 -2.3773
 7763TIP3   OH244779   1.042   4.968  16.174  0.4178  0.5747  0.6440
 7763TIP3    H144780   1.082   4.920  16.101 -0.5775  2.3227 -1.1438
 7763TIP3    H244781   1.114   4.979  16.237  1.5189 -0.3660 -0.3977
 7764TIP3   OH244782   3.408   5.497   1.649 -0.0941  0.1441 -0.1850
 7764TIP3    H144783   3.464   5.427   1.682  1.7902  1.5518 -0.2455
 7764TIP3    H244784   3.342   5.452   1.596  1.1231 -1.5825 -0.3161
 7765TIP3   OH244785   3.022   6.343   2.923  0.5428  0.1567 -0.1981
 7765TIP3    H144786   2.939   6.296   2.934  0.3916  0.6186  0.7455
 7765TIP3    H244787   2.996   6.432   2.902  0.8182  0.0946 -0.8121
 7766TIP3   OH244788   3.851   0.289   6.086  0.1541  0.2181  0.7816
 7766TIP3    H144789   3.842   0.259   5.995 -3.5589  0.7070  0.8535
 7766TIP3    H244790   3.807   0.374   6.088  1.7759  1.0833  2.7061
 7767TIP3   OH244791   6.371   2.831  15.187  0.0863 -0.1571  0.6926
 7767TIP3    H144792   6.344   2.781  15.109 -0.6250  2.6972 -1.0237
 7767TIP3    H244793   6.289   2.857  15.229  0.3910  0.6118  0.8272
 7768TIP3   OH244794   6.628   1.992   3.515 -0.4469 -0.2180  0.2487
 7768TIP3    H144795   6.591   2.073   3.550  1.2635  1.1396 -0.8911
 7768TIP3    H244796   6.580   1.976   3.434  1.5830  1.8067 -1.4844
 7769TIP3   OH244797   2.426   0.134   0.146 -0.1529 -0.5398 -0.5022
 7769TIP3    H144798   2.462   0.206   0.094  1.3745  0.6894  2.0689
 7769TIP3    H244799   2.489   0.063   0.136  0.8807  0.1647  0.6350
 7770TIP3   OH244800   2.189   2.886   0.022 -0.4078  0.2133 -0.0335
 7770TIP3    H144801   2.215   2.825  -0.048 -0.6010 -1.6661  1.4385
 7770TIP3    H244802   2.266   2.893   0.077 -1.3303 -1.3427  1.5677
 7771TIP3   OH244803   1.863   5.602  11.329 -0.2831  0.3073 -0.2304
 7771TIP3    H144804   1.887   5.658  11.255  1.8004 -1.1567 -0.7870
 7771TIP3    H244805   1.905   5.643  11.405  2.2691 -0.9463 -0.8202
 7772TIP3   OH244806   4.221   1.130  16.180  0.9366 -0.5266 -0.5099
 7772TIP3    H144807   4.210   1.144  16.085 -2.1176  0.2020 -0.1496
 7772TIP3    H244808   4.271   1.206  16.209  1.8197 -0.7067 -1.5205
 7773TIP3   OH244809   2.297   3.347  13.211 -0.7533  0.5316 -0.1662
 7773TIP3    H144810   2.204   3.369  13.209 -0.8010  0.2561 -1.2962
 7773TIP3    H244811   2.343   3.429  13.193 -0.8078  0.4605 -0.6233
 7774TIP3   OH244812   2.570   2.807   3.629 -0.1110  0.1794  0.0507
 7774TIP3    H144813   2.665   2.814   3.625 -0.0318 -1.0853 -3.1276
 7774TIP3    H244814   2.552   2.774   3.717  2.3596  0.3494  0.6899
 7775TIP3   OH244815   0.286   0.351  15.421  0.3415 -0.0058 -0.0901
 7775TIP3    H144816   0.356   0.315  15.366 -0.0386 -1.0912  0.1248
 7775TIP3    H244817   0.332   0.385  15.498  0.5099 -2.3891  0.9397
 7776TIP3   OH244818   0.520   1.218   4.566 -0.1917  0.2913 -0.5742
 7776TIP3    H144819   0.491   1.307   4.588 -0.3902  0.5466 -1.7686
 7776TIP3    H244820   0.583   1.231   4.495 -0.1328 -0.5160 -0.6755
 7777TIP3   OH244821   2.697   2.294  15.579 -0.7074  0.2557  0.1882
 7777TIP3    H144822   2.619   2.296  15.523 -0.9228  1.7071  0.5140
 7777TIP3    H244823   2.762   2.344  15.531 -0.7228  1.0494  0.9693
 7778TIP3   OH244824   2.423   3.463   2.288 -0.5644 -0.1421 -0.2682
 7778TIP3    H144825   2.493   3.398   2.281 -1.5457 -1.3233  0.3428
 7778TIP3    H244826   2.358   3.435   2.223 -0.3826  1.0747 -1.0018
 7779TIP3   OH244827   3.376   5.540  14.231 -0.5608  0.5907  0.0553
 7779TIP3    H144828   3.335   5.604  14.289 -1.7403 -0.2523  0.1966
 7779TIP3    H244829   3.304   5.508  14.175  0.0018 -0.5174 -0.0727
 7780TIP3   OH244830   3.035   3.616   5.301 -0.1614 -0.3324  0.0286
 7780TIP3    H144831   3.109   3.590   5.355  0.9736 -1.5008 -1.9741
 7780TIP3    H244832   3.074   3.663   5.227 -1.4043 -0.8779 -1.0290
 7781TIP3   OH244833   4.275   4.362  16.116  0.1781 -0.8861 -0.0530
 7781TIP3    H144834   4.368   4.343  16.129  0.2408 -0.3490  0.3038
 7781TIP3    H244835   4.230   4.304  16.177  0.1344 -2.7752 -1.7631
 7782TIP3   OH244836   2.677   0.488   6.313 -0.1870 -0.4287 -0.2409
 7782TIP3    H144837   2.737   0.437   6.367 -0.2981 -0.2275  0.0753
 7782TIP3    H244838   2.653   0.563   6.368 -0.3134 -0.2309 -0.5624
 7783TIP3   OH244839   2.600   6.665  13.148 -0.5587  0.2194  0.1582
 7783TIP3    H144840   2.628   6.756  13.160 -1.3788  0.3383  1.3140
 7783TIP3    H244841   2.636   6.618  13.223 -3.1646  0.3482  1.6332
 7784TIP3   OH244842   1.730   0.118  15.884  0.1225  0.5326 -0.5568
 7784TIP3    H144843   1.723   0.205  15.846  1.5773  1.2548  0.7497
 7784TIP3    H244844   1.819   0.089  15.864  0.2107  0.0498  0.4436
 7785TIP3   OH244845   0.299   3.142  12.476  0.2868  0.1984  0.5694
 7785TIP3    H144846   0.307   3.179  12.564 -1.2326 -0.7015  1.1106
 7785TIP3    H244847   0.389   3.143  12.442  1.2070 -0.9645  2.7559
 7786TIP3   OH244848   3.487   3.574   2.998  0.4099 -0.4868 -0.0344
 7786TIP3    H144849   3.549   3.538   2.934  1.4638 -0.5702  0.9893
 7786TIP3    H244850   3.511   3.667   3.004  0.3234 -0.4818  0.2400
 7787TIP3   OH244851   1.486   2.815  16.206 -0.5126  0.2044  0.2265
 7787TIP3    H144852   1.573   2.826  16.166  0.3375 -1.2218  1.5709
 7787TIP3    H244853   1.425   2.823  16.132  0.7611  0.9758 -0.7965
 7788TIP3   OH244854   2.139   4.611   0.507  0.2027 -0.7195  0.1036
 7788TIP3    H144855   2.093   4.570   0.579  0.0734 -0.6257  0.0741
 7788TIP3    H244856   2.231   4.591   0.523  0.4515  1.2207  1.5725
 7789TIP3   OH244857   3.035   0.975   4.769  0.2977 -0.1197 -0.0381
 7789TIP3    H144858   3.040   0.959   4.675 -0.7196  2.2185 -0.5737
 7789TIP3    H244859   2.959   0.925   4.798 -1.2925  1.5401 -1.1301
 7790TIP3   OH244860   1.692   3.785   3.224 -0.1533 -0.1007 -0.1892
 7790TIP3    H144861   1.618   3.843   3.211  0.7838  1.1905  0.0590
 7790TIP3    H244862   1.656   3.697   3.214 -1.7649  0.4860  0.2377
 7791TIP3   OH244863   6.549   6.363   6.380  0.1073 -0.0226  0.2209
 7791TIP3    H144864   6.612   6.374   6.452 -0.4842  0.2313  0.7019
 7791TIP3    H244865   6.467   6.397   6.414 -0.3236 -0.4516 -0.3705
 7792TIP3   OH244866   0.492   2.783   3.018  0.1369 -0.1250  0.5352
 7792TIP3    H144867   0.425   2.715   3.020  1.4612 -1.4878  0.4193
 7792TIP3    H244868   0.460   2.847   2.954 -0.3132 -1.5746 -0.7544
 7793TIP3   OH244869   1.798   0.004   5.479  0.1297  0.1186 -0.6586
 7793TIP3    H144870   1.800  -0.031   5.568  1.7166  2.1381  0.1827
 7793TIP3    H244871   1.709  -0.015   5.448 -0.0811 -1.6699  0.8880
 7794TIP3   OH244872   6.705   4.890  16.536 -0.2132 -0.1815 -0.1150
 7794TIP3    H144873   6.667   4.802  16.540 -0.6225  0.0335  1.9300
 7794TIP3    H244874   6.785   4.884  16.589  1.3381  0.0142 -2.2935
 7795TIP3   OH244875   4.385   1.779   1.123 -0.0015 -0.1036 -0.1610
 7795TIP3    H144876   4.301   1.813   1.153  0.7554  1.5271  0.1790
 7795TIP3    H244877   4.370   1.756   1.031 -0.8504 -0.0110 -0.0532
 7796TIP3   OH244878   4.357   2.151   4.739  0.5051  0.2348  0.0019
 7796TIP3    H144879   4.358   2.247   4.737 -0.7504  0.2605  0.0388
 7796TIP3    H244880   4.442   2.126   4.703  1.0247  1.3607  0.3787
 7797TIP3   OH244881   0.183   0.102   1.673 -0.1617 -0.8543 -0.1026
 7797TIP3    H144882   0.239   0.037   1.716  0.3533 -0.4153 -0.1035
 7797TIP3    H244883   0.141   0.054   1.601  0.3016 -1.1581 -0.1727
 7798TIP3   OH244884   6.464   4.949  11.014  0.7466 -0.0910  0.5337
 7798TIP3    H144885   6.409   5.014  10.971  1.1281 -0.5873 -0.7481
 7798TIP3    H244886   6.530   4.927  10.949  1.1270 -1.1422  1.2540
 7799TIP3   OH244887   2.370   2.494  15.083 -1.6058  0.0313 -0.0856
 7799TIP3    H144888   2.286   2.491  15.037 -1.8729 -1.7106  0.4545
 7799TIP3    H244889   2.401   2.404  15.081 -0.4555  0.3836  1.0201
 7800TIP3   OH244890   6.268   4.571   1.684 -0.0393  0.4532  0.4515
 7800TIP3    H144891   6.234   4.658   1.665  1.0716  0.7869 -0.1422
 7800TIP3    H244892   6.260   4.523   1.601  2.1424  0.9924 -0.1639
 7801TIP3   OH244893   3.151   4.249  11.505  0.3972  0.4535  0.1146
 7801TIP3    H144894   3.222   4.187  11.523  0.7888  1.4612  2.3903
 7801TIP3    H244895   3.188   4.334  11.527 -1.0608  1.1783 -0.1357
 7802TIP3   OH244896   4.558   5.194   1.217 -0.1966 -0.2773  0.4043
 7802TIP3    H144897   4.653   5.204   1.224 -0.3678  1.4365  0.7375
 7802TIP3    H244898   4.532   5.258   1.151 -1.1138 -0.7953  0.2502
 7803TIP3   OH244899   1.838   3.746  16.904  0.1679 -0.4795 -0.1115
 7803TIP3    H144900   1.866   3.833  16.873 -1.8291  0.0633 -0.5389
 7803TIP3    H244901   1.920   3.697  16.915  1.2192  0.1468 -3.7407
 7804TIP3   OH244902   6.297   3.768   0.276  0.0215  0.3970  0.4084
 7804TIP3    H144903   6.363   3.762   0.345 -0.2738  2.4778  0.9484
 7804TIP3    H244904   6.344   3.806   0.202  0.3203 -1.7671 -0.5988
 7805TIP3   OH244905   0.055   1.903   6.506 -0.0009  0.3049  0.3809
 7805TIP3    H144906  -0.037   1.910   6.483  0.1953  0.9005 -0.2450
 7805TIP3    H244907   0.070   1.974   6.568 -0.1303 -0.2559  1.0714
 7806TIP3   OH244908   6.791   1.516  15.710  0.0162  0.5470 -0.2330
 7806TIP3    H144909   6.856   1.552  15.771  0.7848  0.4169 -0.9648
 7806TIP3    H244910   6.745   1.592  15.675  0.0401  0.6640 -0.0113
 7807TIP3   OH244911   3.177   5.994   1.398  0.6036 -0.0209 -0.4661
 7807TIP3    H144912   3.185   5.925   1.464 -2.4493 -0.3425 -0.3195
 7807TIP3    H244913   3.134   6.066   1.443 -0.2985  0.2777 -1.7433
 7808TIP3   OH244914   1.663   1.889   2.572 -0.3399  0.0010  0.5231
 7808TIP3    H144915   1.632   1.980   2.565 -1.6726 -0.5219 -1.0095
 7808TIP3    H244916   1.682   1.863   2.482  0.2826 -1.1553  0.9745
 7809TIP3   OH244917   4.134   2.693  15.564 -0.1936 -0.6900  0.4677
 7809TIP3    H144918   4.178   2.679  15.648 -0.6628 -0.7702  0.7053
 7809TIP3    H244919   4.205   2.706  15.501  0.1869 -1.6808  0.6840
 7810TIP3   OH244920   0.884   5.501  10.458  0.0660  0.3458  0.2492
 7810TIP3    H144921   0.933   5.573  10.420  0.6478  0.4965  1.2428
 7810TIP3    H244922   0.944   5.426  10.454 -0.2056  0.1358  0.0401
 7811TIP3   OH244923   4.834   5.227  16.662  1.2668  0.2488  0.3486
 7811TIP3    H144924   4.825   5.267  16.749  3.1773 -0.1176  0.7599
 7811TIP3    H244925   4.752   5.181  16.649  0.1962  1.8407  1.1493
 7812TIP3   OH244926   6.295   4.036  14.519  0.8301 -0.0514 -0.4260
 7812TIP3    H144927   6.254   4.066  14.600  0.8833  0.4062 -0.5656
 7812TIP3    H244928   6.374   3.989  14.548  0.9263  0.2351 -0.2192
 7813TIP3   OH244929   6.644   6.306   0.836  0.1251  0.2345  0.1724
 7813TIP3    H144930   6.702   6.238   0.803 -1.4679 -0.0851 -2.2545
 7813TIP3    H244931   6.561   6.290   0.792 -0.4957  3.3440 -0.0179
 7814TIP3   OH244932   1.677   3.686  11.974 -0.0719 -0.2327  0.6399
 7814TIP3    H144933   1.610   3.723  12.030 -1.1448 -1.4081  0.1972
 7814TIP3    H244934   1.743   3.754  11.966 -1.4001  1.1129  0.7755
 7815TIP3   OH244935   5.991   1.899  11.156 -0.0291  0.3471  0.1128
 7815TIP3    H144936   6.013   1.821  11.206 -1.1353 -0.3289 -0.4223
 7815TIP3    H244937   5.917   1.873  11.101 -0.2193  1.6798 -0.3092
 7816TIP3   OH244938   6.155   3.453  15.988  0.1294  0.0453 -0.2991
 7816TIP3    H144939   6.164   3.359  15.974  0.0008 -0.1793  0.9984
 7816TIP3    H244940   6.061   3.467  15.997  0.1572  0.2793 -0.3619
 7817TIP3   OH244941   1.117   2.729   5.156 -0.5718  0.2461  0.0718
 7817TIP3    H144942   1.102   2.695   5.244 -2.0886  1.4364  0.3024
 7817TIP3    H244943   1.049   2.795   5.143 -0.5001 -0.0237 -2.0689
 7818TIP3   OH244944   2.266   0.070  15.893 -0.5817 -0.4690  0.1683
 7818TIP3    H144945   2.274  -0.023  15.869 -2.2477 -0.6128  0.0166
 7818TIP3    H244946   2.177   0.093  15.866  0.3361  1.6319 -1.2585
 7819TIP3   OH244947   5.319   5.977  10.545 -0.2130 -0.0238 -0.4213
 7819TIP3    H144948   5.320   6.041  10.615  1.1043  1.1385 -1.4397
 7819TIP3    H244949   5.226   5.959  10.530 -0.5079 -1.1837  2.3235
 7820TIP3   OH244950   3.105   4.330  17.174  0.5754 -0.1620 -0.8549
 7820TIP3    H144951   3.194   4.357  17.148  1.0650 -1.4142 -0.5418
 7820TIP3    H244952   3.110   4.318  17.268 -0.2774  0.9618 -0.6475
 7821TIP3   OH244953   0.510   4.426   3.072 -0.6314 -0.4677  0.1570
 7821TIP3    H144954   0.521   4.516   3.042  2.8765 -0.8516 -0.2111
 7821TIP3    H244955   0.499   4.375   2.991  3.6378 -0.9027 -0.4098
 7822TIP3   OH244956   2.559   0.145   1.406  0.4221 -0.2344 -0.3165
 7822TIP3    H144957   2.645   0.110   1.430  0.5090 -0.7193 -1.2763
 7822TIP3    H244958   2.536   0.099   1.326 -0.3460  0.5282 -0.5524
 7823TIP3   OH244959   6.090   6.306   5.207 -0.0761 -0.4237 -0.8043
 7823TIP3    H144960   6.164   6.340   5.257  1.6461 -1.6058 -2.3983
 7823TIP3    H244961   6.033   6.266   5.272  0.1476  1.3735  0.5814
 7824TIP3   OH244962   4.195   6.661   3.937  0.5806  0.2676 -0.0994
 7824TIP3    H144963   4.140   6.718   3.883  0.1058 -0.3750 -0.2963
 7824TIP3    H244964   4.135   6.599   3.976  0.9468  0.6242  1.0565
 7825TIP3   OH244965   2.565   3.141  10.995 -0.2214 -0.5091  0.4549
 7825TIP3    H144966   2.532   3.222  10.958  2.6501  0.4213 -0.2858
 7825TIP3    H244967   2.591   3.088  10.919  1.0425 -0.6853  0.9834
 7826TIP3   OH244968   3.286   5.490  17.282  0.2283  0.2898 -0.0536
 7826TIP3    H144969   3.367   5.464  17.326  0.7388 -0.1768 -1.2204
 7826TIP3    H244970   3.217   5.468  17.344  0.6834 -3.1087 -0.5569
 7827TIP3   OH244971   2.980   1.364  11.376 -0.0164 -0.0078  0.2183
 7827TIP3    H144972   2.895   1.335  11.410 -0.0571  0.7499  0.7923
 7827TIP3    H244973   2.966   1.456  11.352  0.8455  0.3659  1.0865
 7828TIP3   OH244974   3.119   6.662   0.086  0.7808 -0.3731  1.1356
 7828TIP3    H144975   3.190   6.632   0.142  0.9500 -3.2330 -0.4294
 7828TIP3    H244976   3.158   6.664  -0.002 -0.7725 -1.0006  0.4036
 7829TIP3   OH244977   5.784   5.635   5.569  0.1254  0.1481  0.1126
 7829TIP3    H144978   5.755   5.690   5.642  1.8340  0.4886  0.5762
 7829TIP3    H244979   5.718   5.566   5.563  1.0985 -1.2822  3.5144
 7830TIP3   OH244980   1.384   0.027   4.613 -0.0846 -0.0274  0.2479
 7830TIP3    H144981   1.408  -0.064   4.595  1.2712  0.0440  1.4816
 7830TIP3    H244982   1.308   0.021   4.671  0.7902 -0.4465  1.3996
 7831TIP3   OH244983   1.367   0.703   4.250  0.9333  0.6433 -0.0557
 7831TIP3    H144984   1.365   0.610   4.226 -0.2155  0.8015 -0.6246
 7831TIP3    H244985   1.313   0.746   4.184  1.5427  1.7373  0.1448
 7832TIP3   OH244986   4.152   1.657   3.684  0.3706  0.2629  0.5010
 7832TIP3    H144987   4.063   1.636   3.711  1.4666 -1.6107  3.1593
 7832TIP3    H244988   4.186   1.575   3.647  1.5061  0.3966  1.1839
 7833TIP3   OH244989   2.289   3.621  16.435  0.1635  0.4923  0.0114
 7833TIP3    H144990   2.254   3.682  16.370  1.4726  0.4705 -0.7539
 7833TIP3    H244991   2.356   3.672  16.482 -1.0369  0.6376  1.6627
 7834TIP3   OH244992   1.024   0.135   4.478 -0.0617 -0.0363  0.6046
 7834TIP3    H144993   0.945   0.189   4.486  0.0475  0.1278  0.5809
 7834TIP3    H244994   1.095   0.198   4.462  0.4276  0.0378  2.7500
 7835TIP3   OH244995   3.107   3.299   3.524 -0.3040 -0.4508  0.7088
 7835TIP3    H144996   3.130   3.210   3.498  0.5503 -0.3657  1.1366
 7835TIP3    H244997   3.176   3.324   3.586 -0.7617  0.3583  0.9017
 7836TIP3   OH244998   4.912   3.865   6.046  1.0301  0.5121 -0.6446
 7836TIP3    H144999   4.917   3.875   5.951  1.5234  0.0986 -0.6656
 7836TIP3    H245000   4.890   3.953   6.077  0.5538  0.5835 -1.1575
 7837TIP3   OH245001   0.524   2.104  15.501 -0.0012  0.1478 -0.1216
 7837TIP3    H145002   0.602   2.053  15.479 -0.1731 -0.0098 -0.3768
 7837TIP3    H245003   0.557   2.190  15.526  0.3651 -0.3347  1.1632
 7838TIP3   OH245004   5.486   2.077  12.957 -0.3972 -0.2900 -0.2010
 7838TIP3    H145005   5.503   2.169  12.935  1.7810 -0.6042 -0.0101
 7838TIP3    H245006   5.520   2.067  13.046  1.5900 -1.8061 -1.0540
 7839TIP3   OH245007   1.490   0.050  13.636  0.1343 -0.1304  0.2920
 7839TIP3    H145008   1.408   0.043  13.685  0.4972 -1.4740  0.7364
 7839TIP3    H245009   1.538  -0.030  13.657  1.5153  0.5645 -0.0620
 7840TIP3   OH245010   4.576   2.904  17.276 -0.1803  0.2668  0.3316
 7840TIP3    H145011   4.566   2.986  17.324 -2.3532  0.1868  0.1096
 7840TIP3    H245012   4.660   2.869  17.306 -0.7478  0.9576  2.9495
 7841TIP3   OH245013   5.196   2.136  13.772 -0.3485 -0.4971  0.3387
 7841TIP3    H145014   5.130   2.100  13.831  0.0410  0.8895  1.6939
 7841TIP3    H245015   5.261   2.177  13.830  0.5485  0.0964 -1.0207
 7842TIP3   OH245016   5.675   5.749  11.474  0.2800 -0.5558 -0.1428
 7842TIP3    H145017   5.685   5.842  11.498  0.8364 -0.8551  0.8661
 7842TIP3    H245018   5.639   5.751  11.386  0.4118  0.6289 -0.1942
 7843TIP3   OH245019   0.708   6.460  16.249  0.6649 -0.5942 -0.0087
 7843TIP3    H145020   0.638   6.395  16.257 -0.5232  0.6337  0.0451
 7843TIP3    H245021   0.712   6.501  16.336  0.2981  0.4569 -0.4722
 7844TIP3   OH245022   4.142   3.286  12.173  0.5083 -0.2698  0.2517
 7844TIP3    H145023   4.055   3.306  12.138 -0.0015 -0.6434  1.2758
 7844TIP3    H245024   4.200   3.287  12.096 -0.5066 -0.6534 -0.5284
 7845TIP3   OH245025   0.896   1.492   0.887 -0.2814 -0.2571  0.7079
 7845TIP3    H145026   0.985   1.524   0.895 -0.4561  1.3161 -2.2469
 7845TIP3    H245027   0.899   1.429   0.815 -1.6083  0.0663  0.3403
 7846TIP3   OH245028   0.404   4.725   1.877 -0.6629 -0.0948  1.0895
 7846TIP3    H145029   0.440   4.655   1.931  0.0445  1.1637  2.3271
 7846TIP3    H245030   0.470   4.794   1.880 -0.8233  0.2189 -1.0401
 7847TIP3   OH245031   5.445   1.164   4.013 -0.2310 -0.0362 -0.1593
 7847TIP3    H145032   5.535   1.137   3.992 -0.2966 -0.3172 -0.0906
 7847TIP3    H245033   5.445   1.169   4.109 -0.1665  0.4008 -0.1811
 7848TIP3   OH245034   3.039   6.423   1.702 -0.1731 -0.2386 -0.1416
 7848TIP3    H145035   2.955   6.442   1.745 -1.4040 -5.7694  0.6838
 7848TIP3    H245036   3.105   6.447   1.767 -1.4574 -0.2455  1.2283
 7849TIP3   OH245037   2.481   4.038   1.472 -0.0461 -0.5843 -0.1608
 7849TIP3    H145038   2.507   4.105   1.535  0.0906 -0.5984 -0.2002
 7849TIP3    H245039   2.443   3.968   1.526  0.3893 -0.7480 -0.0566
 7850TIP3   OH245040   2.340   5.973   3.950  0.3616  0.2182 -0.7388
 7850TIP3    H145041   2.323   5.929   4.033 -0.1879 -0.6042 -1.2767
 7850TIP3    H245042   2.339   5.903   3.885 -0.2614  0.9955 -1.5785
 7851TIP3   OH245043   4.080   4.051   2.889  0.7330 -0.0521 -0.2964
 7851TIP3    H145044   4.069   4.096   2.972  0.0418 -1.0085  0.1477
 7851TIP3    H245045   4.156   4.094   2.848  0.8778  0.6403  0.6738
 7852TIP3   OH245046   0.589   6.215   5.620 -0.4003  0.0719 -0.3263
 7852TIP3    H145047   0.574   6.161   5.698 -0.3967  0.3646 -0.1202
 7852TIP3    H245048   0.629   6.295   5.654 -2.5023  1.1920 -0.3173
 7853TIP3   OH245049   2.710   1.706  14.153  0.3048 -1.0196 -0.2231
 7853TIP3    H145050   2.707   1.610  14.151 -0.1676 -1.0724  1.5326
 7853TIP3    H245051   2.620   1.732  14.175 -0.0072 -0.0577 -2.3622
 7854TIP3   OH245052   6.437   6.095  11.912 -0.5814 -0.7252 -0.3625
 7854TIP3    H145053   6.397   6.092  11.825  1.1898  0.1361 -1.2636
 7854TIP3    H245054   6.421   6.184  11.942 -1.5202 -1.1342  0.3844
 7855TIP3   OH245055   0.047   1.106   2.071 -0.2471  0.3089 -0.5563
 7855TIP3    H145056  -0.016   1.076   2.138 -0.8367  0.6916 -0.9304
 7855TIP3    H245057   0.095   1.177   2.114 -0.8815  0.8045 -0.6602
 7856TIP3   OH245058   6.007   5.794  12.276  0.9471  0.8495  0.2072
 7856TIP3    H145059   6.032   5.883  12.301  1.5267  0.5552  0.6841
 7856TIP3    H245060   5.992   5.749  12.359  0.6423  0.4971 -0.0347
 7857TIP3   OH245061   3.541   3.771  17.061  0.6883 -0.1067  0.8127
 7857TIP3    H145062   3.507   3.716  16.990  0.1337 -2.8285  3.0178
 7857TIP3    H245063   3.596   3.835  17.016 -1.7064  0.0346 -2.2740
 7858TIP3   OH245064   4.118   6.702   3.630 -0.6406 -0.4622  0.1637
 7858TIP3    H145065   4.205   6.702   3.592 -0.9139 -1.9092 -0.5125
 7858TIP3    H245066   4.118   6.778   3.689  1.3632 -0.9395  0.8719
 7859TIP3   OH245067   4.251   2.292  12.522 -0.0773  0.3503  1.0170
 7859TIP3    H145068   4.165   2.249  12.522  0.2998 -0.4884 -0.8568
 7859TIP3    H245069   4.231   2.385  12.511 -0.8320 -0.1091 -4.2584
 7860TIP3   OH245070   0.884   6.777  15.417 -0.0249  0.5593 -0.0506
 7860TIP3    H145071   0.968   6.795  15.459 -0.1346  0.5099  0.1953
 7860TIP3    H245072   0.860   6.690  15.450 -1.6279  1.8060  2.2953
 7861TIP3   OH245073   2.866   0.388   2.503 -0.4408  0.1739  0.3452
 7861TIP3    H145074   2.886   0.481   2.489  0.7300  0.2363  2.1435
 7861TIP3    H245075   2.898   0.370   2.591 -0.2297 -2.0704 -0.1411
 7862TIP3   OH245076   3.114   3.204  15.982 -0.3830 -0.0433 -0.0589
 7862TIP3    H145077   3.112   3.256  16.062 -0.6419  0.4679 -0.3918
 7862TIP3    H245078   3.121   3.268  15.911 -1.2040 -0.4280 -0.5027
 7863TIP3   OH245079   0.908   2.556   2.855  0.8050 -1.2546 -0.4056
 7863TIP3    H145080   0.870   2.642   2.872 -0.9864 -2.3029  1.2635
 7863TIP3    H245081   0.964   2.539   2.931  1.2114 -1.5332 -0.7633
 7864TIP3   OH245082   3.091   5.006   5.436  0.0518 -0.5283  0.0219
 7864TIP3    H145083   3.001   5.015   5.468 -0.3688 -2.1055 -0.5817
 7864TIP3    H245084   3.080   4.978   5.345  1.0610 -2.9733  0.5653
 7865TIP3   OH245085   1.621   1.168  11.343 -0.3674 -0.6349 -0.4289
 7865TIP3    H145086   1.641   1.148  11.434 -0.9978  0.4789 -0.0231
 7865TIP3    H245087   1.614   1.083  11.301  0.5654 -1.1506  0.4143
 7866TIP3   OH245088   5.977   4.042  10.693  0.0346 -0.8235 -0.6593
 7866TIP3    H145089   6.025   4.002  10.766 -0.3584 -1.4333 -0.7221
 7866TIP3    H245090   5.963   3.970  10.632 -0.7590 -0.6094 -0.7447
 7867TIP3   OH245091   2.317   4.904  12.738  0.3692  0.1285 -0.5016
 7867TIP3    H145092   2.370   4.973  12.777 -3.1973  2.3872  0.8237
 7867TIP3    H245093   2.270   4.865  12.811 -0.5264 -1.1091 -1.6830
 7868TIP3   OH245094   5.411   6.679   3.352 -0.6089  0.3329 -0.3261
 7868TIP3    H145095   5.395   6.764   3.393  1.9327 -0.0267  1.7122
 7868TIP3    H245096   5.478   6.697   3.285 -0.0395 -0.0269  0.1348
 7869TIP3   OH245097   3.503   6.648  15.571  0.6106  0.1040  0.2102
 7869TIP3    H145098   3.528   6.663  15.662  0.6257  1.7796 -0.0515
 7869TIP3    H245099   3.420   6.693  15.560  0.3570 -0.5016 -0.4887
 7870TIP3   OH245100   3.070   2.833  11.574 -0.3804  0.1111  0.1669
 7870TIP3    H145101   3.101   2.780  11.648  1.3260  0.3562 -0.3283
 7870TIP3    H245102   3.083   2.924  11.603 -2.6916  0.3127  0.7637
 7871TIP3   OH245103   5.045   3.770  11.771  0.0363 -0.2943  0.0674
 7871TIP3    H145104   5.021   3.683  11.801  1.6687 -0.9857 -0.5338
 7871TIP3    H245105   4.964   3.807  11.736 -1.0288 -0.9474  1.7373
 7872TIP3   OH245106   6.396   3.758   2.876 -0.1815 -0.0098 -0.3478
 7872TIP3    H145107   6.486   3.740   2.902  0.3225  1.3227 -1.0992
 7872TIP3    H245108   6.359   3.672   2.856  0.6854 -0.6390  0.6517
 7873TIP3   OH245109   4.776   0.450  11.325 -0.0771  0.4934 -0.1032
 7873TIP3    H145110   4.865   0.420  11.310  0.0373 -0.1347  1.6411
 7873TIP3    H245111   4.765   0.524  11.266  1.8122  0.9639  0.0878
 7874TIP3   OH245112   0.947   4.403  15.991  0.1065 -0.2717 -0.3593
 7874TIP3    H145113   0.974   4.462  15.921 -2.7169  1.4131 -0.1876
 7874TIP3    H245114   0.985   4.441  16.070  1.6082 -1.0316 -0.6747
 7875TIP3   OH245115   3.192   1.317   3.214 -0.6855  0.0318 -0.2024
 7875TIP3    H145116   3.210   1.352   3.126  0.2099  1.8838  0.6626
 7875TIP3    H245117   3.263   1.351   3.268 -0.3524 -2.3450  0.9713
 7876TIP3   OH245118   0.828   1.385  11.571 -0.3068  0.9804  0.3420
 7876TIP3    H145119   0.858   1.415  11.486  1.2068 -1.9031 -0.2757
 7876TIP3    H245120   0.881   1.433  11.634  1.5935  0.1752 -0.5564
 7877TIP3   OH245121   4.355   0.846  11.068 -0.4926 -0.2794  0.0807
 7877TIP3    H145122   4.429   0.906  11.061 -0.9066  0.1953 -0.3182
 7877TIP3    H245123   4.323   0.858  11.158 -0.2430 -0.3018  0.1734
 7878TIP3   OH245124   3.545   5.602  14.450 -0.1991  0.1164 -0.2108
 7878TIP3    H145125   3.480   5.547  14.406 -0.5445  0.5181 -0.2091
 7878TIP3    H245126   3.541   5.576  14.541 -1.6454  1.3618  0.1225
 7879TIP3   OH245127   5.237   4.421  12.573 -0.0263  0.6566 -0.3884
 7879TIP3    H145128   5.223   4.355  12.505  1.5630 -0.5149  0.3740
 7879TIP3    H245129   5.262   4.499  12.525 -0.9361  0.4505 -1.2447
 7880TIP3   OH245130   6.681   1.656  10.887  0.0011 -0.7171  0.3709
 7880TIP3    H145131   6.634   1.739  10.888 -1.8666 -1.6845 -1.0754
 7880TIP3    H245132   6.773   1.680  10.900 -0.3703  1.6681 -0.9205
 7881TIP3   OH245133   4.435   0.711  10.752  0.2064 -0.2619 -0.4113
 7881TIP3    H145134   4.459   0.731  10.843  0.5183  1.4012 -0.8315
 7881TIP3    H245135   4.429   0.615  10.750 -2.7781 -0.2884  2.1036
 7882TIP3   OH245136   5.164   0.333   1.313 -0.1900  0.4515 -0.0053
 7882TIP3    H145137   5.092   0.313   1.253 -0.5367 -0.0940  0.5810
 7882TIP3    H245138   5.126   0.391   1.378 -0.5647 -1.0703  1.2141
 7883TIP3   OH245139   3.222   0.367   0.513 -0.4239 -0.1110  0.3110
 7883TIP3    H145140   3.151   0.360   0.450  0.8741 -0.6725 -1.1518
 7883TIP3    H245141   3.256   0.456   0.503 -1.4612  0.4703  1.6610
 7884TIP3   OH245142   3.358   6.732   1.730 -0.0251  0.2611 -0.2111
 7884TIP3    H145143   3.270   6.714   1.697 -0.5590  0.6331  0.9356
 7884TIP3    H245144   3.349   6.814   1.778  0.9653  0.3240 -0.1058
 7885TIP3   OH245145   3.982   2.334  16.205  0.0173 -0.8870 -0.0935
 7885TIP3    H145146   4.018   2.246  16.200  0.9499 -0.5999  1.0289
 7885TIP3    H245147   3.909   2.328  16.267 -0.1717 -0.9419 -0.3197
 7886TIP3   OH245148   4.815   3.152   3.329 -0.6366 -0.2071  0.5479
 7886TIP3    H145149   4.816   3.233   3.380  0.8815  0.2260 -0.1173
 7886TIP3    H245150   4.814   3.181   3.238 -1.7256 -0.9663  0.2924
 7887TIP3   OH245151   0.944   2.867   5.734 -0.2398  0.2718 -1.2004
 7887TIP3    H145152   1.003   2.936   5.766  0.5508  1.2106 -4.3066
 7887TIP3    H245153   0.868   2.914   5.702 -1.7083 -0.7544  0.6010
 7888TIP3   OH245154   6.431   2.754  16.429 -0.2355 -0.5318 -0.6997
 7888TIP3    H145155   6.377   2.754  16.509 -0.1635 -1.9327 -0.6268
 7888TIP3    H245156   6.408   2.836  16.385 -1.2868 -0.3741  0.0896
 7889TIP3   OH245157   5.172   4.102   1.515 -0.0386 -0.0470 -0.0125
 7889TIP3    H145158   5.162   4.025   1.570 -1.1454  0.6743  0.8278
 7889TIP3    H245159   5.094   4.103   1.460 -0.5098  0.9583  0.6384
 7890TIP3   OH245160   1.074   5.504  13.487 -0.5586  0.4618  0.4980
 7890TIP3    H145161   1.144   5.456  13.443 -2.2855 -0.8812 -0.9400
 7890TIP3    H245162   1.097   5.596  13.474  0.4258  0.0654 -0.8312
 7891TIP3   OH245163   5.119   0.358   0.467  0.3637  0.4645 -0.5940
 7891TIP3    H145164   5.169   0.420   0.520  0.3422  1.8571 -2.1109
 7891TIP3    H245165   5.045   0.410   0.433 -0.4744 -0.7896 -0.7403
 7892TIP3   OH245166   5.174   4.272  13.276 -0.0962  0.0878 -0.2542
 7892TIP3    H145167   5.151   4.189  13.317 -1.0950 -0.1807 -1.2797
 7892TIP3    H245168   5.243   4.250  13.214  0.3175  0.2076  0.1595
 7893TIP3   OH245169   4.405   3.538   3.744 -0.2277 -0.1115 -0.8093
 7893TIP3    H145170   4.382   3.631   3.742 -0.3997 -0.1537 -2.5907
 7893TIP3    H245171   4.467   3.528   3.672  0.6082 -1.1964  0.0335
 7894TIP3   OH245172   2.115   2.741  12.080  0.2738 -0.7595 -0.0357
 7894TIP3    H145173   2.080   2.676  12.020  0.6372  1.3799 -2.7459
 7894TIP3    H245174   2.037   2.781  12.119 -0.0523 -0.8704 -0.5603
 7895TIP3   OH245175   4.109   4.094  15.791  0.2788  0.4617 -0.1836
 7895TIP3    H145176   4.112   4.042  15.871 -3.8844 -0.3739 -0.3240
 7895TIP3    H245177   4.115   4.030  15.720  1.3070  0.9242 -0.5386
 7896TIP3   OH245178   1.717   1.879  16.782 -0.2338  0.1285 -0.1521
 7896TIP3    H145179   1.672   1.929  16.714 -4.0270 -0.0999  1.8956
 7896TIP3    H245180   1.698   1.787  16.761 -1.3202  0.0513  1.0394
 7897TIP3   OH245181   5.747   2.638   3.781 -0.5565 -0.0980  0.3620
 7897TIP3    H145182   5.682   2.573   3.805 -0.7485  0.8879  2.7202
 7897TIP3    H245183   5.702   2.722   3.789  0.2059  0.4639 -0.8229
 7898TIP3   OH245184   5.303   3.570  13.951 -0.2552  0.2194  0.2310
 7898TIP3    H145185   5.380   3.513  13.947  0.5312  1.1168  1.5620
 7898TIP3    H245186   5.258   3.556  13.868  0.1990 -1.9077  0.2788
 7899TIP3   OH245187   5.743   1.497  16.526  0.3494 -0.2316  0.8421
 7899TIP3    H145188   5.650   1.480  16.513  0.5045  0.2806 -1.1470
 7899TIP3    H245189   5.785   1.412  16.509  0.2738 -0.4576  1.7205
 7900TIP3   OH245190   4.367   5.605   4.545  0.4326  1.0548 -0.8653
 7900TIP3    H145191   4.458   5.575   4.539 -0.3525 -1.6779 -0.6087
 7900TIP3    H245192   4.359   5.639   4.635  0.6003 -1.2483  0.1058
 7901TIP3   OH245193   0.649   2.530   3.819 -0.4642 -0.0014  0.6517
 7901TIP3    H145194   0.582   2.505   3.756 -0.3346  0.6959  0.2245
 7901TIP3    H245195   0.727   2.483   3.791 -0.5913 -0.2520  0.7195
 7902TIP3   OH245196   2.003   2.587   3.302  0.4754 -0.2825 -0.1345
 7902TIP3    H145197   2.039   2.649   3.239  0.3587  1.8099  1.7269
 7902TIP3    H245198   1.918   2.562   3.265  0.6092  0.5300 -1.0268
 7903TIP3   OH245199   1.361   0.473  13.504 -0.0144 -0.1267 -0.2913
 7903TIP3    H145200   1.397   0.487  13.591  1.0350 -1.6387 -0.4313
 7903TIP3    H245201   1.426   0.510  13.444  0.4076 -1.1223 -0.4785
 7904TIP3   OH245202   4.058   0.323  11.616  0.5408  1.0213 -0.4063
 7904TIP3    H145203   4.055   0.228  11.601 -0.2332  0.7161  1.3357
 7904TIP3    H245204   4.150   0.346  11.609  1.0172 -0.2597  1.0508
 7905TIP3   OH245205   1.416   5.388  12.994  0.2009  0.6845  0.1686
 7905TIP3    H145206   1.456   5.448  12.931  0.1312 -0.2608 -0.7986
 7905TIP3    H245207   1.488   5.330  13.019 -0.3601 -0.5684 -1.0306
 7906TIP3   OH245208   0.025   5.183  15.701 -0.1298  0.2906  0.4460
 7906TIP3    H145209  -0.058   5.138  15.714 -1.1654  1.9917  0.0149
 7906TIP3    H245210   0.071   5.129  15.636 -0.4893 -1.1383  1.3350
 7907TIP3   OH245211   3.518   6.313   3.676  0.5081  0.2316  0.1403
 7907TIP3    H145212   3.502   6.219   3.682  0.3008  0.2915  0.5340
 7907TIP3    H245213   3.613   6.320   3.666  0.4135 -0.0822 -1.3139
 7908TIP3   OH245214   6.681   1.315  12.832  0.4941  0.0821 -0.1701
 7908TIP3    H145215   6.775   1.332  12.839  0.6060 -0.6195  0.1302
 7908TIP3    H245216   6.674   1.221  12.816 -0.1750  0.0451  0.2655
 7909TIP3   OH245217   0.262   1.556   3.371  0.2118 -0.0453  0.7185
 7909TIP3    H145218   0.256   1.650   3.357  1.3059  0.1549  1.5166
 7909TIP3    H245219   0.254   1.518   3.284  1.2488  0.8602  0.2198
 7910TIP3   OH245220   4.520   6.199  16.650  0.1336  0.1189  0.2137
 7910TIP3    H145221   4.425   6.203  16.656  0.1986  0.6151  1.0885
 7910TIP3    H245222   4.537   6.137  16.579 -0.8369 -0.2139  0.2562
 7911TIP3   OH245223   3.775   4.913  12.675 -0.5715  0.4900  0.5063
 7911TIP3    H145224   3.809   4.824  12.686 -2.8414 -0.4698  0.2511
 7911TIP3    H245225   3.808   4.961  12.752 -0.8684 -1.0870  1.6552
 7912TIP3   OH245226   0.135   2.525   4.601 -0.3937 -0.1866  0.3055
 7912TIP3    H145227   0.072   2.594   4.583  3.0748  2.6548 -2.2870
 7912TIP3    H245228   0.189   2.560   4.672  1.6034  0.0301 -1.2440
 7913TIP3   OH245229   1.740   3.484   2.657 -0.7494 -0.1119  0.7716
 7913TIP3    H145230   1.809   3.433   2.699  0.1450  0.5141  0.0885
 7913TIP3    H245231   1.762   3.575   2.678  0.8160  0.3963 -2.5365
 7914TIP3   OH245232   6.486   6.505  15.562 -0.4366 -0.5897 -0.5300
 7914TIP3    H145233   6.553   6.446  15.596  0.9705  0.6180 -1.1023
 7914TIP3    H245234   6.487   6.491  15.467 -0.4367  0.0027 -0.6201
 7915TIP3   OH245235   5.827   2.258  12.563 -0.3646  0.5010 -0.2251
 7915TIP3    H145236   5.787   2.345  12.570 -0.1012  0.6185 -0.1798
 7915TIP3    H245237   5.752   2.199  12.551 -0.4324  0.9397 -2.2946
 7916TIP3   OH245238   0.472   4.245  11.396 -0.2619 -0.1194 -0.3784
 7916TIP3    H145239   0.391   4.227  11.349 -0.4562 -0.7429  0.1737
 7916TIP3    H245240   0.459   4.331  11.435  1.5463  2.5826 -4.9238
 7917TIP3   OH245241   2.219   5.786  15.647 -0.7484  0.3559  0.0421
 7917TIP3    H145242   2.190   5.763  15.559 -0.4491  0.8319 -0.1856
 7917TIP3    H245243   2.313   5.765  15.648 -1.0946 -1.2520  0.7979
 7918TIP3   OH245244   2.816   3.535  16.504 -0.1961  0.2379  0.2282
 7918TIP3    H145245   2.907   3.564  16.506  1.5037 -4.2361  1.7880
 7918TIP3    H245246   2.791   3.528  16.596 -0.8567 -1.7004 -0.0523
 7919TIP3   OH245247   3.951   4.487   2.720 -0.1255  0.4141 -0.3303
 7919TIP3    H145248   3.992   4.454   2.800 -0.9978 -0.2365 -0.1273
 7919TIP3    H245249   3.861   4.454   2.724  0.1160 -0.6208 -2.1339
 7920TIP3   OH245250   5.947   1.865   4.658  0.3243 -0.2481  0.0287
 7920TIP3    H145251   6.014   1.901   4.716  0.6853 -0.5319 -0.2071
 7920TIP3    H245252   5.875   1.929   4.660  0.7790  0.2679 -0.0496
 7921TIP3   OH245253   0.681   6.492   5.706  0.1777 -0.2798  0.1708
 7921TIP3    H145254   0.612   6.516   5.768 -0.7600 -0.4610 -0.7656
 7921TIP3    H245255   0.692   6.569   5.651  0.9904 -0.1243  0.5441
 7922TIP3   OH245256   0.518   2.855  11.377  0.2229 -0.0214 -0.2029
 7922TIP3    H145257   0.494   2.934  11.328 -0.5109  0.3460  0.7197
 7922TIP3    H245258   0.518   2.882  11.468  1.2980 -0.7699  0.0371
 7923TIP3   OH245259   3.134   2.157  14.250 -0.4249  0.2928  0.0879
 7923TIP3    H145260   3.225   2.131  14.234 -0.3991  0.7715 -0.6229
 7923TIP3    H245261   3.084   2.109  14.184 -0.5581  0.8238 -0.2023
 7924TIP3   OH245262   6.041   2.587   1.009 -0.0689 -0.4627  0.2425
 7924TIP3    H145263   5.966   2.645   1.002  1.6478  1.7360 -1.4451
 7924TIP3    H245264   6.099   2.613   0.937  2.6654 -1.4753  1.8867
 7925TIP3   OH245265   6.303   0.926  12.114 -0.1175  0.5612  0.0940
 7925TIP3    H145266   6.385   0.885  12.087 -0.4886  0.0477 -0.2756
 7925TIP3    H245267   6.287   0.893  12.202 -1.0493 -1.1093 -0.6599
 7926TIP3   OH245268   0.586   5.008   6.030  0.5902 -0.0920 -0.1027
 7926TIP3    H145269   0.656   5.061   5.992  0.4516 -1.4528 -2.4542
 7926TIP3    H245270   0.553   5.061   6.103  3.2587  1.0904  0.3811
 7927TIP3   OH245271   0.855   5.162   0.281  0.1332  0.3699  0.4016
 7927TIP3    H145272   0.859   5.252   0.248 -0.1682  0.8438  1.5935
 7927TIP3    H245273   0.945   5.130   0.277  0.1639  0.5419 -0.4869
 7928TIP3   OH245274   5.968   5.256  11.880 -0.2560 -0.3148  0.3928
 7928TIP3    H145275   5.876   5.268  11.854 -0.5166 -2.0306  0.4360
 7928TIP3    H245276   5.992   5.339  11.921 -0.8601  1.2847 -2.2328
 7929TIP3   OH245277   1.588   0.618  12.397  0.4687  0.0710  0.2028
 7929TIP3    H145278   1.604   0.672  12.475 -1.2224 -0.2806  0.8351
 7929TIP3    H245279   1.632   0.535  12.417 -0.4683 -0.2384  1.0856
 7930TIP3   OH245280   2.465   5.368  16.018  0.1747  0.3612  0.0063
 7930TIP3    H145281   2.389   5.378  15.961  1.6855  1.1352 -1.9928
 7930TIP3    H245282   2.439   5.407  16.102 -2.1362 -0.8680 -0.0826
 7931TIP3   OH245283   1.646   4.564   3.126  0.0600  0.1825 -0.4930
 7931TIP3    H145284   1.708   4.494   3.108 -1.2745 -0.6741 -1.9875
 7931TIP3    H245285   1.694   4.624   3.183  2.9045  0.5413 -3.0140
 7932TIP3   OH245286   3.205   5.537   0.474 -0.0892 -0.1784  0.3839
 7932TIP3    H145287   3.118   5.550   0.513  0.3164  0.3508  1.1252
 7932TIP3    H245288   3.250   5.620   0.486  0.5014 -0.4223 -0.0738
 7933TIP3   OH245289   2.561   5.157  16.937  0.5362  0.2358  0.2994
 7933TIP3    H145290   2.507   5.235  16.928 -0.8916 -0.4342  2.3293
 7933TIP3    H245291   2.546   5.109  16.855 -0.9825  0.6826  0.2732
 7934TIP3   OH245292   0.799   0.537  14.706 -0.8972  0.0504 -0.0093
 7934TIP3    H145293   0.790   0.567  14.797 -0.8866 -0.3397  0.1215
 7934TIP3    H245294   0.762   0.608  14.654  0.7976  1.1476  0.1885
 7935TIP3   OH245295   3.081   5.609   1.531  0.0038  0.1566  0.2062
 7935TIP3    H145296   2.985   5.613   1.524 -0.1148 -0.7642  1.0327
 7935TIP3    H245297   3.112   5.624   1.442 -0.9752 -1.0386 -0.3792
 7936TIP3   OH245298   0.324   6.128   2.859 -0.1088 -0.1005  0.5442
 7936TIP3    H145299   0.353   6.062   2.796 -1.1892  0.9347 -1.1389
 7936TIP3    H245300   0.230   6.112   2.868  0.0214 -0.1986  1.8975
 7937TIP3   OH245301   3.885   4.189  17.209  0.4730  0.5005 -0.5119
 7937TIP3    H145302   3.799   4.221  17.180  0.1965  0.6960  0.4783
 7937TIP3    H245303   3.948   4.238  17.156 -0.0181  0.6102 -1.0039
 7938TIP3   OH245304   6.805   4.759  13.027 -0.3086 -0.1831  0.0979
 7938TIP3    H145305   6.830   4.668  13.046 -2.8059 -0.9195  0.1784
 7938TIP3    H245306   6.733   4.752  12.965  0.4322  1.8518 -1.1027
 7939TIP3   OH245307   4.428   5.336   4.319 -0.2163  0.1297 -0.4841
 7939TIP3    H145308   4.335   5.356   4.332 -0.5733  0.6224 -3.0969
 7939TIP3    H245309   4.455   5.294   4.400 -2.1186  2.0030  1.2648
 7940TIP3   OH245310   4.451   1.802   2.572  0.1329  0.1717 -0.2524
 7940TIP3    H145311   4.520   1.855   2.613 -0.7651  1.7732 -0.7406
 7940TIP3    H245312   4.380   1.864   2.555 -2.0976 -1.6803  1.5904
 7941TIP3   OH245313   5.590   0.990  13.495 -0.0593  0.5910  0.0764
 7941TIP3    H145314   5.630   0.930  13.432 -1.6319  2.8387 -3.4080
 7941TIP3    H245315   5.496   0.982  13.479 -0.5750  0.8817  2.6418
 7942TIP3   OH245316   6.394   5.754   3.675  0.0392  0.3622 -0.2517
 7942TIP3    H145317   6.414   5.810   3.750 -0.6273  0.3058 -0.0218
 7942TIP3    H245318   6.436   5.797   3.600  0.6887  0.4265  0.1482
 7943TIP3   OH245319   6.622   3.081   5.076 -0.3730  0.1113 -0.1366
 7943TIP3    H145320   6.683   3.007   5.068  0.0619  0.3588  0.7780
 7943TIP3    H245321   6.671   3.147   5.125 -1.2128  0.5024  0.1911
 7944TIP3   OH245322   5.493   0.316   4.777  0.7837  0.3787 -0.1583
 7944TIP3    H145323   5.401   0.339   4.774  0.6944  0.1368  0.6247
 7944TIP3    H245324   5.518   0.308   4.685  0.1969  1.0904 -0.3877
 7945TIP3   OH245325   1.580   5.830   0.090 -0.0214  0.2580  0.2085
 7945TIP3    H145326   1.507   5.848   0.149 -0.7419 -0.7598 -0.3486
 7945TIP3    H245327   1.652   5.806   0.147 -0.5977 -0.3361  0.6923
 7946TIP3   OH245328   5.393   6.016   6.002 -0.1931  0.1357 -0.4985
 7946TIP3    H145329   5.399   5.930   6.043 -1.5469 -0.1044 -0.7754
 7946TIP3    H245330   5.460   6.015   5.934 -0.3688 -0.7925 -0.6658
 7947TIP3   OH245331   6.262   5.901  15.027 -0.0819 -0.5342 -0.1640
 7947TIP3    H145332   6.327   5.904  15.096 -2.6123 -1.3845  2.4723
 7947TIP3    H245333   6.224   5.814  15.033 -1.3719 -0.1336 -1.6893
 7948TIP3   OH245334   1.227   5.663   2.791 -0.0868 -0.2081  0.1131
 7948TIP3    H145335   1.197   5.578   2.759 -0.5610  1.1872 -3.6097
 7948TIP3    H245336   1.304   5.682   2.738  2.6946 -0.0373  3.8050
 7949TIP3   OH245337   4.546   0.746  13.304 -0.3937  0.1005  0.3287
 7949TIP3    H145338   4.589   0.685  13.245  0.2434 -0.8092  1.6868
 7949TIP3    H245339   4.553   0.831  13.259  0.3970 -0.4878 -0.7192
 7950TIP3   OH245340   0.572   1.286  15.429 -0.2774  0.4578 -0.1353
 7950TIP3    H145341   0.628   1.267  15.354 -1.1940 -0.3155 -0.6439
 7950TIP3    H245342   0.633   1.310  15.499  0.6202  0.6409 -0.9616
 7951TIP3   OH245343   2.137   5.759  14.719  0.2310 -0.3737  0.3971
 7951TIP3    H145344   2.198   5.715  14.779  2.3264  0.4761 -0.9958
 7951TIP3    H245345   2.162   5.851  14.723  0.2748 -0.2528 -1.5495
 7952TIP3   OH245346   2.792   5.386  11.015 -0.1149 -0.0438 -0.1904
 7952TIP3    H145347   2.767   5.294  11.024 -1.4617  0.3655  0.5602
 7952TIP3    H245348   2.717   5.427  10.973 -0.0287  0.9147  0.5440
 7953TIP3   OH245349   1.964   2.943  14.514 -0.0229  0.0644  0.2302
 7953TIP3    H145350   1.891   2.914  14.459 -0.3855 -0.0312  0.7567
 7953TIP3    H245351   1.934   3.025  14.553  0.7200  0.7991 -0.6807
 7954TIP3   OH245352   2.582   6.635  14.703 -0.2643 -0.2423  0.5187
 7954TIP3    H145353   2.609   6.658  14.614 -0.4749  1.1767  0.7895
 7954TIP3    H245354   2.581   6.540  14.704  0.6594 -0.2928 -0.7147
 7955TIP3   OH245355   3.756   1.537   4.268 -0.3184 -0.3536 -0.1369
 7955TIP3    H145356   3.701   1.598   4.220  0.9764  0.1783 -0.9837
 7955TIP3    H245357   3.829   1.590   4.301 -0.4318 -0.9835  1.2220
 7956TIP3   OH245358   5.093   5.230   3.520  0.6944 -0.3595 -0.1785
 7956TIP3    H145359   5.136   5.241   3.605  0.5195  1.0563 -0.2515
 7956TIP3    H245360   5.100   5.315   3.478 -1.6996 -0.1912 -0.4191
 7957TIP3   OH245361   3.955   4.911   0.184  0.2627  0.6636  0.3659
 7957TIP3    H145362   3.913   4.841   0.135  2.8321 -2.2150  1.9253
 7957TIP3    H245363   3.918   4.906   0.272  0.7506  0.9888  0.5998
 7958TIP3   OH245364   3.900   5.725   0.673 -0.4719 -0.5416  0.2868
 7958TIP3    H145365   3.808   5.726   0.700 -0.6606 -2.8090 -0.0785
 7958TIP3    H245366   3.897   5.706   0.579  0.3229  2.8847 -0.5685
 7959TIP3   OH245367   0.027   4.187   5.595 -0.0053 -0.2739  0.9273
 7959TIP3    H145368   0.047   4.120   5.529  0.4070 -0.9651  1.7390
 7959TIP3    H245369   0.011   4.266   5.544  2.7666 -0.1453  0.0582
 7960TIP3   OH245370   3.833   5.240   4.259  0.2500  0.1348  0.1000
 7960TIP3    H145371   3.754   5.194   4.230 -0.2581  0.8101  0.3981
 7960TIP3    H245372   3.829   5.236   4.355 -0.7099  2.2698  0.2047
 7961TIP3   OH245373   3.751   1.682   3.040  0.0704 -0.3777  0.1431
 7961TIP3    H145374   3.658   1.661   3.045  0.1157 -1.2225 -1.6619
 7961TIP3    H245375   3.795   1.597   3.048  0.5726 -0.2336 -0.8744
 7962TIP3   OH245376   3.119   3.516   1.389 -0.4216  0.0818 -0.4893
 7962TIP3    H145377   3.163   3.441   1.351 -0.9928 -0.0183 -0.9517
 7962TIP3    H245378   3.176   3.541   1.463  1.0602  0.7005 -1.7727
 7963TIP3   OH245379   4.272   1.169   2.637  0.1756 -0.5154  0.4089
 7963TIP3    H145380   4.302   1.160   2.728 -1.2538 -2.2591  0.7611
 7963TIP3    H245381   4.216   1.093   2.623 -1.3684  0.8439 -1.2616
 7964TIP3   OH245382   6.284   1.252   0.845 -0.3238 -0.1843  0.4218
 7964TIP3    H145383   6.244   1.337   0.827  1.4935  0.4862 -0.7385
 7964TIP3    H245384   6.265   1.200   0.767 -0.2653 -0.3884  0.5446
 7965TIP3   OH245385   0.979   2.313  13.616 -0.2141 -0.0589 -0.1512
 7965TIP3    H145386   1.003   2.222  13.603 -0.0897 -0.0415 -0.0485
 7965TIP3    H245387   0.901   2.310  13.672  0.8138 -0.0604  1.3620
 7966TIP3   OH245388   6.548   2.366  16.823 -0.8970  0.0435  0.0195
 7966TIP3    H145389   6.504   2.282  16.808 -0.1703 -0.2043 -0.8610
 7966TIP3    H245390   6.497   2.429  16.773 -0.7840 -0.0870 -0.2657
 7967TIP3   OH245391   1.174   2.160  17.223 -0.2399  0.0082  0.0166
 7967TIP3    H145392   1.122   2.099  17.277  0.5175 -0.6718 -0.0007
 7967TIP3    H245393   1.206   2.106  17.151 -0.4286  0.6880 -0.5771
 7968TIP3   OH245394   2.566   3.495   4.432  0.2376 -0.2593 -0.1648
 7968TIP3    H145395   2.503   3.565   4.452  0.5338 -0.0458  0.0307
 7968TIP3    H245396   2.512   3.418   4.415 -0.0349 -0.3225  0.9453
 7969TIP3   OH245397   0.788   0.993   4.840 -0.3484 -0.3135 -0.1327
 7969TIP3    H145398   0.849   0.954   4.777 -0.2681  3.4378 -2.6960
 7969TIP3    H245399   0.702   0.966   4.809 -0.2239 -2.3364  1.1096
 7970TIP3   OH245400   3.547   2.305  14.105  0.2688 -0.3593 -0.3143
 7970TIP3    H145401   3.639   2.281  14.119  0.5930 -0.2241 -2.0585
 7970TIP3    H245402   3.500   2.222  14.110  0.7597 -0.7191 -1.4733
 7971TIP3   OH245403   1.430   0.402  11.620 -0.3070  0.3897  0.2531
 7971TIP3    H145404   1.401   0.450  11.542  0.6225  0.4318 -0.0823
 7971TIP3    H245405   1.351   0.362  11.655 -0.7023  0.1666 -0.8589
 7972TIP3   OH245406   5.154   5.866   0.583  1.0036  0.4951 -0.4048
 7972TIP3    H145407   5.176   5.926   0.512 -0.1601  0.2175 -1.0204
 7972TIP3    H245408   5.106   5.795   0.541  1.1558 -0.1769  0.5210
 7973TIP3   OH245409   3.611   5.754  13.843 -0.0445 -0.9063  0.4639
 7973TIP3    H145410   3.697   5.742  13.803  0.5432 -0.4349  1.5179
 7973TIP3    H245411   3.609   5.690  13.914 -1.2287 -2.0150 -0.5472
 7974TIP3   OH245412   4.519   3.268  14.801 -0.6439  0.2093  0.1597
 7974TIP3    H145413   4.521   3.331  14.873  0.6304 -1.5731  1.7872
 7974TIP3    H245414   4.513   3.322  14.722 -1.2311  2.2709  1.5322
 7975TIP3   OH245415   4.668   4.883  14.119 -0.1776 -0.1616 -0.0383
 7975TIP3    H145416   4.744   4.888  14.176  0.5913 -0.2183 -1.0318
 7975TIP3    H245417   4.640   4.792  14.123 -0.0845 -0.1805  0.1927
 7976TIP3   OH245418   4.677   6.194   3.630  0.1421  0.7156  0.8501
 7976TIP3    H145419   4.763   6.152   3.621  0.2216  1.2553 -2.0817
 7976TIP3    H245420   4.695   6.287   3.615 -1.0212  0.6892 -1.0920
 7977TIP3   OH245421   4.411   0.463   4.851  0.0699 -0.2191  0.0189
 7977TIP3    H145422   4.383   0.548   4.817 -0.8335  0.7346  2.8064
 7977TIP3    H245423   4.506   0.470   4.859  0.0726  0.2664 -0.4280
 7978TIP3   OH245424   3.504   6.112   5.604 -0.0829  0.2851 -0.8568
 7978TIP3    H145425   3.420   6.074   5.578 -0.1310  0.4706 -0.9728
 7978TIP3    H245426   3.569   6.065   5.551  0.0246 -0.7972  0.1792
 7979TIP3   OH245427   6.357   3.397   4.121  0.0919  0.2155  0.3686
 7979TIP3    H145428   6.373   3.356   4.206 -2.6301  1.0099  1.3874
 7979TIP3    H245429   6.384   3.488   4.132  0.8249  0.0460 -0.0103
 7980TIP3   OH245430   5.303   3.142   0.532 -0.5195  0.2915 -0.0337
 7980TIP3    H145431   5.332   3.210   0.593 -3.7018  1.6179  0.1673
 7980TIP3    H245432   5.374   3.078   0.533  1.0871  1.9145  2.4049
 7981TIP3   OH245433   2.489   5.366   0.509  0.0458 -0.1996 -0.1112
 7981TIP3    H145434   2.413   5.334   0.557 -0.7963  0.3004 -1.0673
 7981TIP3    H245435   2.555   5.298   0.521 -0.0239  0.0361  1.9601
 7982TIP3   OH245436   2.373   1.279   5.428 -0.0931 -0.4982  0.0164
 7982TIP3    H145437   2.333   1.348   5.375  1.6001  0.6281  0.0990
 7982TIP3    H245438   2.355   1.198   5.381 -1.4048  0.0913 -0.5425
 7983TIP3   OH245439   4.630   2.399  10.118  0.3079 -0.1000 -0.2412
 7983TIP3    H145440   4.541   2.418  10.088  0.5282  1.7997  0.1890
 7983TIP3    H245441   4.620   2.325  10.178 -0.9950  0.1726 -0.0974
 7984TIP3   OH245442   4.180   5.400  14.819  0.0691  0.6587  0.8620
 7984TIP3    H145443   4.271   5.427  14.833 -0.0921  0.8643  1.5164
 7984TIP3    H245444   4.128   5.479  14.833 -0.1972  0.6179  0.1833
 7985TIP3   OH245445   6.673   3.941  12.104  0.0882  0.2505 -0.6813
 7985TIP3    H145446   6.681   3.991  12.022  0.5406  0.9176 -0.2368
 7985TIP3    H245447   6.584   3.959  12.134 -0.6553 -1.2642 -1.8202
 7986TIP3   OH245448   2.758   3.975  13.480 -0.3199  0.1975  0.2276
 7986TIP3    H145449   2.724   4.059  13.510  2.5220  2.3299 -1.8773
 7986TIP3    H245450   2.833   3.958  13.537 -1.7629 -1.8535  1.6507
 7987TIP3   OH245451   5.977   6.768  11.653 -0.3539  0.5103 -0.3596
 7987TIP3    H145452   6.058   6.726  11.626 -0.1573  0.9463 -0.4620
 7987TIP3    H245453   5.929   6.781  11.571  0.5193  2.4141 -0.6173
 7988TIP3   OH245454   3.580   4.150   3.034 -0.1013  0.1370  0.3751
 7988TIP3    H145455   3.562   4.153   2.940  1.6603  2.1660  0.0216
 7988TIP3    H245456   3.512   4.205   3.073 -0.0522  0.3780  0.1266
 7989TIP3   OH245457   5.161   1.241   3.297 -0.6557  0.4088  0.6648
 7989TIP3    H145458   5.189   1.294   3.372 -1.8617  0.2648  1.2336
 7989TIP3    H245459   5.070   1.219   3.316 -0.1541 -2.0350  0.5433
 7990TIP3   OH245460   3.202   1.572   2.202 -0.8278 -0.0947 -0.8220
 7990TIP3    H145461   3.244   1.507   2.146 -0.9019 -0.4218 -0.5030
 7990TIP3    H245462   3.249   1.567   2.286 -1.0955 -0.0251 -0.6651
 7991TIP3   OH245463   3.013   2.860  13.545  0.4610  0.4489  0.0764
 7991TIP3    H145464   2.927   2.832  13.576  0.4755  0.6003  0.2555
 7991TIP3    H245465   3.039   2.793  13.482  0.8376 -0.3841  1.0907
 7992TIP3   OH245466   2.972   5.032   5.927 -0.1796 -0.2488  0.0262
 7992TIP3    H145467   2.888   5.067   5.956 -0.7161 -0.7345 -0.8800
 7992TIP3    H245468   2.949   4.971   5.856  1.0621  1.2655 -1.7880
 7993TIP3   OH245469   3.381   2.567   2.435 -0.1260  0.1348 -0.0459
 7993TIP3    H145470   3.309   2.506   2.453  0.1534 -0.6343 -1.4313
 7993TIP3    H245471   3.452   2.512   2.401  0.5701  1.0800 -0.1763
 7994TIP3   OH245472   5.725   2.912  13.938 -0.4510  0.2726  0.1788
 7994TIP3    H145473   5.802   2.945  13.983  0.0938  2.4033 -2.0776
 7994TIP3    H245474   5.738   2.818  13.933  3.5731  0.6925 -2.5378
 7995TIP3   OH245475   0.258   0.581   3.901  0.3362 -0.3943  0.3095
 7995TIP3    H145476   0.205   0.502   3.912 -0.3889 -0.1421 -1.1082
 7995TIP3    H245477   0.344   0.556   3.934 -0.2273 -1.3505  1.1048
 7996TIP3   OH245478   0.869   3.087  16.383  0.5755 -0.3304  0.3224
 7996TIP3    H145479   0.922   3.156  16.343  0.5911  0.4921  1.7049
 7996TIP3    H245480   0.932   3.036  16.433  0.4670 -1.0074 -0.2216
 7997TIP3   OH245481   5.486   4.100   4.838  0.3464  0.1090 -0.0137
 7997TIP3    H145482   5.568   4.072   4.797  1.0517  1.1430  0.6770
 7997TIP3    H245483   5.435   4.019   4.846  0.3174 -0.2187 -2.5528
 7998TIP3   OH245484   0.220   2.062   4.453 -0.2131  0.0906  0.1146
 7998TIP3    H145485   0.270   2.069   4.534  0.0842 -0.6180  0.0001
 7998TIP3    H245486   0.280   2.023   4.390 -0.3573  0.8789 -0.5329
 7999TIP3   OH245487   4.815   6.455  14.326  0.2450  0.5244  0.6494
 7999TIP3    H145488   4.868   6.511  14.268 -0.5514  0.9213  0.2870
 7999TIP3    H245489   4.737   6.508  14.345 -1.5274 -1.2068 -1.3585
 8000TIP3   OH245490   2.809   5.129   1.921  0.1745  0.0102  0.1001
 8000TIP3    H145491   2.859   5.052   1.892  0.5440  0.2271  0.1517
 8000TIP3    H245492   2.863   5.168   1.989  0.3362  0.7275 -0.4323
 8001TIP3   OH245493   5.287   5.070   0.604  0.1737  0.0581 -0.1965
 8001TIP3    H145494   5.204   5.023   0.609  0.5006 -0.6874 -1.3666
 8001TIP3    H245495   5.334   5.028   0.532  1.0345  1.3247 -0.4002
 8002TIP3   OH245496   6.255   3.316   5.054 -0.0698  0.6891  0.0611
 8002TIP3    H145497   6.345   3.320   5.021  0.0435  0.9852  0.4069
 8002TIP3    H245498   6.212   3.251   4.998  0.0445  1.3738 -0.8422
 8003TIP3   OH245499   5.931   0.067  15.441 -0.1776  0.2213 -0.4395
 8003TIP3    H145500   6.024   0.077  15.422 -0.1328 -0.6702 -0.6897
 8003TIP3    H245501   5.890   0.142  15.397  0.2539 -0.1686 -1.5292
 8004TIP3   OH245502   6.096   6.053  14.085  0.2016  0.5372 -0.1393
 8004TIP3    H145503   6.079   6.099  14.168 -1.4345 -0.9585  0.4311
 8004TIP3    H245504   6.016   6.066  14.034  0.4483 -0.1504 -0.7080
 8005TIP3   OH245505   2.138   1.886  11.651  0.1521 -0.4080 -0.9012
 8005TIP3    H145506   2.074   1.920  11.713  0.1365 -0.2200 -1.0201
 8005TIP3    H245507   2.085   1.847  11.581  0.1039  1.6662 -2.1049
 8006TIP3   OH245508   2.316   2.168  15.295  0.1073  0.5095  0.0397
 8006TIP3    H145509   2.382   2.211  15.350 -0.0597  1.6692 -0.6436
 8006TIP3    H245510   2.310   2.079  15.331  1.9576  0.3986  0.1915
 8007TIP3   OH245511   5.242   0.804   1.911 -0.8123  0.1383 -0.0089
 8007TIP3    H145512   5.324   0.767   1.878  0.2147  0.8775  1.5715
 8007TIP3    H245513   5.178   0.734   1.899  0.5383 -1.2861  0.6682
 8008TIP3   OH245514   3.112   6.330  15.768 -0.1282 -0.4163 -0.0169
 8008TIP3    H145515   3.109   6.356  15.676 -2.2471 -0.8877 -0.1359
 8008TIP3    H245516   3.076   6.241  15.769 -0.1685 -0.4075  1.2707
 8009TIP3   OH245517   6.806   6.209  12.448  0.3872  0.3213 -0.2286
 8009TIP3    H145518   6.879   6.162  12.489  0.1972  0.5606  0.4046
 8009TIP3    H245519   6.729   6.157  12.469  0.0699  1.2860  1.1465
 8010TIP3   OH245520   1.871   6.486  11.456 -0.8364  0.1678 -0.4749
 8010TIP3    H145521   1.898   6.395  11.442  0.5003  0.4021  0.3892
 8010TIP3    H245522   1.831   6.512  11.373  0.6658 -0.5639 -1.4753
 8011TIP3   OH245523   4.334   0.524   0.945 -0.0650 -0.0629 -0.4876
 8011TIP3    H145524   4.239   0.536   0.955 -0.1151 -1.5980  1.4785
 8011TIP3    H245525   4.344   0.463   0.872 -0.5944 -0.0024 -0.6117
 8012TIP3   OH245526   5.897   2.742  14.449  0.1660  0.3000 -0.4351
 8012TIP3    H145527   5.889   2.734  14.354  0.4730  0.3347 -0.4634
 8012TIP3    H245528   5.903   2.651  14.480  1.0057  0.3143 -0.5314
 8013TIP3   OH245529   6.465   1.618  16.109 -0.6778  0.0060  0.2407
 8013TIP3    H145530   6.482   1.676  16.035 -1.3719  0.1928  0.2171
 8013TIP3    H245531   6.552   1.593  16.141 -0.3666  0.9574  0.1667
 8014TIP3   OH245532   5.818   3.081  10.008  0.0305  0.0662  0.0619
 8014TIP3    H145533   5.829   3.176  10.018  1.1581 -0.0570  0.1269
 8014TIP3    H245534   5.848   3.045  10.091  1.8560 -0.4763 -0.7987
 8015TIP3   OH245535   6.222   2.328   2.833  0.0920  0.5195  0.5952
 8015TIP3    H145536   6.261   2.252   2.876  1.0159  0.2530 -0.6744
 8015TIP3    H245537   6.296   2.378   2.799 -0.6152 -0.2221 -2.2852
 8016TIP3   OH245538   3.694   4.233  13.424  0.1103  0.4083  0.1926
 8016TIP3    H145539   3.701   4.138  13.432  2.6177  0.4108 -1.2072
 8016TIP3    H245540   3.784   4.264  13.426 -0.6614  2.8061  0.6655
 8017TIP3   OH245541   5.560   5.323  13.829 -0.0497  0.0460 -0.0193
 8017TIP3    H145542   5.514   5.310  13.746 -1.3107 -1.7535  0.9170
 8017TIP3    H245543   5.506   5.385  13.878 -0.8659 -1.1240  0.5902
 8018TIP3   OH245544   1.315   0.704  12.288  0.1176  0.4450 -0.1933
 8018TIP3    H145545   1.290   0.724  12.378  1.0252  1.9091 -0.2392
 8018TIP3    H245546   1.409   0.688  12.292  0.2003  0.7199 -0.9183
 8019TIP3   OH245547   1.050   5.875  13.228 -0.0121  0.3905 -0.1765
 8019TIP3    H145548   0.999   5.827  13.163 -1.3444  0.7041  0.6021
 8019TIP3    H245549   1.060   5.963  13.190 -1.6443  0.8764  0.4254
 8020TIP3   OH245550   1.178   4.626   1.487 -0.3559 -0.1492  0.1084
 8020TIP3    H145551   1.252   4.673   1.448 -0.1174 -1.0672 -0.5736
 8020TIP3    H245552   1.103   4.685   1.475  0.4887  1.5237  2.2341
 8021TIP3   OH245553   2.279   3.578   4.385  0.0117 -0.0886  0.0489
 8021TIP3    H145554   2.255   3.656   4.335  1.3967  0.4669  0.2107
 8021TIP3    H245555   2.197   3.531   4.398 -0.9504  1.6672  0.5188
 8022TIP3   OH245556   0.889   1.829   0.655 -0.5689 -0.3727  0.2012
 8022TIP3    H145557   0.980   1.834   0.625 -0.2999 -0.9464  0.8897
 8022TIP3    H245558   0.896   1.811   0.749 -1.3461  2.8032  0.9860
 8023TIP3   OH245559   5.886   6.011  13.330 -0.0633  0.2635 -0.7059
 8023TIP3    H145560   5.886   6.105  13.347 -0.5987 -0.0280  1.1298
 8023TIP3    H245561   5.968   5.979  13.367 -0.2705 -0.0921 -0.5323
 8024TIP3   OH245562   0.231   0.038  11.361 -0.3061  0.1837 -0.1300
 8024TIP3    H145563   0.179   0.057  11.440 -2.1101  0.4751 -1.3138
 8024TIP3    H245564   0.243   0.124  11.319  1.5018  0.1711  0.2935
 8025TIP3   OH245565   5.747   5.428  17.081  0.3325  0.7124 -0.2140
 8025TIP3    H145566   5.789   5.513  17.068 -0.6094  1.0386 -1.2821
 8025TIP3    H245567   5.782   5.372  17.012 -0.9899  1.0057 -1.1585
 8026TIP3   OH245568   1.459   1.963   3.214  0.2930  0.1151  0.6246
 8026TIP3    H145569   1.447   1.984   3.306 -0.3458  0.7513  0.4060
 8026TIP3    H245570   1.547   1.927   3.209  0.5985  0.7237  1.3699
 8027TIP3   OH245571   2.396   1.844  12.143  0.1324  0.4117 -0.2401
 8027TIP3    H145572   2.475   1.897  12.146 -0.1062  0.8178 -0.9385
 8027TIP3    H245573   2.377   1.835  12.050  0.3740 -1.2120 -0.1605
 8028TIP3   OH245574   0.493   1.692   5.660 -0.5218  0.2576  0.0993
 8028TIP3    H145575   0.462   1.749   5.590  1.4383 -0.5808 -1.5520
 8028TIP3    H245576   0.577   1.728   5.686 -0.1736 -0.7373  0.4087
 8029TIP3   OH245577   2.497   0.281  16.502 -0.6392 -0.3578 -0.1252
 8029TIP3    H145578   2.460   0.345  16.562 -1.1320 -1.2006  0.4935
 8029TIP3    H245579   2.501   0.326  16.417 -3.7038 -0.3897 -0.4052
 8030TIP3   OH245580   0.596   6.100  14.619  0.1574 -0.6470 -0.4668
 8030TIP3    H145581   0.674   6.117  14.673  0.9090  0.2373 -1.7914
 8030TIP3    H245582   0.525   6.089  14.683  1.1540 -0.3718  0.7290
 8031TIP3   OH245583   6.429   6.394   4.978 -0.7510  0.1598 -0.5878
 8031TIP3    H145584   6.523   6.391   4.963 -0.7069  1.5794 -0.6890
 8031TIP3    H245585   6.411   6.317   5.032  0.5313  0.0981 -0.2239
 8032TIP3   OH245586   5.795   6.558  11.302 -0.3777  0.0504 -0.2555
 8032TIP3    H145587   5.796   6.525  11.392 -0.5927  1.2123  0.1883
 8032TIP3    H245588   5.888   6.566  11.279 -0.2993  0.9358  0.3262
 8033TIP3   OH245589   6.085   2.356  17.280  0.0584  0.0033  0.6788
 8033TIP3    H145590   6.175   2.377  17.256  0.1143  1.3836  1.9905
 8033TIP3    H245591   6.091   2.271  17.324  0.7722  0.2716  1.1041
 8034TIP3   OH245592   1.867   3.243  17.184  0.0348 -0.1760 -0.6747
 8034TIP3    H145593   1.812   3.170  17.213  1.0945 -0.6001  0.3623
 8034TIP3    H245594   1.954   3.222  17.218  0.4083  1.4492 -0.5505
 8035TIP3   OH245595   1.209   3.945  15.298  0.1619  0.4619 -0.0652
 8035TIP3    H145596   1.142   4.003  15.335  0.8203  0.7337  0.7320
 8035TIP3    H245597   1.231   3.886  15.370  0.4252  0.0534 -0.4797
 8036TIP3   OH245598   5.308   4.320  16.646  0.1285  0.6806  0.3805
 8036TIP3    H145599   5.230   4.356  16.689  0.2483  1.5072 -0.0657
 8036TIP3    H245600   5.381   4.348  16.701  0.2346  1.2725 -0.0480
 8037TIP3   OH245601   5.107   6.056   2.650  0.8166 -0.1746  0.1990
 8037TIP3    H145602   5.022   6.093   2.626  0.6166 -0.8088 -0.0933
 8037TIP3    H245603   5.170   6.108   2.600  0.7060  1.0751  1.3253
 8038TIP3   OH245604   4.494   0.735   1.953  0.4741 -0.3509 -0.0924
 8038TIP3    H145605   4.454   0.728   1.867 -1.3990 -0.0167  0.7001
 8038TIP3    H245606   4.584   0.764   1.936 -0.6695  2.5402 -1.8249
 8039TIP3   OH245607   6.342   6.539  17.096 -0.0525 -0.5881 -0.1980
 8039TIP3    H145608   6.304   6.489  17.169 -1.0566 -0.4246 -0.5839
 8039TIP3    H245609   6.400   6.603  17.138  2.0970 -2.7028  0.2613
 8040TIP3   OH245610   4.804   6.776  14.645  0.0542 -0.0626 -0.1635
 8040TIP3    H145611   4.730   6.767  14.584 -0.4481  0.3828  0.3822
 8040TIP3    H245612   4.775   6.838  14.710  0.9061  0.0889  0.0841
 8041TIP3   OH245613   6.202   0.110   2.342 -0.0427 -0.1643 -0.0818
 8041TIP3    H145614   6.289   0.079   2.317 -0.0387 -0.5410  0.3934
 8041TIP3    H245615   6.218   0.173   2.412 -0.2625 -1.8451  1.5556
 8042TIP3   OH245616   5.512   1.029   5.942  0.0031 -0.6270  0.5611
 8042TIP3    H145617   5.530   1.036   6.035  2.8379  0.7432  0.0103
 8042TIP3    H245618   5.435   1.084   5.928  0.2761  0.1295  1.9111
 8043TIP3   OH245619   6.027   1.217   0.092 -0.2260 -0.0271  0.5215
 8043TIP3    H145620   6.061   1.215   0.002  0.6341  1.0619  0.7909
 8043TIP3    H245621   5.971   1.140   0.098 -0.8551  0.2498 -1.1679
 8044TIP3   OH245622   3.806   5.508  14.253  0.1532 -0.0270 -0.3722
 8044TIP3    H145623   3.801   5.448  14.327 -2.7458 -1.2899 -1.4261
 8044TIP3    H245624   3.748   5.581  14.277  0.1755  0.1691 -0.9004
 8045TIP3   OH245625   4.609   3.762  13.897 -0.6226 -0.0610  0.9354
 8045TIP3    H145626   4.535   3.702  13.909 -0.3590 -0.8156 -0.8266
 8045TIP3    H245627   4.580   3.823  13.830  0.2925 -0.2975  0.3006
 8046TIP3   OH245628   5.549   1.260   2.249  0.2556 -0.1594  0.6929
 8046TIP3    H145629   5.598   1.247   2.168 -0.6431  1.8236 -0.2384
 8046TIP3    H245630   5.608   1.231   2.318  0.7415 -2.7120 -0.6593
 8047TIP3   OH245631   2.824   5.829   5.519  0.7903  0.2388 -0.2440
 8047TIP3    H145632   2.785   5.881   5.590  2.7134  0.6349  0.5782
 8047TIP3    H245633   2.800   5.739   5.540 -0.5397  0.5387 -0.3586
 8048TIP3   OH245634   4.316   2.803  12.130 -0.0312 -0.7237  0.1167
 8048TIP3    H145635   4.354   2.878  12.085  1.2940 -1.1536  0.4842
 8048TIP3    H245636   4.241   2.839  12.178 -1.9275 -0.3419 -2.8533
 8049TIP3   OH245637   1.619   3.496  16.107 -0.3045 -0.2542 -0.0801
 8049TIP3    H145638   1.673   3.485  16.029  0.5356 -1.0979  0.5935
 8049TIP3    H245639   1.574   3.412  16.117  1.7791 -1.2642  1.8986
 8050TIP3   OH245640   0.648   5.265   3.461  0.0497 -0.0192  0.5422
 8050TIP3    H145641   0.731   5.312   3.457  1.1604 -1.9857 -1.9876
 8050TIP3    H245642   0.581   5.333   3.450  1.4015  1.3743  0.6624
 8051TIP3   OH245643   0.679   3.141   3.282 -0.2505 -0.0200 -0.0791
 8051TIP3    H145644   0.744   3.130   3.213 -0.7475 -2.0873 -0.2891
 8051TIP3    H245645   0.726   3.118   3.363  0.0086  1.2314  0.1418
 8052TIP3   OH245646   0.853   2.538   4.618 -0.2904  1.0760 -0.1776
 8052TIP3    H145647   0.861   2.521   4.524 -0.6970 -0.6707  0.0745
 8052TIP3    H245648   0.937   2.509   4.654 -0.4508  0.9485  0.0958
 8053TIP3   OH245649   4.771   3.054   0.461  0.2370  0.0214  0.2259
 8053TIP3    H145650   4.822   2.998   0.521  0.6707 -0.0977 -0.2503
 8053TIP3    H245651   4.837   3.102   0.411 -0.1306  0.4000  0.1036
 8054TIP3   OH245652   1.124   1.702  12.588  0.1759  0.2240  0.4056
 8054TIP3    H145653   1.170   1.639  12.532 -1.5252 -0.6115 -0.1138
 8054TIP3    H245654   1.133   1.665  12.676 -1.1652 -1.0155  0.0549
 8055TIP3   OH245655   0.106   4.429   2.314  0.4440 -0.0233 -0.3204
 8055TIP3    H145656   0.124   4.494   2.246 -0.1967  0.3208 -0.1647
 8055TIP3    H245657   0.114   4.345   2.270  1.1927  0.1570 -0.5463
 8056TIP3   OH245658   0.539   0.553  14.935 -0.8445  0.7537  0.2133
 8056TIP3    H145659   0.611   0.495  14.961  0.1570  1.7396 -0.2766
 8056TIP3    H245660   0.526   0.610  15.012 -0.6011  1.0510  0.0364
 8057TIP3   OH245661   3.656   4.558  15.211 -0.9018  0.3646  0.9592
 8057TIP3    H145662   3.636   4.480  15.263  0.3923 -0.7900 -0.1881
 8057TIP3    H245663   3.725   4.602  15.260 -0.2220 -0.3187  0.6545
 8058TIP3   OH245664   1.328   3.158  10.675 -0.3040  0.3944  0.1025
 8058TIP3    H145665   1.237   3.138  10.650 -0.0296 -0.5627 -0.1923
 8058TIP3    H245666   1.381   3.113  10.608  0.4131 -0.3577  1.1403
 8059TIP3   OH245667   6.813   1.269  15.810 -0.6349  0.4227 -0.1450
 8059TIP3    H145668   6.803   1.355  15.771 -1.0415  0.0976 -0.7866
 8059TIP3    H245669   6.879   1.280  15.879 -0.1473  1.0807 -0.7089
 8060TIP3   OH245670   0.583   1.840   6.242  0.3245  0.2469 -0.2054
 8060TIP3    H145671   0.674   1.815   6.256  1.3785  3.1408 -1.2027
 8060TIP3    H245672   0.560   1.891   6.320 -0.6679 -0.8090  0.2460
 8061TIP3   OH245673   4.500   0.633  12.981  0.7562  0.4019 -0.3863
 8061TIP3    H145674   4.416   0.606  12.943 -0.0571  0.8886  1.0149
 8061TIP3    H245675   4.551   0.553  12.983  0.1257 -0.0224 -0.7588
 8062TIP3   OH245676   3.900   2.256  14.973  0.6871  0.2918  0.0185
 8062TIP3    H145677   3.838   2.299  15.031  0.9929  2.5593 -1.2226
 8062TIP3    H245678   3.980   2.307  14.980  2.3631 -2.3266  1.2478
 8063TIP3   OH245679   5.113   3.483   3.257 -0.2466 -0.8980 -0.1732
 8063TIP3    H145680   5.190   3.500   3.310  0.8397 -1.5234 -1.4978
 8063TIP3    H245681   5.099   3.565   3.208 -0.3158 -0.8508 -0.0755
 8064TIP3   OH245682   3.809   3.264  14.748  0.2662  0.4594 -0.1200
 8064TIP3    H145683   3.726   3.304  14.775 -0.1076  0.2473 -0.9290
 8064TIP3    H245684   3.789   3.218  14.667  0.8668 -0.7420  0.3793
 8065TIP3   OH245685   2.615   0.551   6.043  0.4231  0.0385  0.0445
 8065TIP3    H145686   2.571   0.481   5.996  1.8804  0.0595 -1.4750
 8065TIP3    H245687   2.639   0.512   6.127 -0.1590 -0.7842 -0.1593
 8066TIP3   OH245688   2.660   2.332   1.955 -0.3054  0.2139  0.1171
 8066TIP3    H145689   2.604   2.258   1.932  1.2874 -0.3107 -2.4928
 8066TIP3    H245690   2.603   2.392   2.002 -2.9973 -0.4386 -2.0801
 8067TIP3   OH245691   2.942   4.285  13.311  0.3251  0.4442 -0.0484
 8067TIP3    H145692   3.016   4.229  13.334 -1.1862 -1.7812 -0.2267
 8067TIP3    H245693   2.968   4.373  13.338  3.4588 -0.0079 -1.1462
 8068TIP3   OH245694   5.924   3.008  14.078 -0.0391 -0.0326 -0.2535
 8068TIP3    H145695   5.998   2.957  14.109  0.2103 -0.1972 -1.1178
 8068TIP3    H245696   5.933   3.093  14.122  0.5809 -0.0955 -0.2630
 8069TIP3   OH245697   4.478   3.863  15.113  0.2425  0.2765  0.3607
 8069TIP3    H145698   4.508   3.922  15.043 -1.6400 -1.1039 -1.7740
 8069TIP3    H245699   4.429   3.795  15.067  1.8067 -2.6987  2.7434
 8070TIP3   OH245700   0.880   1.450   0.008  0.0949  0.3267  0.0891
 8070TIP3    H145701   0.868   1.467  -0.086  1.3741  1.6868  0.1260
 8070TIP3    H245702   0.959   1.499   0.031 -1.0077  1.2551  2.2130
 8071TIP3   OH245703   2.381   5.518  15.108  0.5403  0.2703  0.6690
 8071TIP3    H145704   2.372   5.575  15.032 -4.4724  0.8305  1.3101
 8071TIP3    H245705   2.398   5.578  15.181  2.2675  0.0605  0.4763
 8072TIP3   OH245706   2.964   1.221   1.662 -0.0944  0.4312  0.0841
 8072TIP3    H145707   3.042   1.276   1.659 -1.0401  1.8800  1.1239
 8072TIP3    H245708   2.964   1.175   1.578  1.1793  1.3775 -0.4651
 8073TIP3   OH245709   1.240   1.428   0.427  0.1607 -0.1550  0.5809
 8073TIP3    H145710   1.161   1.376   0.442 -1.4572  2.3382  1.4673
 8073TIP3    H245711   1.255   1.420   0.333 -1.0005 -0.9362  0.4342
 8074TIP3   OH245712   0.122   4.491   5.695 -0.4306 -0.0835 -0.4408
 8074TIP3    H145713   0.103   4.412   5.745 -2.7806  2.4297  3.1642
 8074TIP3    H245714   0.170   4.547   5.757  1.7399  1.1659 -3.0653
 8075TIP3   OH245715   3.418   5.185   5.709  0.5502  0.5545 -0.1913
 8075TIP3    H145716   3.479   5.249   5.672  1.7923  0.2282  1.2050
 8075TIP3    H245717   3.470   5.136   5.772 -0.9073 -0.4599  0.2705
 8076TIP3   OH245718   4.562   6.365  16.875  0.1499 -0.7485  0.1161
 8076TIP3    H145719   4.561   6.307  16.799 -1.2171  1.0701 -1.3401
 8076TIP3    H245720   4.472   6.365  16.907  0.2224  0.2362  0.3495
 8077TIP3   OH245721   4.727   5.015  14.640 -0.7709  0.1748 -0.2645
 8077TIP3    H145722   4.714   5.110  14.633 -1.2572  0.0292 -1.5335
 8077TIP3    H245723   4.689   4.992  14.724  1.9514  1.5211  1.4905
 8078TIP3   OH245724   2.785   5.842  13.269  0.0736  0.0094  0.1627
 8078TIP3    H145725   2.819   5.855  13.358  2.8583  0.9483 -0.9344
 8078TIP3    H245726   2.863   5.827  13.215 -1.0892  2.9717 -2.7099
 8079TIP3   OH245727   6.007   4.857   5.710 -0.0791  0.7457  0.4482
 8079TIP3    H145728   6.091   4.883   5.673 -1.1406  2.5265 -0.8950
 8079TIP3    H245729   5.997   4.912   5.787 -0.4308  1.2588  0.0431
 8080TIP3   OH245730   1.230   2.122   4.369  0.1665 -0.1015 -0.0315
 8080TIP3    H145731   1.261   2.038   4.402  0.0882 -0.3954 -0.6854
 8080TIP3    H245732   1.154   2.143   4.423  0.6076 -0.1037  0.5984
 8081TIP3   OH245733   2.285   6.107   5.029 -0.6250  0.3614  0.1528
 8081TIP3    H145734   2.203   6.114   5.078 -0.2289  1.5557  0.6726
 8081TIP3    H245735   2.264   6.050   4.955 -2.2485  1.5258 -0.3440
 8082TIP3   OH245736   1.188   2.364   5.552  0.3176 -0.2661  0.0390
 8082TIP3    H145737   1.120   2.325   5.497 -1.7039 -0.1281  2.2736
 8082TIP3    H245738   1.264   2.370   5.495 -1.3298 -1.0424 -2.4150
 8083TIP3   OH245739   2.953   5.325   1.552  0.2678  0.2140  0.2508
 8083TIP3    H145740   2.949   5.324   1.648 -0.5043 -1.5052  0.2324
 8083TIP3    H245741   2.875   5.278   1.524  0.5137  0.6394 -1.2397
 8084TIP3   OH245742   6.063   4.165  14.120 -0.4304  0.1807 -0.4383
 8084TIP3    H145743   6.013   4.084  14.117 -0.5526  0.2077  0.6166
 8084TIP3    H245744   6.123   4.153  14.193  0.8456  0.3110 -1.4229
 8085TIP3   OH245745   1.563   6.013  12.581 -0.0042 -0.1902  0.1056
 8085TIP3    H145746   1.562   5.982  12.490  0.5744 -0.2071  0.1007
 8085TIP3    H245747   1.564   5.933  12.634  0.2324 -0.1790  0.1176
 8086TIP3   OH245748   3.686   1.256   5.593 -0.2831  0.6260 -0.5760
 8086TIP3    H145749   3.677   1.313   5.669 -0.1042 -0.8336  0.5977
 8086TIP3    H245750   3.697   1.315   5.519 -0.2806  2.0911  0.5556
 8087TIP3   OH245751   1.158   4.736   3.171  0.7187 -0.2563 -0.0995
 8087TIP3    H145752   1.177   4.711   3.081 -0.7737  0.4867 -0.6544
 8087TIP3    H245753   1.107   4.664   3.207 -1.2878  0.7136 -0.8527
 8088TIP3   OH245754   1.409   3.967   4.587  0.0675 -0.4018  0.4390
 8088TIP3    H145755   1.397   3.878   4.620  0.1671 -0.0128  1.5646
 8088TIP3    H245756   1.342   4.018   4.633 -0.3206  0.0317 -0.5677
 8089TIP3   OH245757   4.216   6.294   3.552 -0.0943  0.5978 -0.3279
 8089TIP3    H145758   4.296   6.331   3.588  0.0249  0.0762 -0.0517
 8089TIP3    H245759   4.146   6.344   3.593  0.0168 -0.3107  1.0279
 8090TIP3   OH245760   1.459   3.811   0.089  0.7467  0.1559  0.0021
 8090TIP3    H145761   1.419   3.847   0.010 -0.0837 -0.4103  0.1469
 8090TIP3    H245762   1.386   3.772   0.137  1.2178  0.5920  1.1109
 8091TIP3   OH245763   1.968   1.972  14.331 -0.3652  0.2979  0.0766
 8091TIP3    H145764   1.946   1.998  14.242  0.8962  0.1511 -0.2990
 8091TIP3    H245765   1.949   1.879  14.335 -1.2345  0.4757  0.2326
 8092TIP3   OH245766   0.189   5.991   2.163 -0.6799 -0.4331 -0.6502
 8092TIP3    H145767   0.099   6.002   2.131 -1.7340 -1.8082  1.6110
 8092TIP3    H245768   0.207   5.898   2.151 -0.2346 -0.5088  0.4821
 8093TIP3   OH245769   3.441   3.075   3.796 -0.0798  0.2212  0.1422
 8093TIP3    H145770   3.475   3.111   3.878 -1.9535  1.6748  0.3584
 8093TIP3    H245771   3.418   3.152   3.744 -1.4682 -0.6530 -0.6092
 8094TIP3   OH245772   2.348   2.967   0.252 -0.4236  0.3369  0.4653
 8094TIP3    H145773   2.393   2.884   0.266 -0.2392  0.5364  1.0585
 8094TIP3    H245774   2.263   2.956   0.295 -0.6775  0.2127 -0.0524
 8095TIP3   OH245775   2.798   5.157  16.289 -0.7167 -0.1131 -0.2738
 8095TIP3    H145776   2.886   5.120  16.290 -0.7858 -0.3524  1.5752
 8095TIP3    H245777   2.740   5.080  16.297 -1.1108  0.0381 -1.5019
 8096TIP3   OH245778   3.466   3.184   0.467 -0.4457 -0.0229 -0.0499
 8096TIP3    H145779   3.405   3.162   0.538 -0.8162  0.6926 -0.1326
 8096TIP3    H245780   3.506   3.266   0.494 -0.3131  0.0634 -0.4958
 8097TIP3   OH245781   5.705   0.299  16.600  0.9105  0.3831  0.6570
 8097TIP3    H145782   5.799   0.287  16.588  0.7870 -0.3576  0.3468
 8097TIP3    H245783   5.687   0.263  16.687  0.3691 -3.0048 -0.6876
 8098TIP3   OH245784   2.870   4.128  11.619  0.0333 -0.0394  0.4008
 8098TIP3    H145785   2.939   4.175  11.573 -0.2733 -0.9110 -1.0066
 8098TIP3    H245786   2.806   4.106  11.551 -1.0962 -0.2204  1.4734
 8099TIP3   OH245787   4.469   1.017  14.885  0.5115  0.4837 -0.2079
 8099TIP3    H145788   4.493   0.938  14.933 -1.3470 -0.9498 -1.5228
 8099TIP3    H245789   4.543   1.034  14.827  0.9458 -0.2665  0.1190
 8100TIP3   OH245790   3.384   0.839   6.183  0.3419  0.1162  0.1012
 8100TIP3    H145791   3.409   0.836   6.091  1.1533  0.2433  0.3100
 8100TIP3    H245792   3.405   0.928   6.211  1.8754 -0.4633  0.8903
 8101TIP3   OH245793   1.148   6.029  10.651 -0.8414  0.5001 -0.2086
 8101TIP3    H145794   1.203   6.105  10.634  1.4998 -1.4154 -1.7382
 8101TIP3    H245795   1.167   6.006  10.743 -1.2921  1.5048  0.1477
 8102TIP3   OH245796   4.866   4.571  11.180  0.2828  0.0900 -0.3130
 8102TIP3    H145797   4.909   4.654  11.203 -1.3606  0.5979  1.1343
 8102TIP3    H245798   4.876   4.517  11.258  0.0683 -0.5332 -0.7134
 8103TIP3   OH245799   2.998   4.685  15.326  0.6837  0.1442  0.3423
 8103TIP3    H145800   2.938   4.611  15.313 -0.1954  0.9788 -0.5582
 8103TIP3    H245801   2.957   4.736  15.395 -0.2165  1.2410 -0.9519
 8104TIP3   OH245802   4.932   0.145  13.480 -0.0349  0.0707  0.0703
 8104TIP3    H145803   4.938   0.198  13.559 -2.7525 -1.8446  1.7072
 8104TIP3    H245804   4.997   0.075  13.492  3.2580  2.4725 -1.9094
 8105TIP3   OH245805   0.957   4.515  14.452  0.3569 -0.4809 -0.7710
 8105TIP3    H145806   0.882   4.460  14.435  0.4559 -0.1410 -2.4613
 8105TIP3    H245807   1.020   4.492  14.384  1.4649 -0.1771  0.1177
 8106TIP3   OH245808   0.747   6.207  12.489 -0.2033  0.0013 -0.4026
 8106TIP3    H145809   0.833   6.244  12.508 -0.6130  0.3838  0.8313
 8106TIP3    H245810   0.765   6.125  12.443  0.8295 -0.0209  0.0249
 8107TIP3   OH245811   2.886   4.754  14.941  0.4459  1.0218 -0.1369
 8107TIP3    H145812   2.949   4.687  14.968  0.4037  1.4225  1.0241
 8107TIP3    H245813   2.858   4.795  15.023 -0.3109  1.7608 -0.7442
 8108TIP3   OH245814   4.791   5.484  12.937  0.8822 -0.1307  0.2321
 8108TIP3    H145815   4.830   5.416  12.883  0.3321  0.9014 -1.5495
 8108TIP3    H245816   4.696   5.468  12.931  0.7298  0.9349 -0.4461
 8109TIP3   OH245817   5.542   0.571  14.717  0.8043  0.2923  0.0559
 8109TIP3    H145818   5.611   0.604  14.660  1.1559  1.3139  1.0383
 8109TIP3    H245819   5.577   0.581  14.806  1.2518 -3.4185  0.4479
 8110TIP3   OH245820   6.679   3.026  11.329  0.0438  0.3753  0.0074
 8110TIP3    H145821   6.625   2.983  11.262  0.4562 -1.7082  0.9360
 8110TIP3    H245822   6.643   3.115  11.335 -2.1097 -0.3806 -0.6790
 8111TIP3   OH245823   5.745   4.167  16.876 -0.7652 -0.2133  0.4072
 8111TIP3    H145824   5.672   4.176  16.938 -1.1742 -1.2576  0.1082
 8111TIP3    H245825   5.822   4.191  16.926 -1.2439  0.2700  0.9286
 8112TIP3   OH245826   6.714   3.668   0.258 -0.3865  0.1138 -0.7827
 8112TIP3    H145827   6.760   3.587   0.280 -2.0381 -0.6774 -0.0282
 8112TIP3    H245828   6.692   3.659   0.165  1.1785  0.6400 -1.2324
 8113TIP3   OH245829   1.740   3.620   0.802 -0.0319  0.0216  0.2280
 8113TIP3    H145830   1.703   3.708   0.810 -0.9330 -0.4893  2.0490
 8113TIP3    H245831   1.727   3.598   0.710  1.1170  2.1566 -0.5174
 8114TIP3   OH245832   3.229   5.892   3.487 -0.8844  0.0703  0.1185
 8114TIP3    H145833   3.291   5.926   3.422 -2.7164  1.0408 -1.2329
 8114TIP3    H245834   3.188   5.971   3.524 -0.7176 -0.5153  1.6093
 8115TIP3   OH245835   1.208   4.105  14.158  0.3596 -0.3120 -0.5854
 8115TIP3    H145836   1.118   4.087  14.182  0.2120  1.6620  0.5973
 8115TIP3    H245837   1.259   4.084  14.237  0.9615 -1.5027 -1.2710
 8116TIP3   OH245838   1.613   6.271  15.059  0.7003  0.2303  0.2172
 8116TIP3    H145839   1.588   6.360  15.036 -1.8045 -0.1749  1.1098
 8116TIP3    H245840   1.707   6.276  15.077  0.7065  2.5568 -0.2344
 8117TIP3   OH245841   1.798   0.131   3.892  0.0292  0.5955 -0.0084
 8117TIP3    H145842   1.799   0.068   3.963  1.0260 -1.0053 -1.3659
 8117TIP3    H245843   1.718   0.112   3.844 -0.7237  1.7766  0.7126
 8118TIP3   OH245844   1.414   3.220   1.289  0.3693  0.1594  0.3875
 8118TIP3    H145845   1.436   3.128   1.304  0.7027  0.0672 -0.6024
 8118TIP3    H245846   1.388   3.224   1.196  0.6086  1.1112  0.3488
 8119TIP3   OH245847   0.229   3.016  11.138  0.2973  0.1838 -0.3488
 8119TIP3    H145848   0.219   2.947  11.072  2.2392  1.1032 -1.6864
 8119TIP3    H245849   0.266   3.090  11.091 -2.4176  2.5320  0.8521
 8120TIP3   OH245850   3.193   6.381  14.138 -0.2105 -0.1918 -0.3949
 8120TIP3    H145851   3.263   6.317  14.123  0.6763  0.7587 -0.4525
 8120TIP3    H245852   3.121   6.353  14.082 -0.0016 -1.3757 -0.0931
 8121TIP3   OH245853   4.382   5.249  12.753  0.5421  0.3053 -0.1488
 8121TIP3    H145854   4.434   5.327  12.775 -0.3598  0.9929 -0.3624
 8121TIP3    H245855   4.293   5.272  12.781  0.4057 -0.9722  0.5121
 8122TIP3   OH245856   0.893   0.867  15.372 -0.2345 -0.2547 -0.1930
 8122TIP3    H145857   0.947   0.945  15.359  0.3781 -0.2424  2.0009
 8122TIP3    H245858   0.803   0.898  15.367 -0.0396  1.1260  2.7447
 8123TIP3   OH245859   1.752   0.448   5.347  0.2991  0.7801  0.3951
 8123TIP3    H145860   1.829   0.502   5.364  3.1585 -3.0864  0.9475
 8123TIP3    H245861   1.739   0.398   5.427  0.5456 -2.3425 -1.3545
 8124TIP3   OH245862   0.742   5.070  13.383 -0.0850  0.3878  0.1678
 8124TIP3    H145863   0.668   5.036  13.333  0.6719 -0.6948 -0.2672
 8124TIP3    H245864   0.819   5.044  13.332  0.5709  3.2008 -0.4394
 8125TIP3   OH245865   3.154   1.594   3.645  0.7179 -0.2893  0.6398
 8125TIP3    H145866   3.089   1.540   3.601 -0.3295  0.4079  1.2818
 8125TIP3    H245867   3.238   1.551   3.628 -0.0212 -1.7700  0.6539
 8126TIP3   OH245868   2.331   1.397  13.023 -0.4099 -0.4068  0.3199
 8126TIP3    H145869   2.296   1.462  12.963  0.6447  0.1669  0.3000
 8126TIP3    H245870   2.336   1.441  13.108 -1.6617 -1.1387  0.8085
 8127TIP3   OH245871   5.449   2.851  13.167  0.5734  0.5325  0.5174
 8127TIP3    H145872   5.457   2.824  13.259  1.3857  1.2917  0.6758
 8127TIP3    H245873   5.532   2.825  13.127 -0.3604 -1.2070 -0.3967
 8128TIP3   OH245874   1.241   6.685  13.675  0.0934 -0.6645 -0.2263
 8128TIP3    H145875   1.286   6.626  13.735 -1.2071  0.3270  1.8239
 8128TIP3    H245876   1.202   6.627  13.610  1.7314 -1.7448 -0.3107
 8129TIP3   OH245877   0.484   0.339  17.106 -0.3757  0.3937 -0.5275
 8129TIP3    H145878   0.471   0.269  17.170  0.9153 -0.6954 -1.3815
 8129TIP3    H245879   0.557   0.390  17.141  1.0825 -0.8597 -1.5724
 8130TIP3   OH245880   3.091   6.069  15.552 -0.5722 -0.4676 -0.3680
 8130TIP3    H145881   3.006   6.109  15.534 -0.0230  0.1698 -1.7071
 8130TIP3    H245882   3.081   6.028  15.637 -1.8680  0.5975  0.0236
 8131TIP3   OH245883   2.503   1.416  13.733  0.0813  0.4871 -0.0897
 8131TIP3    H145884   2.539   1.328  13.743  1.9264  1.4346  3.1822
 8131TIP3    H245885   2.420   1.414  13.781  0.4493  0.6660  0.5660
 8132TIP3   OH245886   2.744   4.991  15.110 -0.2725  0.4167  0.3365
 8132TIP3    H145887   2.702   5.017  15.192 -0.0150  0.6500  0.3992
 8132TIP3    H245888   2.673   4.982  15.047 -0.8538 -2.6250  1.2832
 8133TIP3   OH245889   0.484   4.896   5.551  0.4415 -0.2790  0.0103
 8133TIP3    H145890   0.569   4.875   5.589  0.0015 -0.7729  0.7535
 8133TIP3    H245891   0.422   4.839   5.597 -0.4470  0.8749  0.3004
 8134TIP3   OH245892   0.413   6.791  13.281  0.2201  0.5729 -0.5650
 8134TIP3    H145893   0.417   6.705  13.239  2.5417  1.3037 -2.0425
 8134TIP3    H245894   0.336   6.833  13.245 -0.9560 -0.8440  0.1853
 8135TIP3   OH245895   1.427   0.382   1.998 -0.0740 -0.3461 -0.5088
 8135TIP3    H145896   1.444   0.449   2.065  1.0162 -1.4157  0.3308
 8135TIP3    H245897   1.499   0.320   2.008 -1.3827 -1.9966 -0.8151
 8136TIP3   OH245898   1.279   1.428  13.967 -0.2226  0.6401 -0.3259
 8136TIP3    H145899   1.259   1.430  14.060  2.1820 -1.3936  0.3576
 8136TIP3    H245900   1.353   1.488  13.957 -0.4615  0.8390 -0.9152
 8137TIP3   OH245901   1.959   5.679  16.247 -0.5822 -0.2218 -0.5489
 8137TIP3    H145902   1.915   5.763  16.234 -0.4788  0.5091  2.8998
 8137TIP3    H245903   1.944   5.631  16.166 -2.7880  2.1718 -1.6866
 8138TIP3   OH245904   4.591   2.008   2.148 -0.4211  0.1517  0.7684
 8138TIP3    H145905   4.511   1.997   2.095 -1.3297 -2.7965  2.4985
 8138TIP3    H245906   4.563   2.059   2.224 -0.3977  0.0393  0.8531
 8139TIP3   OH245907   6.658   1.167   5.841  0.0210 -0.4304  0.6483
 8139TIP3    H145908   6.640   1.261   5.836  1.1709 -0.2713 -1.4830
 8139TIP3    H245909   6.676   1.151   5.934 -3.1504  0.8093  1.5950
 8140TIP3   OH245910   4.221   5.605  11.929 -0.0029  0.0954 -0.0911
 8140TIP3    H145911   4.275   5.545  11.981  0.5274  0.9543  0.3643
 8140TIP3    H245912   4.133   5.594  11.964  0.1242 -0.2760  0.1188
 8141TIP3   OH245913   5.937   6.700  17.064 -0.5608 -0.0131  0.0065
 8141TIP3    H145914   5.932   6.744  17.149 -0.6668 -0.4141  0.2140
 8141TIP3    H245915   6.028   6.709  17.037 -0.4325 -0.2308  0.3550
 8142TIP3   OH245916   0.562   2.633   2.457  0.0470 -0.2976 -0.5758
 8142TIP3    H145917   0.584   2.583   2.379  0.0064  1.0552 -1.4938
 8142TIP3    H245918   0.513   2.708   2.424 -1.3340 -0.4849  0.9132
 8143TIP3   OH245919   1.619   2.173   3.767 -0.8020  0.4214  0.1857
 8143TIP3    H145920   1.640   2.105   3.831 -1.1275  0.5230  0.4060
 8143TIP3    H245921   1.552   2.226   3.810 -0.3197  1.0787  0.1513
 8144TIP3   OH245922   4.807   1.520   0.745 -0.2483  0.1745 -0.2059
 8144TIP3    H145923   4.712   1.524   0.740 -0.1867  0.4579 -1.9776
 8144TIP3    H245924   4.837   1.604   0.710  0.6555 -0.0642 -0.0399
 8145TIP3   OH245925   0.885   1.665   1.294  0.0009  0.1375 -0.3112
 8145TIP3    H145926   0.796   1.665   1.329 -1.0622 -0.3122 -2.8055
 8145TIP3    H245927   0.925   1.587   1.332 -0.7208  0.2226  0.6819
 8146TIP3   OH245928   1.063   1.869  17.089  0.0774  0.1025  0.1106
 8146TIP3    H145929   1.012   1.892  17.011 -0.7591 -0.9367  0.3224
 8146TIP3    H245930   1.154   1.872  17.060 -0.2670 -1.9086 -1.4055
 8147TIP3   OH245931   3.722   4.171   5.847 -0.0150 -0.3324 -0.2569
 8147TIP3    H145932   3.658   4.205   5.784 -0.3053  0.0944  0.2549
 8147TIP3    H245933   3.807   4.191   5.808 -0.1672 -1.5924 -1.3113
 8148TIP3   OH245934   6.229   3.067  14.656  0.4198  0.4606 -0.3860
 8148TIP3    H145935   6.135   3.088  14.661  0.2382 -0.5559  2.2223
 8148TIP3    H245936   6.232   2.985  14.606 -0.2233 -0.1194  0.5050
 8149TIP3   OH245937   2.200   5.384   1.874 -0.4590  0.5772 -0.1279
 8149TIP3    H145938   2.133   5.397   1.941  0.9942  0.9525  1.3437
 8149TIP3    H245939   2.224   5.473   1.846  0.2017  0.5207  0.2165
 8150TIP3   OH245940   4.808   6.306   6.242  0.1077 -0.3706  0.3482
 8150TIP3    H145941   4.903   6.299   6.249  0.6256  2.9255 -1.3499
 8150TIP3    H245942   4.777   6.300   6.332  1.9575 -1.0175  0.9999
 8151TIP3   OH245943   0.035   5.239   2.792 -0.2995 -0.5124  0.3714
 8151TIP3    H145944   0.022   5.152   2.756 -0.8653  0.1297 -1.0365
 8151TIP3    H245945   0.064   5.224   2.882  2.0306 -2.1884 -0.5765
 8152TIP3   OH245946   2.657   1.804  11.810 -0.4163  0.5238 -0.5641
 8152TIP3    H145947   2.598   1.748  11.760 -2.3644  2.5816 -0.7065
 8152TIP3    H245948   2.624   1.893  11.797 -0.7445  1.2818  3.9116
 8153TIP3   OH245949   5.371   0.212   2.086  0.2767  0.6272  0.4448
 8153TIP3    H145950   5.460   0.246   2.079 -0.1628  1.7098 -0.1005
 8153TIP3    H245951   5.351   0.214   2.180  1.9735 -2.7862  1.0564
 8154TIP3   OH245952   5.872   6.161   6.489  0.1245 -0.3009  0.8783
 8154TIP3    H145953   5.812   6.097   6.452  0.2399  0.3987 -0.6036
 8154TIP3    H245954   5.929   6.111   6.547  0.3419 -1.5711 -0.3912
 8155TIP3   OH245955   4.943   3.071  10.550 -0.1127  0.1349  0.0661
 8155TIP3    H145956   4.944   3.002  10.484 -0.4877 -1.9737  2.1165
 8155TIP3    H245957   4.982   3.147  10.506  1.6258 -1.7568 -1.9088
 8156TIP3   OH245958   1.220   0.670  11.963  0.2428  0.2922 -0.4632
 8156TIP3    H145959   1.281   0.707  11.900 -1.4086  2.1484 -1.0481
 8156TIP3    H245960   1.217   0.734  12.034 -1.3688  0.5008 -0.6858
 8157TIP3   OH245961   4.100   2.812   1.055 -0.0538  0.6979 -0.1261
 8157TIP3    H145962   4.190   2.844   1.051  0.1847  0.5039  2.1986
 8157TIP3    H245963   4.080   2.786   0.965  1.5770  2.3701 -1.0453
 8158TIP3   OH245964   3.040   3.932  14.417  0.1251  0.2237 -0.2093
 8158TIP3    H145965   3.127   3.908  14.386 -0.6610 -2.6622 -0.4893
 8158TIP3    H245966   3.055   4.005  14.478  2.3582  1.7341 -2.4035
 8159TIP3   OH245967   6.492   2.787  13.817 -0.1001  0.4607 -0.0060
 8159TIP3    H145968   6.445   2.780  13.734  1.4508  1.2818 -0.9802
 8159TIP3    H245969   6.568   2.730  13.806 -2.2057 -3.3770  2.6635
 8160TIP3   OH245970   5.413   6.603  14.814  0.0311  0.3732  0.3628
 8160TIP3    H145971   5.368   6.660  14.876  1.4829  1.3625  0.5610
 8160TIP3    H245972   5.380   6.516  14.833 -2.0382  1.0597  0.2570
 8161TIP3   OH245973   6.386   3.611   4.951  0.2719  0.4726  0.6121
 8161TIP3    H145974   6.453   3.665   4.993  2.7997 -0.3655 -2.0002
 8161TIP3    H245975   6.421   3.522   4.956  0.5925  0.2810 -2.7215
 8162TIP3   OH245976   6.607   4.187   0.084 -0.1418  0.0761  0.2432
 8162TIP3    H145977   6.619   4.183  -0.010  0.1304  0.0515  0.2805
 8162TIP3    H245978   6.633   4.100   0.116 -1.0437 -0.2033  0.2509
 8163TIP3   OH245979   3.675   1.686  12.182 -0.2164 -0.6758 -0.2840
 8163TIP3    H145980   3.747   1.648  12.132  1.4141 -1.0497  2.1812
 8163TIP3    H245981   3.714   1.709  12.266 -2.8527 -0.2994  0.9240
 8164TIP3   OH245982   5.976   5.649  13.624 -0.5445 -0.3258  0.1380
 8164TIP3    H145983   6.023   5.694  13.695 -0.7728  0.5603 -0.2602
 8164TIP3    H245984   5.938   5.572  13.666 -1.9699  0.9754  1.3786
 8165TIP3   OH245985   0.792   5.425  10.708 -0.0273 -0.3848 -0.0314
 8165TIP3    H145986   0.836   5.340  10.705  1.5444  0.4070 -1.0131
 8165TIP3    H245987   0.811   5.465  10.623 -1.7539  0.4773 -0.0579
 8166TIP3   OH245988   5.988   4.138  11.535  0.2978 -0.4924  0.3863
 8166TIP3    H145989   6.041   4.060  11.518  0.4566 -0.0101 -1.5232
 8166TIP3    H245990   5.904   4.104  11.564  1.4541 -1.2772  3.1425
 8167TIP3   OH245991   6.536   6.173  16.679 -0.6964 -0.5382 -0.1390
 8167TIP3    H145992   6.488   6.231  16.620 -0.8579  0.1593  0.6577
 8167TIP3    H245993   6.572   6.231  16.746 -0.4284 -1.2988  0.3930
 8168TIP3   OH245994   5.791   3.118   1.055 -0.8873  0.2737  0.3584
 8168TIP3    H145995   5.763   3.035   1.092  0.9358 -0.5187  0.0458
 8168TIP3    H245996   5.727   3.182   1.087 -2.0540 -1.1579  0.9646
 8169TIP3   OH245997   3.638   1.847  15.486 -0.5497  0.2825 -0.5620
 8169TIP3    H145998   3.652   1.813  15.398 -1.3720 -1.9496  0.1044
 8169TIP3    H245999   3.672   1.779  15.544  1.4008  2.3495  0.9102
 8170TIP3   OH246000   4.348   3.471   4.935  0.6641  0.5832  0.3494
 8170TIP3    H146001   4.384   3.556   4.907  2.7832 -0.8832 -1.8054
 8170TIP3    H246002   4.291   3.444   4.863 -0.5928  0.4532  1.3522
 8171TIP3   OH246003   2.006   2.228  14.054 -0.3488 -0.1227  0.3801
 8171TIP3    H146004   2.008   2.211  13.960  0.5401  0.6933  0.2324
 8171TIP3    H246005   2.090   2.196  14.087  0.2723  1.5198  0.5113
 8172TIP3   OH246006   3.492   1.944   4.074  0.1112  0.1941 -0.8228
 8172TIP3    H146007   3.401   1.921   4.057  0.5722 -1.1547 -1.6469
 8172TIP3    H246008   3.491   1.991   4.158 -1.2192 -0.6096 -0.3724
 8173TIP3   OH246009   0.543   6.307  11.951 -0.4025 -0.2399  0.7146
 8173TIP3    H146010   0.535   6.391  11.997 -3.1673 -0.2059  0.3799
 8173TIP3    H246011   0.457   6.294  11.911  1.2379 -1.1783 -2.9406
 8174TIP3   OH246012   6.064   0.299  11.485 -0.0112 -0.6261 -0.2410
 8174TIP3    H146013   5.998   0.235  11.460 -1.7025  1.2915 -0.9457
 8174TIP3    H246014   6.073   0.356  11.408  2.2457 -0.6325 -0.0419
 8175TIP3   OH246015   2.873   3.675  11.577  0.0586  0.1224 -0.1610
 8175TIP3    H146016   2.836   3.613  11.639  2.7251 -0.5417  0.8993
 8175TIP3    H246017   2.797   3.714  11.534 -1.7919 -3.1794 -0.2353
 8176TIP3   OH246018   3.260   0.199  10.880 -1.0517 -0.6456  0.7848
 8176TIP3    H146019   3.201   0.168  10.949 -2.2711  2.1511  1.1347
 8176TIP3    H246020   3.292   0.283  10.913  0.4149 -0.4755 -0.9572
 8177TIP3   OH246021   2.907   2.047   1.409 -1.0143 -0.0607  0.2483
 8177TIP3    H146022   2.817   2.034   1.380 -1.3855  1.1880  0.7719
 8177TIP3    H246023   2.921   2.142   1.404 -0.6816  0.1147  2.8584
 8178TIP3   OH246024   2.504   6.449   5.567 -0.8961  0.2641 -0.4933
 8178TIP3    H146025   2.541   6.448   5.655 -1.9465 -0.7060 -0.0266
 8178TIP3    H246026   2.560   6.390   5.516 -0.5988  0.4153 -0.3445
 8179TIP3   OH246027   6.260   3.248  11.252  0.2577  0.4600  0.0071
 8179TIP3    H146028   6.234   3.339  11.267  0.1039  0.8781 -2.3923
 8179TIP3    H246029   6.227   3.227  11.165 -1.2999 -2.5475  1.1513
 8180TIP3   OH246030   2.894   2.403  13.582  0.1386  0.3023 -0.1293
 8180TIP3    H146031   2.800   2.422  13.593  0.1699 -0.7100  3.0211
 8180TIP3    H246032   2.937   2.469  13.637  1.3556  0.9462 -1.7826
 8181TIP3   OH246033   4.640   0.528   0.297 -0.4573  0.5198 -0.6423
 8181TIP3    H146034   4.616   0.444   0.259 -0.2478 -0.2071  0.7670
 8181TIP3    H246035   4.651   0.586   0.221 -0.2001 -0.8111 -1.6681
 8182TIP3   OH246036   5.221   5.841  10.967 -0.1933  0.2296  0.0013
 8182TIP3    H146037   5.224   5.862  11.060 -0.9682  1.1708 -0.1711
 8182TIP3    H246038   5.136   5.798  10.955 -0.1777  0.2812 -0.3023
 8183TIP3   OH246039   0.627   4.272   3.535  0.9304 -0.0224 -0.2034
 8183TIP3    H146040   0.657   4.260   3.626 -2.1974  0.2113  0.9791
 8183TIP3    H246041   0.667   4.354   3.507  2.1851 -0.2417  0.8618
 8184TIP3   OH246042   4.643   2.855   4.456 -0.0928 -0.0938 -0.6021
 8184TIP3    H146043   4.599   2.774   4.482 -1.4967  1.4634  2.4083
 8184TIP3    H246044   4.718   2.861   4.516 -0.4198  1.1385 -0.2876
 8185TIP3   OH246045   3.846   6.443   2.926 -0.3879  0.1296  0.1895
 8185TIP3    H146046   3.774   6.486   2.973  0.4967 -0.5725  2.2851
 8185TIP3    H246047   3.815   6.437   2.835 -3.0673 -0.3136  1.0426
 8186TIP3   OH246048   0.585   2.429   1.503 -0.1230  0.2329  0.2381
 8186TIP3    H146049   0.566   2.335   1.509 -0.0232  0.1148 -1.0039
 8186TIP3    H246050   0.508   2.466   1.460  1.6930 -0.0516 -3.6720
 8187TIP3   OH246051   2.242   0.602   2.768  0.5147 -0.2844 -0.0520
 8187TIP3    H146052   2.198   0.599   2.682 -1.1732 -2.9880  0.7943
 8187TIP3    H246053   2.186   0.659   2.821  0.4628 -0.2225 -0.1707
 8188TIP3   OH246054   3.704   0.263  11.465 -0.2199 -0.5574 -0.9337
 8188TIP3    H146055   3.683   0.170  11.469 -2.1292 -0.1416  2.1085
 8188TIP3    H246056   3.659   0.301  11.541  0.5031  2.8532 -2.0322
 8189TIP3   OH246057   4.798   3.994  11.825 -0.6126  0.0669 -0.2593
 8189TIP3    H146058   4.883   4.037  11.833 -1.5077  1.8180  0.4859
 8189TIP3    H246059   4.807   3.914  11.876  0.1804  0.9437  1.0581
 8190TIP3   OH246060   4.019   2.440   4.332  0.4431 -0.4680  0.4609
 8190TIP3    H146061   4.046   2.523   4.294  2.8332 -1.3240  0.0989
 8190TIP3    H246062   4.101   2.401   4.364 -0.4414 -3.0748 -0.2211
 8191TIP3   OH246063   3.348   3.983   4.408  0.3455 -0.3353 -0.1213
 8191TIP3    H146064   3.408   3.918   4.445  1.2378  0.6025  0.1400
 8191TIP3    H246065   3.405   4.040   4.355 -0.5186 -0.1485 -0.8687
 8192TIP3   OH246066   2.634   0.343  14.930  0.1447  0.0318 -0.2421
 8192TIP3    H146067   2.645   0.292  14.849  2.1308 -1.5555  0.9295
 8192TIP3    H246068   2.699   0.413  14.922  0.2020 -0.0060 -0.0942
 8193TIP3   OH246069   6.645   6.456   2.845  0.4093  0.7443 -0.3288
 8193TIP3    H146070   6.740   6.463   2.850  0.3788  0.5493  0.8358
 8193TIP3    H246071   6.622   6.501   2.764  1.4734  0.9399 -0.5412
 8194TIP3   OH246072   1.984   0.996   0.530 -0.0819  0.2563 -0.1769
 8194TIP3    H146073   2.037   0.924   0.563 -0.0608  0.2206 -0.2886
 8194TIP3    H246074   1.959   1.045   0.608 -2.6299 -1.5402  0.2670
 8195TIP3   OH246075   4.273   6.792   5.654 -0.3361  0.1215  0.3090
 8195TIP3    H146076   4.328   6.869   5.665  0.5295 -0.4702  0.2541
 8195TIP3    H246077   4.300   6.733   5.724 -1.1825 -0.0308  0.5185
 8196TIP3   OH246078   5.507   4.635  15.443 -0.2316 -0.1908  0.3643
 8196TIP3    H146079   5.420   4.641  15.403  0.2709  1.0227 -0.6050
 8196TIP3    H246080   5.566   4.613  15.371  0.6065  1.4551  0.4880
 8197TIP3   OH246081   3.731   2.491   2.040  0.1948  0.1417 -0.0517
 8197TIP3    H146082   3.788   2.519   2.112 -0.6155 -1.8183  1.4462
 8197TIP3    H246083   3.792   2.459   1.973  0.9441  1.5100 -0.0603
 8198TIP3   OH246084   2.386   6.208  16.290 -0.0725 -0.0200 -0.1102
 8198TIP3    H146085   2.376   6.293  16.335 -0.4534 -1.2712  2.3536
 8198TIP3    H246086   2.308   6.158  16.317  1.3221 -1.9797  0.4872
 8199TIP3   OH246087   4.386   1.486   3.374 -1.3407 -0.1855  0.1529
 8199TIP3    H146088   4.364   1.394   3.363  0.0045 -0.4579 -0.4368
 8199TIP3    H246089   4.395   1.497   3.469 -2.1364 -0.4982  0.2681
 8200TIP3   OH246090   2.944   5.859  12.155  0.2526 -0.2335 -0.4614
 8200TIP3    H146091   2.916   5.889  12.242  1.0871 -0.7176 -0.0096
 8200TIP3    H246092   2.881   5.792  12.131 -0.5107  0.5343 -0.6327
 8201TIP3   OH246093   6.083   6.033  14.857 -0.0059  0.1743 -0.1545
 8201TIP3    H146094   6.037   5.954  14.830  0.7094 -0.6461  0.9193
 8201TIP3    H246095   6.149   6.002  14.919  0.2763  1.6181  0.3050
 8202TIP3   OH246096   1.066   3.191   4.993 -0.2307 -0.0138 -0.0774
 8202TIP3    H146097   1.098   3.108   5.028  0.6834  0.7993  1.1110
 8202TIP3    H246098   1.108   3.199   4.908  0.9549 -0.0325  0.4928
 8203TIP3   OH246099   5.405   2.150   2.401  0.3960 -0.0828  0.6600
 8203TIP3    H146100   5.457   2.114   2.329 -1.1510  2.0557 -1.6855
 8203TIP3    H246101   5.461   2.219   2.437  0.7355 -0.4358  0.8265
 8204TIP3   OH246102   1.879   0.109  13.329  0.4143 -0.4751  0.2419
 8204TIP3    H146103   1.871   0.056  13.409 -0.8686 -1.2902 -0.3808
 8204TIP3    H246104   1.793   0.099  13.286  0.6513  0.9606 -0.6104
 8205TIP3   OH246105   1.723   6.609   3.109  0.0153  0.1881 -0.0451
 8205TIP3    H146106   1.699   6.624   3.201  0.8009  0.5668  0.1088
 8205TIP3    H246107   1.656   6.550   3.076  1.7726 -3.1640  1.8403
 8206TIP3   OH246108   4.991   5.621   3.854  0.2984 -0.1349  0.0874
 8206TIP3    H146109   4.988   5.682   3.780  0.7723  1.1454  1.0724
 8206TIP3    H246110   4.951   5.669   3.926  1.0556 -0.8309  1.0065
 8207TIP3   OH246111   5.477   1.298   5.744  0.3800  0.1987 -0.1657
 8207TIP3    H146112   5.453   1.294   5.837 -1.7575 -0.1128 -0.6785
 8207TIP3    H246113   5.444   1.383   5.715  1.0846  0.3113 -0.6448
 8208TIP3   OH246114   2.026   3.020  15.570  0.1363 -0.3047 -0.7160
 8208TIP3    H146115   2.104   3.007  15.623  1.2060 -0.2913 -2.2221
 8208TIP3    H246116   1.990   2.932  15.557  0.6151 -0.4574 -1.0382
 8209TIP3   OH246117   1.519   6.068   5.350  0.2768  0.1129 -0.3621
 8209TIP3    H146118   1.589   6.090   5.411 -1.6025 -0.7493  2.2952
 8209TIP3    H246119   1.518   5.972   5.348 -0.3548  0.1199 -0.9309
 8210TIP3   OH246120   0.546   4.724  17.118 -0.3626 -0.0498 -0.1403
 8210TIP3    H146121   0.459   4.705  17.153  0.3789 -0.3463  1.6523
 8210TIP3    H246122   0.600   4.650  17.147  0.2573 -0.4855 -2.2526
 8211TIP3   OH246123   4.059   1.914   2.149  0.3192  0.4931 -0.6945
 8211TIP3    H146124   4.020   1.833   2.117  2.3492 -0.2514 -1.4794
 8211TIP3    H246125   3.993   1.981   2.132 -2.5535 -1.2525  2.3956
 8212TIP3   OH246126   5.823   2.974  15.924 -0.5271  0.6141 -0.1641
 8212TIP3    H146127   5.846   2.969  16.017  1.9982 -0.1344 -0.7491
 8212TIP3    H246128   5.833   3.066  15.902  1.2732  0.4490 -0.1862
 8213TIP3   OH246129   2.428   0.267  14.153  0.1468  0.0781  0.1461
 8213TIP3    H146130   2.337   0.249  14.177 -0.1394 -0.9503 -1.5265
 8213TIP3    H246131   2.465   0.181  14.132  1.6734  0.4125  1.2268
 8214TIP3   OH246132   3.003   3.438   2.643 -0.6167 -0.0044 -0.0541
 8214TIP3    H146133   2.982   3.350   2.610  0.3871 -0.8009  1.3270
 8214TIP3    H246134   2.926   3.463   2.695 -0.1594 -0.8985  1.0977
 8215TIP3   OH246135   0.173   5.355  15.502 -0.5733  0.4598  0.4021
 8215TIP3    H146136   0.152   5.446  15.481 -0.3688  0.4029 -0.0546
 8215TIP3    H246137   0.211   5.359  15.590  0.1272  0.9101  0.0895
 8216TIP3   OH246138   3.384   5.183  13.531 -0.4430  0.1205  0.1727
 8216TIP3    H146139   3.410   5.255  13.588 -1.0668 -0.0644  0.6936
 8216TIP3    H246140   3.363   5.111  13.590  1.4318 -0.9546 -0.3734
 8217TIP3   OH246141   1.409   2.326   0.263 -0.1536 -0.5773 -0.5710
 8217TIP3    H146142   1.383   2.414   0.287  2.2307  0.0710 -0.1667
 8217TIP3    H246143   1.416   2.279   0.346 -1.2472 -1.1455 -0.7730
 8218TIP3   OH246144   0.475   5.142  13.468  0.0041 -0.0407 -0.3234
 8218TIP3    H146145   0.460   5.231  13.502  0.6627 -0.0575  0.0191
 8218TIP3    H246146   0.559   5.116  13.504 -0.8295 -1.3756  0.7389
 8219TIP3   OH246147   2.825   2.773   5.940 -0.1145 -0.3352  0.0932
 8219TIP3    H146148   2.829   2.765   6.035 -0.3903  0.4843  0.1766
 8219TIP3    H246149   2.913   2.750   5.910  0.8228  2.0872  0.7585
 8220TIP3   OH246150   2.137   4.382   5.955 -0.7826 -0.1853 -0.2357
 8220TIP3    H146151   2.189   4.338   6.023 -0.2483 -0.9321 -1.0993
 8220TIP3    H246152   2.084   4.445   6.003  1.8799  1.5946  0.5931
 8221TIP3   OH246153   0.030   2.593   4.346  0.1281 -0.3103  0.3421
 8221TIP3    H146154  -0.060   2.626   4.338  0.0027 -0.4311  1.1950
 8221TIP3    H246155   0.085   2.670   4.335  0.0246 -0.5003 -2.0801
 8222TIP3   OH246156   4.488   6.570   4.463  0.7605  0.0047  0.6992
 8222TIP3    H146157   4.479   6.552   4.557  1.2867 -0.8439  0.5955
 8222TIP3    H246158   4.475   6.664   4.455  0.6717  0.0765  1.6216
 8223TIP3   OH246159   0.643   4.819   1.820 -0.7979  0.0756 -0.2184
 8223TIP3    H146160   0.659   4.863   1.737  1.1364 -1.0210 -0.4946
 8223TIP3    H246161   0.703   4.861   1.882 -1.3647  0.0840  0.3386
 8224TIP3   OH246162   4.113   0.914   2.240 -0.2557 -0.1500  0.2895
 8224TIP3    H146163   4.025   0.930   2.207 -0.0721  0.4026  0.0545
 8224TIP3    H246164   4.101   0.894   2.333 -0.4564  2.0647  0.7943
 8225TIP3   OH246165   2.183   0.597   5.043 -0.1350  0.0690 -0.3219
 8225TIP3    H146166   2.265   0.644   5.058 -0.6058  1.4186 -1.7547
 8225TIP3    H246167   2.196   0.513   5.087  1.0141  1.2245  1.7134
 8226TIP3   OH246168   3.585   3.896  14.701  0.2534  0.5482 -0.0414
 8226TIP3    H146169   3.546   3.980  14.726 -2.0809 -0.3799 -0.4006
 8226TIP3    H246170   3.612   3.909  14.610  0.5155  1.0905  0.1037
 8227TIP3   OH246171   6.098   2.267  12.478 -0.4921  0.4131 -0.2518
 8227TIP3    H146172   6.156   2.194  12.458  1.0774  1.0732  1.5753
 8227TIP3    H246173   6.017   2.226  12.508  0.2033 -0.5778  0.3305
 8228TIP3   OH246174   3.135   0.200   1.482  0.1226  0.0988  0.0794
 8228TIP3    H146175   3.223   0.184   1.517  0.0584  0.3264  0.3478
 8228TIP3    H246176   3.148   0.259   1.409  0.3091 -0.7519 -0.5890
 8229TIP3   OH246177   5.496   6.576   2.160 -0.2299  0.6603 -0.5829
 8229TIP3    H146178   5.452   6.629   2.226  1.1241  1.1050  0.0163
 8229TIP3    H246179   5.449   6.593   2.079 -1.2702  0.9401  0.0670
 8230TIP3   OH246180   3.608   2.029   1.491  0.2991 -0.4413 -0.2748
 8230TIP3    H146181   3.672   1.979   1.441  1.2400 -0.1450  0.6087
 8230TIP3    H246182   3.633   2.120   1.478 -0.7946 -0.2222 -1.0449
 8231TIP3   OH246183   0.547   5.182   0.663  0.0251 -0.0312  0.1798
 8231TIP3    H146184   0.618   5.124   0.690  1.5042  1.1510 -0.9798
 8231TIP3    H246185   0.563   5.198   0.570 -1.1410  1.1220  0.1436
 8232TIP3   OH246186   5.578   6.099   6.674  0.4784 -0.0196  0.1659
 8232TIP3    H146187   5.619   6.163   6.732 -0.4649  1.3301 -0.5841
 8232TIP3    H246188   5.644   6.031   6.663  0.9590  0.0382  2.2015
 8233TIP3   OH246189   6.631   0.309   2.028 -0.0149  0.5018  0.0078
 8233TIP3    H146190   6.698   0.253   2.065  1.0219  1.5024 -0.2899
 8233TIP3    H246191   6.608   0.269   1.944  0.7575  0.5423 -0.2279
 8234TIP3   OH246192   4.303   6.083  16.399 -0.4015  0.1968 -0.1389
 8234TIP3    H146193   4.245   6.033  16.457 -3.1713  1.1877 -1.8486
 8234TIP3    H246194   4.270   6.173  16.403  2.4123  1.3240  0.3666
 8235TIP3   OH246195   6.746   1.792  15.003 -0.6156 -0.0947  0.2578
 8235TIP3    H146196   6.738   1.771  15.096 -0.8123  0.5583  0.3922
 8235TIP3    H246197   6.753   1.707  14.960 -1.8314 -0.4598  0.7471
 8236TIP3   OH246198   1.713   1.015  11.573 -0.1023 -0.1801  0.2200
 8236TIP3    H146199   1.635   1.023  11.627 -0.0895 -0.8290  0.3444
 8236TIP3    H246200   1.764   1.093  11.593 -1.0042  0.5836 -0.3356
 8237TIP3   OH246201   4.227   4.972   6.750 -0.3962  0.3438  0.3868
 8237TIP3    H146202   4.165   4.921   6.803  0.6631 -0.8492  0.5432
 8237TIP3    H246203   4.313   4.944   6.782  0.2603  3.1372  1.3096
 8238TIP3   OH246204   2.360   4.247   3.468  0.1182  0.1205  0.1711
 8238TIP3    H146205   2.340   4.184   3.398 -0.0526 -0.6287  0.8790
 8238TIP3    H246206   2.454   4.261   3.461 -0.1156  1.2683 -1.2002
 8239TIP3   OH246207   2.383   5.417  17.022  0.3933 -0.5498 -0.4380
 8239TIP3    H146208   2.291   5.442  17.010 -0.5227 -3.0344  0.6214
 8239TIP3    H246209   2.420   5.484  17.078 -1.0000  0.0804 -0.2381
 8240TIP3   OH246210   6.374   0.882   3.128  0.1538 -0.5160 -0.1931
 8240TIP3    H146211   6.372   0.817   3.058  0.2607 -1.8744  1.0241
 8240TIP3    H246212   6.352   0.965   3.085 -0.9078 -1.5004 -1.6112
 8241TIP3   OH246213   4.927   6.066   1.680 -0.0527  0.2735 -0.3016
 8241TIP3    H146214   4.849   6.027   1.640 -1.7063  2.4180  0.6166
 8241TIP3    H246215   4.963   5.997   1.735 -2.4507 -0.2157  0.7522
 8242TIP3   OH246216   4.948   4.349  10.939  0.4417  0.3351  0.3176
 8242TIP3    H146217   4.911   4.261  10.947 -0.2732  0.4022 -1.7149
 8242TIP3    H246218   4.874   4.407  10.954 -0.3065  0.4725 -2.9909
 8243TIP3   OH246219   2.849   4.924  16.129 -0.5314  0.3668 -0.1456
 8243TIP3    H146220   2.894   4.840  16.130  0.3557  0.8411  0.4282
 8243TIP3    H246221   2.912   4.986  16.164 -0.9949  1.3739 -1.0391
 8244TIP3   OH246222   1.991   0.573  11.772  0.1398  0.0159 -0.0168
 8244TIP3    H146223   1.961   0.661  11.797 -1.4610 -0.2281 -0.9397
 8244TIP3    H246224   1.910   0.523  11.759  1.0167 -1.7097  0.8127
 8245TIP3   OH246225   0.763   0.198   4.745 -0.0385  0.4995 -0.2937
 8245TIP3    H146226   0.812   0.274   4.715  1.2444 -0.7825 -1.5962
 8245TIP3    H246227   0.770   0.201   4.841  1.1019  1.3223 -0.3870
 8246TIP3   OH246228   0.563   1.941  12.696  0.4061 -0.4686 -0.0186
 8246TIP3    H146229   0.606   1.910  12.617  1.1259 -1.1545  0.6354
 8246TIP3    H246230   0.621   1.916  12.767  1.3278  2.7651  0.5639
 8247TIP3   OH246231   3.290   6.377   3.227  0.4529 -0.1750 -0.3526
 8247TIP3    H146232   3.216   6.435   3.244  1.9203  2.3521 -2.0019
 8247TIP3    H246233   3.332   6.365   3.312 -0.1521  0.8345  0.1012
 8248TIP3   OH246234   6.644   3.207   1.508 -0.2469 -0.3097  0.6535
 8248TIP3    H146235   6.591   3.132   1.479  1.8737 -2.1759  1.3547
 8248TIP3    H246236   6.691   3.235   1.430 -0.1762 -0.4446  0.6485
 8249TIP3   OH246237   6.439   1.185   4.420  0.0247 -0.4679  0.2607
 8249TIP3    H146238   6.519   1.196   4.369  0.0872  0.1119  0.4864
 8249TIP3    H246239   6.387   1.122   4.369 -0.2956  0.7520 -0.9657
 8250TIP3   OH246240   2.781   6.723   3.715 -0.4626 -0.2446 -0.5370
 8250TIP3    H146241   2.781   6.819   3.718  2.0067 -0.1928  0.7877
 8250TIP3    H246242   2.828   6.697   3.795  1.2975 -2.4314 -2.1416
 8251TIP3   OH246243   2.088   0.716  11.095 -0.6648 -0.3226  0.3434
 8251TIP3    H146244   2.088   0.778  11.022 -2.1111  2.4305  2.4838
 8251TIP3    H246245   2.181   0.708  11.120 -0.5365  2.4982  1.0898
 8252TIP3   OH246246   6.698   2.705   0.780 -0.1708  0.1763 -0.5305
 8252TIP3    H146247   6.716   2.611   0.779  0.9953  0.3908 -0.6267
 8252TIP3    H246248   6.631   2.717   0.713 -0.9646 -0.6955  0.0672
 8253TIP3   OH246249   0.068   6.360  14.442  0.2079 -0.1875  0.4566
 8253TIP3    H146250   0.132   6.289  14.445 -1.1277 -1.7176 -2.6170
 8253TIP3    H246251  -0.015   6.319  14.468  0.0153  1.2239  2.2336
 8254TIP3   OH246252   2.410   1.951  13.967  0.3402  0.1089  0.0470
 8254TIP3    H146253   2.394   1.864  13.932  0.5388  0.6637 -1.4854
 8254TIP3    H246254   2.401   2.010  13.892 -1.9628  1.6834  1.3863
 8255TIP3   OH246255   6.175   5.473   3.334  0.3648 -0.2001 -0.7086
 8255TIP3    H146256   6.221   5.535   3.277 -0.8118  1.4056  0.0085
 8255TIP3    H246257   6.160   5.521   3.416  0.3777 -1.8197  0.3018
 8256TIP3   OH246258   5.854   4.076  15.741 -0.1678 -0.5016 -0.0935
 8256TIP3    H146259   5.919   4.020  15.699 -1.5713 -2.8312  0.7032
 8256TIP3    H246260   5.797   4.105  15.670  1.2209  0.9556 -0.6837
 8257TIP3   OH246261   3.370   1.005  11.375  0.3049 -0.2325 -0.4996
 8257TIP3    H146262   3.318   1.015  11.455  0.3233  0.7049 -0.5923
 8257TIP3    H246263   3.314   1.038  11.306  0.5425 -0.4197 -0.7823
 8258TIP3   OH246264   2.439   0.669  13.334 -0.6294 -0.4038 -0.3164
 8258TIP3    H146265   2.468   0.691  13.422 -1.0238 -0.8538 -0.0689
 8258TIP3    H246266   2.513   0.622  13.295 -0.3935 -0.0578 -0.2818
 8259TIP3   OH246267   4.365   0.796   0.635 -0.0978 -0.1055  0.4519
 8259TIP3    H146268   4.313   0.828   0.709  0.5709 -0.5672  1.1314
 8259TIP3    H246269   4.316   0.719   0.604 -1.3980  1.1586 -0.8233
 8260TIP3   OH246270   2.976   3.962  12.354  0.3862  0.1807 -0.0085
 8260TIP3    H146271   2.946   4.050  12.376  0.4904  0.7220 -1.8405
 8260TIP3    H246272   3.053   3.976  12.298 -1.6892 -0.8668 -3.4649
 8261TIP3   OH246273   4.634   2.522  15.780  0.1696 -0.2337  0.2107
 8261TIP3    H146274   4.551   2.498  15.822 -0.2656 -1.4684 -1.2548
 8261TIP3    H246275   4.611   2.537  15.688  1.7282 -1.8025 -0.4976
 8262TIP3   OH246276   4.037   2.096   3.430  0.7302 -0.1137 -0.2262
 8262TIP3    H146277   4.088   2.121   3.352  1.6105  0.6724  0.5704
 8262TIP3    H246278   4.087   2.025   3.469  0.3405 -0.4429 -0.3272
 8263TIP3   OH246279   4.263   2.900  12.432 -0.0701 -0.1358  0.2953
 8263TIP3    H146280   4.257   2.982  12.481 -0.1658 -0.2710  0.5120
 8263TIP3    H246281   4.180   2.892  12.386  0.4241  0.5333 -0.7658
 8264TIP3   OH246282   4.876   3.721  13.805 -0.4929  0.1899 -0.0948
 8264TIP3    H146283   4.796   3.753  13.848 -1.0042  1.5961 -1.8992
 8264TIP3    H246284   4.844   3.658  13.740 -0.3251  1.3982 -1.4306
 8265TIP3   OH246285   3.939   0.281  17.103  0.2742  0.2920  0.3258
 8265TIP3    H146286   4.018   0.295  17.155  0.1446 -2.7946  1.5900
 8265TIP3    H246287   3.893   0.209  17.147 -0.9855 -1.0451 -2.8311
 8266TIP3   OH246288   0.356   2.503  16.393  0.3722  0.3972 -0.3023
 8266TIP3    H146289   0.315   2.427  16.434  1.3767 -0.4794 -0.8882
 8266TIP3    H246290   0.380   2.560  16.466  0.1848 -0.1448  0.1880
 8267TIP3   OH246291   1.517   5.971   1.764  0.1929 -0.0829  0.3774
 8267TIP3    H146292   1.563   6.010   1.689 -1.7789 -0.7277 -1.2422
 8267TIP3    H246293   1.438   6.025   1.774 -0.6887 -1.3661  0.5267
 8268TIP3   OH246294   4.664   2.005   5.600 -0.5682  0.4443  0.0593
 8268TIP3    H146295   4.584   2.010   5.654  1.2734  0.9954  2.9525
 8268TIP3    H246296   4.672   2.092   5.561 -0.6979  0.8254  0.8597
 8269TIP3   OH246297   5.533   1.153   0.427 -0.5475 -0.7087 -0.0514
 8269TIP3    H146298   5.489   1.140   0.343 -1.0979  0.7329 -0.0288
 8269TIP3    H246299   5.565   1.243   0.422  3.0254 -1.8478 -0.3235
 8270TIP3   OH246300   2.103   5.557   2.536 -0.5737 -0.1921  0.3163
 8270TIP3    H146301   2.121   5.486   2.474 -2.3692 -0.2705 -0.1742
 8270TIP3    H246302   2.023   5.597   2.503  0.0148  1.6370  0.9871
 8271TIP3   OH246303   4.630   1.065   1.804  0.1784  0.1360 -0.1486
 8271TIP3    H146304   4.628   1.016   1.721  2.3796 -0.6955  0.2372
 8271TIP3    H246305   4.637   0.998   1.871  0.5971  0.8942  0.5768
 8272TIP3   OH246306   1.005   0.235  12.070  0.0610  0.0268  0.1291
 8272TIP3    H146307   0.923   0.223  12.022 -1.1606 -2.4972  2.5397
 8272TIP3    H246308   0.980   0.286  12.148  1.3869  1.5604 -0.3942
 8273TIP3   OH246309   1.046   1.662   3.159 -0.3612  0.1371  0.4248
 8273TIP3    H146310   1.129   1.674   3.114 -1.0849  1.0982 -0.7165
 8273TIP3    H246311   1.050   1.722   3.234  0.0779 -0.0370  0.5429
 8274TIP3   OH246312   5.483   3.701  13.015 -0.1127 -0.0568 -0.0293
 8274TIP3    H146313   5.569   3.725  13.050 -0.1926 -0.3998  0.4159
 8274TIP3    H246314   5.499   3.680  12.923 -0.0716  1.8658 -0.5032
 8275TIP3   OH246315   1.842   0.427  14.263 -0.2928 -0.1649 -0.3244
 8275TIP3    H146316   1.792   0.446  14.343 -1.6162  1.4875 -1.4821
 8275TIP3    H246317   1.914   0.489  14.265  1.4593 -2.0859  0.9887
 8276TIP3   OH246318   6.178   3.734  16.298 -0.0474 -0.3338 -0.1973
 8276TIP3    H146319   6.255   3.744  16.354  0.4312  0.5419 -0.9768
 8276TIP3    H246320   6.209   3.758  16.211 -0.4136 -3.0084 -1.1555
 8277TIP3   OH246321   1.502   2.995  16.814  0.5631 -0.5199 -0.0338
 8277TIP3    H146322   1.515   2.901  16.824 -0.8000 -0.7474 -0.1351
 8277TIP3    H246323   1.535   3.015  16.727  0.3733 -1.0087 -0.2192
 8278TIP3   OH246324   4.832   4.488  12.159  0.0886  0.2310  0.8616
 8278TIP3    H146325   4.780   4.409  12.142 -0.5013  0.8870 -0.5911
 8278TIP3    H246326   4.920   4.465  12.130 -0.6348  0.9097 -2.3152
 8279TIP3   OH246327   3.199   0.167  12.878 -0.1385  0.1728  0.0934
 8279TIP3    H146328   3.254   0.244  12.862 -0.6572  0.3809 -0.7648
 8279TIP3    H246329   3.123   0.179  12.820  1.1152 -2.4025 -2.3607
 8280TIP3   OH246330   1.529   5.343  12.295 -0.1288 -0.1211  0.8003
 8280TIP3    H146331   1.534   5.419  12.353  1.4907  2.2200 -2.0989
 8280TIP3    H246332   1.600   5.286  12.326  1.1856  1.4031  0.7951
 8281TIP3   OH246333   1.638   5.935   3.387  0.1568 -0.2359  0.7514
 8281TIP3    H146334   1.605   5.928   3.477  0.0224  0.6779  0.7838
 8281TIP3    H246335   1.560   5.944   3.333  0.2819  0.7691  0.7116
 8282TIP3   OH246336   2.616   6.551  15.118 -0.1599  0.0343 -0.1843
 8282TIP3    H146337   2.684   6.617  15.131 -0.7936  0.5920  0.3688
 8282TIP3    H246338   2.664   6.473  15.092  0.8948 -0.1394  2.0228
 8283TIP3   OH246339   2.647   3.972   1.249  0.0796  0.2056 -0.2431
 8283TIP3    H146340   2.576   3.936   1.195  1.1885 -1.0579 -0.9139
 8283TIP3    H246341   2.602   4.010   1.325 -1.4257  0.9428 -1.4508
 8284TIP3   OH246342   3.078   2.919  13.912  0.2120 -0.4357 -0.5096
 8284TIP3    H146343   3.011   2.855  13.934 -0.3085 -1.0274 -3.3665
 8284TIP3    H246344   3.124   2.880  13.837  1.2078  1.6371 -1.0494
 8285TIP3   OH246345   6.008   3.593  12.112  0.1395  0.7724  0.0001
 8285TIP3    H146346   6.003   3.559  12.201  0.1335  0.6745 -0.0384
 8285TIP3    H246347   5.947   3.539  12.062  2.2930 -1.1415 -0.7131
 8286TIP3   OH246348   0.346   3.179  14.996 -0.5922  0.0216  0.1983
 8286TIP3    H146349   0.358   3.267  15.030 -0.5970 -0.5430  1.7196
 8286TIP3    H246350   0.431   3.156  14.957 -0.1867  0.2115  0.9665
 8287TIP3   OH246351   2.243   2.259   1.263  0.0094  0.2700 -0.1700
 8287TIP3    H146352   2.243   2.164   1.270  2.1627  0.2747  0.4838
 8287TIP3    H246353   2.249   2.290   1.354 -0.4779  1.0394 -0.3876
 8288TIP3   OH246354   4.237   5.827   5.001  0.2309  0.4747  0.0077
 8288TIP3    H146355   4.213   5.785   5.084  1.3202 -2.3359 -0.9857
 8288TIP3    H246356   4.165   5.807   4.942  0.4987  0.4965 -0.3293
 8289TIP3   OH246357   0.550   3.812   1.347  0.0486  0.2040 -0.1846
 8289TIP3    H146358   0.544   3.772   1.434  0.0982 -0.2983 -0.4056
 8289TIP3    H246359   0.462   3.844   1.329 -0.2245 -0.6045 -0.3663
 8290TIP3   OH246360   3.387   6.379  12.105  0.1430 -0.0406  0.4390
 8290TIP3    H146361   3.474   6.407  12.134  1.0541 -0.5878 -1.5249
 8290TIP3    H246362   3.387   6.399  12.011 -1.3545 -1.2766  0.1455
 8291TIP3   OH246363   5.394   0.768  13.160  0.0219 -0.0497 -0.1977
 8291TIP3    H146364   5.323   0.819  13.198  1.1641 -0.4883  2.7978
 8291TIP3    H246365   5.357   0.680  13.150 -0.4817  0.2169 -0.7934
 8292TIP3   OH246366   1.342   4.333  16.539 -0.2013  0.9447 -0.0561
 8292TIP3    H146367   1.394   4.409  16.512  0.1216  0.4206 -0.9749
 8292TIP3    H246368   1.395   4.257  16.514 -0.5502  0.4059  0.7764
 8293TIP3   OH246369   1.543   2.158   2.308  0.3864 -0.5702 -0.8509
 8293TIP3    H146370   1.522   2.173   2.400 -1.2140  1.1862 -1.4417
 8293TIP3    H246371   1.477   2.095   2.278 -0.6089  0.6458 -1.3214
 8294TIP3   OH246372   1.622   2.508  13.400  0.0853 -0.3049 -0.0468
 8294TIP3    H146373   1.543   2.463  13.370 -0.1397  0.1360 -0.1205
 8294TIP3    H246374   1.675   2.439  13.440  0.1009 -0.7832 -0.8729
 8295TIP3   OH246375   2.512   5.653   4.022 -0.0029  0.9375  0.0969
 8295TIP3    H146376   2.462   5.708   4.081 -0.2571  0.1751  0.6063
 8295TIP3    H246377   2.591   5.630   4.071 -0.8312 -0.8060  0.6992
 8296TIP3   OH246378   2.246   2.825  16.293  0.2814  0.5165 -0.6346
 8296TIP3    H146379   2.321   2.835  16.351  0.5439  1.2038 -1.0869
 8296TIP3    H246380   2.272   2.757  16.230  0.4468  0.6108 -0.6678
 8297TIP3   OH246381   3.482   1.081   3.393 -0.5752 -0.0210  0.4187
 8297TIP3    H146382   3.411   1.053   3.335  0.2070  1.7031 -1.5107
 8297TIP3    H246383   3.477   1.177   3.392  2.3104  0.2221 -0.6112
 8298TIP3   OH246384   3.473   0.682  14.458 -0.2293 -0.0190  0.0338
 8298TIP3    H146385   3.472   0.762  14.404 -1.9673  1.0822  1.5907
 8298TIP3    H246386   3.397   0.633  14.429 -0.0562 -0.3582  0.1550
 8299TIP3   OH246387   2.306   0.716   5.545 -0.2432  0.1786 -0.1211
 8299TIP3    H146388   2.260   0.690   5.625  0.4699  0.6959  0.4725
 8299TIP3    H246389   2.386   0.757   5.576 -0.2732  1.0157 -1.0857
 8300TIP3   OH246390   0.729   4.221   5.734 -0.2494 -0.5287  0.3945
 8300TIP3    H146391   0.740   4.187   5.823 -0.8577 -0.0172  0.6687
 8300TIP3    H246392   0.754   4.313   5.740  0.4590 -0.6787 -0.1392
 8301TIP3   OH246393   4.766   3.435  14.272  0.4195  0.0894  0.5774
 8301TIP3    H146394   4.820   3.453  14.348 -0.4703  0.1517  1.2062
 8301TIP3    H246395   4.812   3.477  14.199  0.2330  1.8222  1.4190
 8302TIP3   OH246396   4.334   2.752  13.293 -0.3080 -0.3496 -0.0970
 8302TIP3    H146397   4.409   2.725  13.240  0.8914  0.4274  1.1413
 8302TIP3    H246398   4.297   2.827  13.246  1.3292  0.9495  0.5666
 8303TIP3   OH246399   5.383   3.279  14.859  0.5240  0.0694 -0.6518
 8303TIP3    H146400   5.294   3.253  14.834  0.9750 -1.6103 -0.6218
 8303TIP3    H246401   5.436   3.258  14.783  0.9510  0.8920 -0.5977
 8304TIP3   OH246402   1.510   5.762   4.434 -0.1814  0.1142  0.2023
 8304TIP3    H146403   1.479   5.675   4.410 -0.0284  0.0796  0.1276
 8304TIP3    H246404   1.560   5.748   4.515  0.4469  0.0203 -0.1948
 8305TIP3   OH246405   2.751   2.627   0.216  0.2565  0.1093  0.2715
 8305TIP3    H146406   2.808   2.647   0.291 -0.4645 -1.0942  1.1672
 8305TIP3    H246407   2.810   2.630   0.141  0.6208  3.4220  0.5337
 8306TIP3   OH246408   0.194   5.423   2.444  0.4026  0.1003 -0.0368
 8306TIP3    H146409   0.229   5.368   2.374  1.1062  1.7474 -1.0232
 8306TIP3    H246410   0.099   5.408   2.441  0.5443 -0.7634 -0.5090
 8307TIP3   OH246411   5.300   1.564  17.290 -0.6414  0.1072 -0.0860
 8307TIP3    H146412   5.270   1.613  17.214 -0.9336 -2.0706 -1.4581
 8307TIP3    H246413   5.386   1.601  17.310 -1.0549  1.4780 -0.7411
 8308TIP3   OH246414   3.818   3.752  12.770 -0.2058 -0.0058  0.0398
 8308TIP3    H146415   3.795   3.705  12.850 -0.4455  3.5116  2.2886
 8308TIP3    H246416   3.747   3.815  12.759  0.5522  0.5478 -2.1774
 8309TIP3   OH246417   1.180   1.225   1.058 -0.2937 -0.8452 -0.0214
 8309TIP3    H146418   1.084   1.227   1.060 -0.2759  0.3054  0.2690
 8309TIP3    H246419   1.203   1.266   0.975 -0.0529 -2.4017 -0.7706
 8310TIP3   OH246420   1.078   1.771   4.756 -0.4392  0.0076 -0.2565
 8310TIP3    H146421   1.002   1.765   4.697 -1.2337  1.9522  0.4908
 8310TIP3    H246422   1.041   1.761   4.843  0.3171  0.0174  0.0685
 8311TIP3   OH246423   4.819   4.021   0.957 -0.6362 -0.0012  0.6178
 8311TIP3    H146424   4.767   4.054   0.885  3.8287  1.8274 -2.1911
 8311TIP3    H246425   4.820   4.092   1.021 -0.5196  0.5245  0.0448
 8312TIP3   OH246426   5.162   4.952   3.453 -0.2299 -0.0324 -0.4519
 8312TIP3    H146427   5.085   4.957   3.510  0.7020 -2.1079  1.1443
 8312TIP3    H246428   5.191   5.042   3.443 -1.9710  0.6329  0.1865
 8313TIP3   OH246429   2.410   6.258   0.954 -0.6681 -0.1372 -0.5426
 8313TIP3    H146430   2.399   6.179   1.006  0.0140  0.4641  0.5572
 8313TIP3    H246431   2.502   6.256   0.926 -0.3752  0.7106  0.2889
 8314TIP3   OH246432   0.405   4.143  12.159 -0.1409 -0.1491 -0.0853
 8314TIP3    H146433   0.497   4.143  12.186 -0.8012 -0.4212  2.3426
 8314TIP3    H246434   0.399   4.073  12.094  1.6555  0.9897 -1.5925
 8315TIP3   OH246435   4.298   3.455   0.150  0.0912  0.0116  0.6853
 8315TIP3    H146436   4.288   3.493   0.063  0.1649  1.3403  1.2292
 8315TIP3    H246437   4.392   3.446   0.162  0.1248  0.6222  0.9364
 8316TIP3   OH246438   2.055   5.661   0.288 -0.4604  0.4269  0.6365
 8316TIP3    H146439   2.125   5.726   0.286  0.1350 -0.2212 -0.4737
 8316TIP3    H246440   2.097   5.579   0.266 -1.6555  0.1046 -0.5832
 8317TIP3   OH246441   4.635   0.567   1.561 -0.4037  0.1907  0.2699
 8317TIP3    H146442   4.585   0.493   1.594  0.4778 -0.8432 -0.6482
 8317TIP3    H246443   4.722   0.532   1.544 -0.5479  0.8581 -2.2436
 8318TIP3   OH246444   5.652   3.258   1.276  0.4460  0.3706  0.4264
 8318TIP3    H146445   5.589   3.277   1.346  0.5423 -0.8474  0.8820
 8318TIP3    H246446   5.733   3.238   1.323  1.3194  2.3535 -0.1683
 8319TIP3   OH246447   3.900   1.705   2.317  0.2587  0.0384  0.4561
 8319TIP3    H146448   3.901   1.626   2.263  0.8670  0.6255 -0.4150
 8319TIP3    H246449   3.989   1.713   2.350  0.6242  1.2114 -0.7540
 8320TIP3   OH246450   6.804   2.105  17.071  0.0263 -0.0746  0.2073
 8320TIP3    H146451   6.711   2.119  17.050 -0.2872 -0.4371  1.2633
 8320TIP3    H246452   6.843   2.192  17.069 -0.4607  0.1477  0.2746
 8321TIP3   OH246453   1.129   4.614   2.833 -0.0611  0.1850  0.4774
 8321TIP3    H146454   1.179   4.693   2.808 -0.3199  0.4820  0.8815
 8321TIP3    H246455   1.117   4.567   2.751  0.6019  0.2729  0.3187
 8322TIP3   OH246456   0.870   3.619  14.323  0.2203 -0.3604 -0.2769
 8322TIP3    H146457   0.948   3.673  14.308  0.1621 -0.6574 -1.7570
 8322TIP3    H246458   0.823   3.664  14.393  0.2872  1.4127 -1.3044
 8323TIP3   OH246459   2.641   1.412  14.115 -0.0791 -0.2225 -0.7151
 8323TIP3    H146460   2.552   1.385  14.091 -0.3204  0.4416 -0.5914
 8323TIP3    H246461   2.687   1.330  14.133 -1.0418 -0.5148  0.5442
 8324TIP3   OH246462   1.216   0.356   3.406 -0.5565 -0.5632  0.1374
 8324TIP3    H146463   1.293   0.302   3.423 -0.3013 -0.2511 -0.0258
 8324TIP3    H246464   1.201   0.348   3.312  0.5014  0.9943 -0.1974
 8325TIP3   OH246465   3.855   0.660  14.274  0.0496  0.3653 -0.2009
 8325TIP3    H146466   3.920   0.681  14.342  0.6099 -0.9031 -0.3158
 8325TIP3    H246467   3.896   0.690  14.193 -0.6949  2.0432 -0.0037
 8326TIP3   OH246468   1.504   1.671   0.191  0.2569 -0.4097 -0.0688
 8326TIP3    H146469   1.581   1.719   0.161 -0.2911  1.0898  0.8281
 8326TIP3    H246470   1.539   1.601   0.246  0.9839  0.2768  0.3595
 8327TIP3   OH246471   5.734   0.844  11.395  0.0466  0.6830 -0.0743
 8327TIP3    H146472   5.806   0.905  11.410  1.5314 -0.9155 -0.3840
 8327TIP3    H246473   5.686   0.881  11.321  0.9868  1.3783 -0.3514
 8328TIP3   OH246474   1.760   3.016  10.895 -0.2280  0.4142 -0.1971
 8328TIP3    H146475   1.677   3.019  10.943 -0.2527  0.3381 -0.2351
 8328TIP3    H246476   1.744   3.066  10.815 -0.6073 -0.5962 -0.7739
 8329TIP3   OH246477   4.253   6.356   0.422  0.2947  0.1670  0.1769
 8329TIP3    H146478   4.291   6.335   0.508  1.1093  0.1541 -0.1793
 8329TIP3    H246479   4.206   6.439   0.436  0.2050  0.0340  0.6910
 8330TIP3   OH246480   4.034   5.032  17.131  0.1740  0.0602  0.3906
 8330TIP3    H146481   4.101   4.970  17.157 -0.5904 -0.9824 -0.0755
 8330TIP3    H246482   3.980   5.044  17.209  0.2902  0.1029  0.4647
 8331TIP3   OH246483   0.710   6.073  11.325  0.0598  0.2634 -0.1753
 8331TIP3    H146484   0.729   5.979  11.329 -1.0856  0.0500  1.7280
 8331TIP3    H246485   0.623   6.078  11.286  0.1135  0.5319 -0.2599
 8332TIP3   OH246486   4.807   5.034  13.501  0.0621 -0.2554  0.3570
 8332TIP3    H146487   4.766   5.116  13.473  1.6223  0.6825  0.7110
 8332TIP3    H246488   4.890   5.031  13.454 -0.1483 -1.8672  0.0326
 8333TIP3   OH246489   4.603   4.553  12.644 -0.1544 -0.0798  0.3210
 8333TIP3    H146490   4.569   4.519  12.562  2.4795  0.5376 -1.1393
 8333TIP3    H246491   4.630   4.475  12.693 -1.5290 -0.4346  0.5581
 8334TIP3   OH246492   0.569   3.300   0.515 -0.0002 -0.2777 -0.9209
 8334TIP3    H146493   0.496   3.242   0.538 -0.3755  0.4326 -0.2882
 8334TIP3    H246494   0.549   3.382   0.559  1.7461 -0.4082  0.2101
 8335TIP3   OH246495   6.128   2.871  17.276 -0.1252  0.0602  0.7982
 8335TIP3    H146496   6.042   2.869  17.318 -0.6197 -1.2914 -0.2304
 8335TIP3    H246497   6.178   2.935  17.327 -1.6648  0.7081  1.5342
 8336TIP3   OH246498   6.639   3.957   1.457  0.2270 -0.0264 -0.0577
 8336TIP3    H146499   6.641   4.039   1.506 -0.5980  0.3160 -0.5787
 8336TIP3    H246500   6.645   3.889   1.524 -1.7806  0.4069  0.6277
 8337TIP3   OH246501   2.832   2.452   4.895  0.3137 -0.0694 -0.3110
 8337TIP3    H146502   2.788   2.401   4.827  0.1425  0.0674 -0.3027
 8337TIP3    H246503   2.796   2.541   4.886 -0.4509 -0.2731  0.6081
 8338TIP3   OH246504   2.855   2.306  12.411  0.0801 -0.4568  0.3375
 8338TIP3    H146505   2.911   2.383  12.424 -0.9652  0.4463 -0.3671
 8338TIP3    H246506   2.909   2.232  12.441  1.5330  0.4066 -0.0414
 8339TIP3   OH246507   6.057   0.891   5.632 -0.0128 -0.7308  0.2146
 8339TIP3    H146508   6.017   0.969   5.669  1.5256  0.1530  0.0987
 8339TIP3    H246509   6.038   0.822   5.696  0.7534  0.2969  1.6166
 8340TIP3   OH246510   0.225   6.212   4.423 -0.7297  0.3586  0.2947
 8340TIP3    H146511   0.161   6.146   4.450 -0.8474  0.1628 -0.4361
 8340TIP3    H246512   0.263   6.244   4.505  0.7234 -1.9774  0.6138
 8341TIP3   OH246513   6.417   5.479  12.109  0.2686  0.0213 -0.3719
 8341TIP3    H146514   6.474   5.404  12.125 -0.8107 -0.3554  2.2324
 8341TIP3    H246515   6.477   5.554  12.102  1.2005 -0.6926 -0.2089
 8342TIP3   OH246516   4.151   5.727   5.265 -0.1286 -0.2380  0.5316
 8342TIP3    H146517   4.063   5.736   5.302  0.3813 -3.0915  2.8081
 8342TIP3    H246518   4.194   5.810   5.286 -1.7519  0.5563  0.8710
 8343TIP3   OH246519   4.387   1.835  14.402 -0.0887  0.1099  0.1344
 8343TIP3    H146520   4.480   1.816  14.410 -0.1301  0.1823  0.8468
 8343TIP3    H246521   4.354   1.770  14.340  0.3223 -0.3017  0.3443
 8344TIP3   OH246522   6.202   0.530   5.970  0.4698  0.0064 -0.1860
 8344TIP3    H146523   6.291   0.495   5.974  0.9860  1.2491 -0.3372
 8344TIP3    H246524   6.179   0.547   6.062  0.4684 -0.1091 -0.1649
 8345TIP3   OH246525   1.915   5.804  15.410 -0.2651  0.0571  0.1875
 8345TIP3    H146526   1.835   5.784  15.459 -0.3456  1.0615  0.4854
 8345TIP3    H246527   1.921   5.899  15.413  0.0498  0.0985 -1.2599
 8346TIP3   OH246528   3.878   2.913  12.936 -0.0696  0.1823 -0.7220
 8346TIP3    H146529   3.898   2.942  12.847 -1.6373 -0.6620 -1.4000
 8346TIP3    H246530   3.941   2.843  12.953 -0.3081 -0.2540 -1.5404
 8347TIP3   OH246531   5.578   5.948   0.179 -0.2281  0.0631  0.1381
 8347TIP3    H146532   5.485   5.929   0.163 -0.4129  0.1103  1.0657
 8347TIP3    H246533   5.608   5.876   0.235  0.2179  0.2048  0.0871
 8348TIP3   OH246534   0.268   0.509   0.656  0.2641 -0.3341 -0.2045
 8348TIP3    H146535   0.333   0.452   0.698  0.8389 -0.2067 -0.8817
 8348TIP3    H246536   0.214   0.542   0.727  0.2072 -1.3772  0.2450
 8349TIP3   OH246537   2.272   6.308  14.093 -0.2532  0.0268 -0.2780
 8349TIP3    H146538   2.215   6.265  14.029  1.7336 -1.8977 -0.9030
 8349TIP3    H246539   2.331   6.238  14.123  2.8303  2.1561 -0.8967
 8350TIP3   OH246540   2.605   6.240   3.204 -0.0601  0.8318 -1.1011
 8350TIP3    H146541   2.655   6.284   3.273  0.9499  0.5793 -1.6403
 8350TIP3    H246542   2.524   6.212   3.246  0.6508  0.4477  0.0379
 8351TIP3   OH246543   4.093   2.584  17.097 -0.2619 -0.1996 -0.2842
 8351TIP3    H146544   4.075   2.490  17.085 -0.0737 -0.4383  1.1336
 8351TIP3    H246545   4.016   2.627  17.060  0.4298 -0.7953 -2.6019
 8352TIP3   OH246546   0.743   3.137   4.925  0.4634 -1.0434 -0.5736
 8352TIP3    H146547   0.832   3.102   4.932 -0.1262 -2.3017  2.6422
 8352TIP3    H246548   0.686   3.060   4.936 -1.1013 -0.2736 -2.5547
 8353TIP3   OH246549   6.515   5.926   2.699  0.2062 -0.0501  0.3222
 8353TIP3    H146550   6.478   5.850   2.655  0.5091 -0.9606  1.6018
 8353TIP3    H246551   6.606   5.928   2.670 -0.0098  0.3479 -0.3701
 8354TIP3   OH246552   3.801   0.162   5.061  0.0617 -0.1805  0.5364
 8354TIP3    H146553   3.890   0.168   5.095  1.7553 -1.9087 -3.0990
 8354TIP3    H246554   3.795   0.233   4.997  0.3186 -2.3146 -2.0041
 8355TIP3   OH246555   1.909   1.360   4.324 -0.0145 -0.0371 -0.0420
 8355TIP3    H146556   1.956   1.292   4.372  1.0809 -0.1607 -1.2236
 8355TIP3    H246557   1.817   1.346   4.346  0.5177  1.2202  3.6142
 8356TIP3   OH246558   4.230   6.765  15.136 -0.4876 -0.0584 -0.1017
 8356TIP3    H146559   4.162   6.806  15.191 -0.7782  0.4053 -0.7955
 8356TIP3    H246560   4.231   6.817  15.056  0.3890 -0.3328 -0.2826
 8357TIP3   OH246561   6.048   3.783  13.761  0.2937 -0.2299 -0.3922
 8357TIP3    H146562   6.031   3.724  13.687  1.2651 -1.0526  0.0256
 8357TIP3    H246563   6.121   3.837  13.732  0.3227 -0.1822 -0.2302
 8358TIP3   OH246564   5.459   5.078  12.887  0.2212 -0.0880  0.3681
 8358TIP3    H146565   5.419   5.083  12.974  1.3352 -0.3125  0.9057
 8358TIP3    H246566   5.385   5.061  12.828 -1.0925  3.3688  0.7916
 8359TIP3   OH246567   4.466   1.113   6.168  0.8039 -0.0273  0.0879
 8359TIP3    H146568   4.427   1.066   6.241 -0.1862  0.1317 -0.3141
 8359TIP3    H246569   4.508   1.190   6.207  2.1723 -1.0541  0.7132
 8360TIP3   OH246570   5.419   4.193  10.591  0.6090  0.6818  0.8572
 8360TIP3    H146571   5.468   4.274  10.573  0.9589  0.0987 -1.1094
 8360TIP3    H246572   5.480   4.123  10.568 -0.4874 -0.0860  0.1915
 8361TIP3   OH246573   0.426   6.588   6.239  0.5382 -0.2596 -0.1036
 8361TIP3    H146574   0.518   6.575   6.216  0.0299 -2.3048 -1.2680
 8361TIP3    H246575   0.383   6.604   6.155 -0.0836  1.6268  0.5217
 8362TIP3   OH246576   1.814   3.622   5.404 -1.0245 -0.3261  0.5514
 8362TIP3    H146577   1.825   3.655   5.493 -1.5827  0.6288  0.2860
 8362TIP3    H246578   1.879   3.553   5.395  0.5002  1.0059  0.9891
 8363TIP3   OH246579   2.215   5.893   0.288 -0.2604  0.3506  0.6947
 8363TIP3    H146580   2.230   5.983   0.261 -0.9671  0.2248 -0.1467
 8363TIP3    H246581   2.266   5.883   0.369 -1.2046  1.8855  1.5143
 8364TIP3   OH246582   3.541   6.040   3.635  0.0132 -0.5708 -0.1016
 8364TIP3    H146583   3.627   6.053   3.677 -0.2148 -0.6872  0.4043
 8364TIP3    H246584   3.532   5.945   3.628 -0.7076 -0.6099  1.1766
 8365TIP3   OH246585   3.646   4.967  12.172  0.3810 -0.1718 -0.2437
 8365TIP3    H146586   3.721   5.028  12.174  0.8692 -0.6390 -2.1234
 8365TIP3    H246587   3.686   4.881  12.165 -0.3482 -0.5741  0.3791
 8366TIP3   OH246588   3.478   1.592  14.319  0.2058 -0.1386 -0.0767
 8366TIP3    H146589   3.464   1.593  14.414  1.3280 -2.4900  0.1752
 8366TIP3    H246590   3.411   1.532  14.286 -0.1363  0.6208 -0.7885
 8367TIP3   OH246591   0.650   1.394   3.176 -0.0763 -0.2963 -0.1634
 8367TIP3    H146592   0.625   1.355   3.260  0.9027 -3.0411 -1.0390
 8367TIP3    H246593   0.745   1.406   3.182 -0.0520 -0.1641 -0.7564
 8368TIP3   OH246594   4.598   4.164   2.425  0.0751  0.2878  0.4724
 8368TIP3    H146595   4.505   4.177   2.441 -0.5235 -0.9267 -1.6233
 8368TIP3    H246596   4.617   4.218   2.348  0.6126 -0.9172 -0.2722
 8369TIP3   OH246597   5.944   0.448   3.322 -0.1573 -0.4829  0.3720
 8369TIP3    H146598   5.997   0.379   3.282 -0.2315  0.1721 -0.9275
 8369TIP3    H246599   5.999   0.526   3.317 -0.8504 -0.0155 -0.0586
 8370TIP3   OH246600   0.748   1.382  12.906  0.2750 -0.0475  0.0162
 8370TIP3    H146601   0.730   1.312  12.969  1.9522 -0.0842  0.5192
 8370TIP3    H246602   0.813   1.344  12.847 -0.2851  0.4388 -0.9328
 8371TIP3   OH246603   1.702   5.931  15.159  0.2210  0.4465 -0.2493
 8371TIP3    H146604   1.675   6.022  15.153  1.3898  0.7691 -0.6662
 8371TIP3    H246605   1.764   5.918  15.088  3.4576  0.5300  2.3288
 8372TIP3   OH246606   4.796   0.767   4.208 -0.0022 -0.4143  0.6836
 8372TIP3    H146607   4.710   0.739   4.176  0.7462 -0.9052 -0.9827
 8372TIP3    H246608   4.858   0.736   4.142  1.4089  0.4774  1.5379
 8373TIP3   OH246609   6.564   5.535   1.128 -0.5536  0.1323  0.3552
 8373TIP3    H146610   6.487   5.545   1.184 -0.4617  1.3526  0.3068
 8373TIP3    H246611   6.636   5.570   1.181  0.0942 -1.5052  0.6153
 8374TIP3   OH246612   1.550   5.207  13.418 -0.7390  0.1803 -0.3169
 8374TIP3    H146613   1.469   5.179  13.460  0.1171  0.8333  1.9560
 8374TIP3    H246614   1.617   5.147  13.453 -0.1584 -0.1647 -1.9134
 8375TIP3   OH246615   4.869   2.570   0.327 -0.7754  0.1199  0.0094
 8375TIP3    H146616   4.880   2.492   0.381  1.6049 -0.2266 -0.8299
 8375TIP3    H246617   4.853   2.537   0.239 -1.5411  0.6212 -0.0477
 8376TIP3   OH246618   1.764   2.982  15.301  0.0606  0.1785 -0.7882
 8376TIP3    H146619   1.797   2.991  15.212  0.0826 -0.7703 -0.8853
 8376TIP3    H246620   1.686   2.928  15.292 -1.1101  1.7514 -0.4693
 8377TIP3   OH246621   5.551   1.771  16.507  0.1326 -0.0290 -0.2982
 8377TIP3    H146622   5.484   1.836  16.483  1.3599  0.7549 -1.8541
 8377TIP3    H246623   5.629   1.823  16.522  0.8762 -1.0709 -0.4881
 8378TIP3   OH246624   1.240   4.629   3.551 -0.4269 -0.0221 -0.4766
 8378TIP3    H146625   1.252   4.719   3.583 -1.0035 -0.8253  2.2383
 8378TIP3    H246626   1.284   4.628   3.466 -0.4387  2.8253 -0.6288
 8379TIP3   OH246627   2.012   1.983   1.485 -0.1908 -0.4171  0.7209
 8379TIP3    H146628   1.984   1.977   1.393 -0.6156 -2.0351  0.9112
 8379TIP3    H246629   2.101   1.947   1.485  1.0532  2.4559  0.5031
 8380TIP3   OH246630   3.802   4.588  12.075 -0.2347  0.4040 -0.2968
 8380TIP3    H146631   3.753   4.514  12.111  0.4885 -1.3483 -2.6062
 8380TIP3    H246632   3.868   4.609  12.141 -0.4652 -1.0296  0.4300
 8381TIP3   OH246633   6.076   5.098   2.803  0.8131  0.3841 -0.0054
 8381TIP3    H146634   6.047   5.098   2.711 -0.3145  0.3389  0.3318
 8381TIP3    H246635   6.034   5.021   2.841  0.4237  0.9753  0.7905
 8382TIP3   OH246636   5.138   5.250   4.561 -0.4203  0.0058 -0.5737
 8382TIP3    H146637   5.102   5.249   4.650 -1.5355  0.1745 -0.9984
 8382TIP3    H246638   5.228   5.281   4.572 -1.2301  2.2661  0.2846
 8383TIP3   OH246639   3.997   6.374  15.888  0.0929 -0.1150 -0.0188
 8383TIP3    H146640   3.990   6.337  15.976 -1.3591 -1.6798 -0.7257
 8383TIP3    H246641   4.089   6.364  15.864  0.7415  1.2994  1.6802
 8384TIP3   OH246642   1.171   3.529  14.677  0.0845 -0.4572  0.5537
 8384TIP3    H146643   1.230   3.464  14.715  1.1380  0.3334  0.3284
 8384TIP3    H246644   1.098   3.479  14.641 -0.6030 -1.3158  2.9419
 8385TIP3   OH246645   6.547   4.952   0.420  0.5750 -0.0856 -0.3896
 8385TIP3    H146646   6.453   4.948   0.403  0.3826 -0.9715  0.7601
 8385TIP3    H246647   6.569   4.866   0.456  1.1759  1.1543  2.4427
 8386TIP3   OH246648   2.460   0.732  12.518 -0.8454  0.3492 -0.3047
 8386TIP3    H146649   2.476   0.742  12.424  0.4968  0.3974 -0.0832
 8386TIP3    H246650   2.506   0.651  12.542 -1.9974 -0.2017  0.1380
 8387TIP3   OH246651   6.683   1.577  13.537  0.0793  0.3356 -0.1997
 8387TIP3    H146652   6.687   1.634  13.460 -1.0938  0.8567  0.0896
 8387TIP3    H246653   6.610   1.518  13.519 -0.7521  0.9984  0.8252
 8388TIP3   OH246654   4.719   2.176   0.167  0.0283  0.3621  0.0627
 8388TIP3    H146655   4.644   2.236   0.166 -0.2624  0.0014 -0.0333
 8388TIP3    H246656   4.777   2.212   0.234 -0.8334 -0.0807  1.0775
 8389TIP3   OH246657   0.327   0.151  13.658  0.4424  0.2029 -0.2549
 8389TIP3    H146658   0.280   0.166  13.741  0.7088 -2.5771  0.4838
 8389TIP3    H246659   0.289   0.215  13.598 -1.7281  0.4751  1.2713
 8390TIP3   OH246660   3.280   5.369   1.901  0.0415 -0.1336 -0.3519
 8390TIP3    H146661   3.197   5.391   1.858 -0.0354 -0.5128 -0.3954
 8390TIP3    H246662   3.328   5.452   1.904 -1.5025  0.7834  2.3232
 8391TIP3   OH246663   1.488   4.550  13.421  0.3938 -0.4375  0.1229
 8391TIP3    H146664   1.424   4.620  13.409 -0.7447 -1.5817 -0.6853
 8391TIP3    H246665   1.552   4.563  13.351  0.3425 -0.0550  0.1462
 8392TIP3   OH246666   1.183   6.093  14.747  0.5870  0.1834 -0.1372
 8392TIP3    H146667   1.271   6.131  14.747  0.6536  0.0921  1.2656
 8392TIP3    H246668   1.171   6.060  14.836 -0.4333 -0.8481 -0.6243
 8393TIP3   OH246669   4.120   3.487  11.899 -0.1453 -0.5140  0.1305
 8393TIP3    H146670   4.099   3.562  11.842  0.5222 -0.8010 -0.5208
 8393TIP3    H246671   4.214   3.476  11.888  0.2014  0.1098  2.1719
 8394TIP3   OH246672   4.834   3.932   2.366 -0.2981  0.3491 -0.2707
 8394TIP3    H146673   4.927   3.926   2.343 -0.2543  2.6813 -0.9506
 8394TIP3    H246674   4.816   4.026   2.370 -3.0333  0.0119 -1.9050
 8395TIP3   OH246675   6.411   3.518  14.384  0.5907  0.2330  0.4665
 8395TIP3    H146676   6.392   3.559  14.300  2.3150 -1.9228 -1.1081
 8395TIP3    H246677   6.346   3.449  14.392  0.6100  0.2494  0.7746
 8396TIP3   OH246678   6.195   5.044   5.582 -0.3707  0.3694  0.8081
 8396TIP3    H146679   6.191   5.006   5.494 -0.9738  0.0933  0.9419
 8396TIP3    H246680   6.187   5.138   5.569 -0.0541  0.3597  0.5428
 8397TIP3   OH246681   3.879   1.406   0.656 -0.2227  0.6212  0.2251
 8397TIP3    H146682   3.947   1.374   0.596  0.5147  0.9701  0.8757
 8397TIP3    H246683   3.917   1.482   0.699 -0.7541  0.3842  1.1374
 8398TIP3   OH246684   3.386   2.108   5.558 -0.4595 -0.0875 -0.5364
 8398TIP3    H146685   3.435   2.097   5.476 -2.0561 -0.1915 -1.5175
 8398TIP3    H246686   3.295   2.117   5.530 -0.9503  0.6217  1.2001
 8399TIP3   OH246687   3.265   2.197   1.425  0.2599  0.2446  0.2405
 8399TIP3    H146688   3.197   2.191   1.358 -0.6154 -0.5637  1.1811
 8399TIP3    H246689   3.334   2.250   1.384  0.8143 -2.1121 -2.1880
 8400TIP3   OH246690   1.093   6.625   1.776  0.6473 -0.6575  0.5627
 8400TIP3    H146691   1.085   6.631   1.681 -1.0086 -1.1603  0.6433
 8400TIP3    H246692   1.108   6.532   1.793 -0.2522 -0.7539  0.8581
 8401TIP3   OH246693   2.124   2.965   4.921  0.7991 -0.0614 -0.3585
 8401TIP3    H146694   2.148   2.984   5.011  0.0685  1.4817 -0.4562
 8401TIP3    H246695   2.126   2.869   4.915  1.3979 -0.1676  1.1213
 8402TIP3   OH246696   4.427   4.999  12.005  0.2725 -0.1205 -0.0652
 8402TIP3    H146697   4.452   4.936  11.938  2.5360 -1.1967  1.6505
 8402TIP3    H246698   4.435   4.951  12.088  2.1827  2.3300  1.3502
 8403TIP3   OH246699   2.960   2.669   3.411 -0.0922  0.3217 -0.4695
 8403TIP3    H146700   3.056   2.665   3.408  0.0507  0.7281  1.7378
 8403TIP3    H246701   2.938   2.746   3.359  0.6088 -0.7009 -2.3965
 8404TIP3   OH246702   5.056   1.478   3.139  0.0900 -0.4939  0.3534
 8404TIP3    H146703   4.990   1.466   3.070 -0.0138  1.4825  0.0542
 8404TIP3    H246704   5.059   1.393   3.183 -1.4935 -1.1268 -0.6371
 8405TIP3   OH246705   1.069   0.235   1.306 -0.2129 -0.0489 -0.4415
 8405TIP3    H146706   1.126   0.274   1.373 -0.2344 -0.5134 -0.1504
 8405TIP3    H246707   1.026   0.162   1.350  0.8343 -1.2562 -1.3423
 8406TIP3   OH246708   1.492   2.843   2.180 -0.2048 -0.1794  0.3438
 8406TIP3    H146709   1.561   2.781   2.155 -1.0429 -0.8922 -0.2589
 8406TIP3    H246710   1.532   2.896   2.249  1.2483 -0.0010 -0.5651
 8407TIP3   OH246711   5.047   2.123   6.384  0.3191 -0.1354 -0.0844
 8407TIP3    H146712   5.107   2.088   6.318 -1.5573 -0.6978 -1.5772
 8407TIP3    H246713   5.026   2.211   6.353  2.4793  1.2294  1.9444
 8408TIP3   OH246714   4.878   4.400  16.442 -0.0990 -0.3158 -0.8411
 8408TIP3    H146715   4.847   4.312  16.464 -0.7338  0.2663  0.7580
 8408TIP3    H246716   4.845   4.416  16.354 -1.4327 -1.0451 -0.5042
 8409TIP3   OH246717   4.365   0.753   0.190 -0.2019  0.0929  0.2063
 8409TIP3    H146718   4.270   0.755   0.180 -0.1290  0.8926 -0.4695
 8409TIP3    H246719   4.395   0.691   0.124 -0.2558 -0.1950  0.4512
 8410TIP3   OH246720   1.526   4.663  14.991 -0.7264 -0.4351 -0.0177
 8410TIP3    H146721   1.550   4.601  14.921  1.1853 -0.7493  0.8454
 8410TIP3    H246722   1.483   4.609  15.057  0.6142 -0.8332  0.5713
 8411TIP3   OH246723   0.531   4.133   5.288 -0.3418 -0.6932  0.4601
 8411TIP3    H146724   0.482   4.097   5.214 -0.2210 -1.8418  0.9089
 8411TIP3    H246725   0.623   4.121   5.263 -0.2989 -1.3342  0.8890
 8412TIP3   OH246726   4.975   3.647   6.454 -0.6158  0.0195 -0.6548
 8412TIP3    H146727   4.999   3.582   6.520  0.9923  2.0909  0.9659
 8412TIP3    H246728   4.881   3.637   6.444 -0.5171 -2.0855  0.0107
 8413TIP3   OH246729   3.886   2.525   5.023  0.6005  0.1907  0.6254
 8413TIP3    H146730   3.890   2.430   5.037  2.5568  0.3743  1.6776
 8413TIP3    H246731   3.827   2.557   5.091 -0.4797 -0.2999 -0.0568
 8414TIP3   OH246732   2.861   4.819  12.328  1.1284  0.4607  0.2283
 8414TIP3    H146733   2.927   4.757  12.298  1.4330  0.6867  0.4258
 8414TIP3    H246734   2.907   4.903  12.329  0.8012  0.6391  0.2446
 8415TIP3   OH246735   4.755   4.840  11.892 -0.1846  0.5553 -0.0923
 8415TIP3    H146736   4.664   4.821  11.870  0.0639 -1.3958  0.3495
 8415TIP3    H246737   4.777   4.917  11.840 -1.5601  0.0162 -1.5508
 8416TIP3   OH246738   1.627   6.817  16.133  0.1876 -0.1846 -0.1332
 8416TIP3    H146739   1.660   6.830  16.044  2.0959  0.0784  0.5738
 8416TIP3    H246740   1.590   6.729  16.132  2.8349 -1.3770 -0.4724
 8417TIP3   OH246741   1.647   1.356  13.579 -0.0197  0.8451  0.4095
 8417TIP3    H146742   1.694   1.297  13.638 -0.6996  0.9078  1.0270
 8417TIP3    H246743   1.687   1.442  13.593 -0.0534  0.8222  0.6428
 8418TIP3   OH246744   5.621   4.870  17.204 -0.1489 -0.3369 -0.0063
 8418TIP3    H146745   5.570   4.825  17.272 -0.5158  2.5711  1.8283
 8418TIP3    H246746   5.696   4.906  17.251  1.3066 -0.8397 -1.8324
 8419TIP3   OH246747   5.507   5.682   1.724  0.3126 -0.2097  0.1330
 8419TIP3    H146748   5.470   5.719   1.804  1.0394  1.0939 -0.1045
 8419TIP3    H246749   5.434   5.680   1.662  0.2876  1.0257  0.0988
 8420TIP3   OH246750   0.051   5.615  10.619 -0.0629  0.3351  0.3171
 8420TIP3    H146751   0.012   5.650  10.539  0.7955  0.5837 -0.0012
 8420TIP3    H246752  -0.014   5.634  10.687 -1.8944 -1.9609 -0.6394
 8421TIP3   OH246753   6.208   0.294   1.163  0.1963 -0.0274  0.5048
 8421TIP3    H146754   6.259   0.337   1.094  0.4356 -1.9770 -0.5861
 8421TIP3    H246755   6.268   0.289   1.237  0.7950 -0.1919  0.0112
 8422TIP3   OH246756   2.736   2.932   5.283  0.2242 -0.1394  0.0286
 8422TIP3    H146757   2.662   2.984   5.253 -0.8025 -1.2362  0.5819
 8422TIP3    H246758   2.787   2.992   5.337  0.1585  0.8377 -0.9676
 8423TIP3   OH246759   0.178   0.101   2.622  0.0288 -0.5576  0.1324
 8423TIP3    H146760   0.242   0.094   2.551 -2.0104 -1.4665 -1.7489
 8423TIP3    H246761   0.164   0.011   2.651 -2.1234 -0.7377 -1.2208
 8424TIP3   OH246762   1.004   0.003  10.376 -0.3512  0.6168  0.7135
 8424TIP3    H146763   1.074   0.050  10.421 -0.5865  0.1204  1.6140
 8424TIP3    H246764   0.955  -0.040  10.446  0.4005 -1.7440 -0.1124
 8425TIP3   OH246765   2.164   6.383   1.495  0.0289 -0.0626  0.3972
 8425TIP3    H146766   2.086   6.438   1.499 -0.3027 -0.4702 -0.1927
 8425TIP3    H246767   2.177   6.367   1.401  0.8338  0.0149  0.4865
 8426TIP3   OH246768   4.825   4.380   1.036 -0.0697 -0.0208  0.0078
 8426TIP3    H146769   4.769   4.417   1.105 -0.1011  0.9963 -0.5425
 8426TIP3    H246770   4.901   4.347   1.083 -0.3704  0.1020  0.5985
 8427TIP3   OH246771   5.143   0.650   1.220 -0.3425  0.4380 -0.0302
 8427TIP3    H146772   5.108   0.576   1.170 -1.8186  1.2872 -0.2955
 8427TIP3    H246773   5.161   0.717   1.155  1.4556  0.1851  0.1556
 8428TIP3   OH246774   4.125   5.537  16.106  0.4015 -0.2443  0.5161
 8428TIP3    H146775   4.041   5.497  16.128 -0.6188  1.2158 -0.5459
 8428TIP3    H246776   4.178   5.525  16.184 -1.7192  1.2016  2.3081
 8429TIP3   OH246777   2.813   3.247   2.575 -0.4084 -0.3213 -0.2624
 8429TIP3    H146778   2.822   3.183   2.505 -2.2512 -0.3397 -0.5270
 8429TIP3    H246779   2.769   3.199   2.646 -0.0104  0.1244  0.2995
 8430TIP3   OH246780   0.106   3.995   0.079 -0.6027 -0.2333  0.0196
 8430TIP3    H146781   0.132   3.906   0.057 -2.3809 -0.6948 -0.3677
 8430TIP3    H246782   0.010   3.992   0.085 -0.7140  1.6545 -0.0571
 8431TIP3   OH246783   1.502   5.610   4.827 -0.3087 -0.2218  0.7651
 8431TIP3    H146784   1.437   5.564   4.880 -1.1326  0.6992  0.5872
 8431TIP3    H246785   1.541   5.674   4.887 -1.5210  1.0937  0.2088
 8432TIP3   OH246786   2.373   4.887  13.505  0.5813 -0.2943 -0.3352
 8432TIP3    H146787   2.426   4.952  13.458 -0.3059  0.8038  0.1134
 8432TIP3    H246788   2.374   4.810  13.449  1.2479  0.2835 -1.1433
 8433TIP3   OH246789   5.271   1.961  13.169 -0.3035  0.1512  0.5217
 8433TIP3    H146790   5.189   1.993  13.207  0.3880  0.1520  2.0673
 8433TIP3    H246791   5.243   1.893  13.107 -1.5192  0.8357  0.2857
 8434TIP3   OH246792   5.131   3.261   3.088  0.0208  0.1164  0.0655
 8434TIP3    H146793   5.124   3.328   3.157  0.1382  0.6273 -0.4065
 8434TIP3    H246794   5.042   3.228   3.078 -0.0983  0.4210  0.0938
 8435TIP3   OH246795   4.516   6.389   1.501 -0.5968 -0.4148 -0.4677
 8435TIP3    H146796   4.436   6.363   1.456 -2.0284  0.2073  1.6108
 8435TIP3    H246797   4.556   6.306   1.527 -1.1483 -0.7082 -0.5300
 8436TIP3   OH246798   4.415   1.476   3.642  0.1945 -0.2761  0.0533
 8436TIP3    H146799   4.510   1.488   3.643  0.2474 -0.6635  0.0039
 8436TIP3    H246800   4.392   1.460   3.734  0.6075 -3.2313 -0.2422
 8437TIP3   OH246801   6.643   0.117  12.693  0.0121  0.0933  0.0409
 8437TIP3    H146802   6.578   0.187  12.700 -0.4371 -0.4564  1.9679
 8437TIP3    H246803   6.591   0.039  12.673  0.0667 -0.3210  1.4423
 8438TIP3   OH246804   5.524   5.362   1.597 -0.9001 -0.1344  0.4882
 8438TIP3    H146805   5.597   5.376   1.657 -0.6013  1.8291 -0.2716
 8438TIP3    H246806   5.541   5.420   1.523 -1.1293 -2.6021 -1.6820
 8439TIP3   OH246807   5.036   1.157   2.737  0.3564 -0.1250 -0.4570
 8439TIP3    H146808   5.056   1.101   2.811  0.3091  3.2535  2.3794
 8439TIP3    H246809   5.113   1.212   2.726  0.5674 -0.8101 -3.3719
 8440TIP3   OH246810   3.355   4.821  14.531  0.1501 -0.6663  0.0128
 8440TIP3    H146811   3.393   4.882  14.468  1.7345 -2.2958 -0.7449
 8440TIP3    H246812   3.261   4.835  14.526  0.4182  1.0201 -0.8188
 8441TIP3   OH246813   4.657   3.963  16.776 -0.2805  0.6618 -0.1731
 8441TIP3    H146814   4.635   3.872  16.797  0.2827  0.2573 -1.2856
 8441TIP3    H246815   4.572   4.007  16.767 -0.5839 -0.0188 -0.7415
 8442TIP3   OH246816   5.762   4.129   2.820  0.0220 -0.0362 -0.4305
 8442TIP3    H146817   5.795   4.219   2.820  1.2420 -0.4649 -0.4361
 8442TIP3    H246818   5.699   4.127   2.748  0.0578  0.7816 -0.4944
 8443TIP3   OH246819   2.539   4.978   1.774 -0.1455 -0.1022 -0.1709
 8443TIP3    H146820   2.564   4.963   1.683  0.1551  0.3206 -0.1560
 8443TIP3    H246821   2.489   5.059   1.773  0.7228  0.4472  0.1891
 8444TIP3   OH246822   4.756   3.468   0.415 -0.0445 -0.5507  0.2089
 8444TIP3    H146823   4.834   3.523   0.420 -0.2559  0.0307 -1.9253
 8444TIP3    H246824   4.789   3.379   0.424  0.7000 -0.2568  0.5061
 8445TIP3   OH246825   4.700   0.755  10.913 -0.1310 -0.3628  0.3492
 8445TIP3    H146826   4.713   0.842  10.876  2.1319 -1.0351 -0.6541
 8445TIP3    H246827   4.719   0.695  10.840  1.2945 -1.6902  1.7218
 8446TIP3   OH246828   0.551   0.367   4.597  0.1884  0.5335 -0.4030
 8446TIP3    H146829   0.505   0.411   4.668 -1.3233 -1.1966 -0.2411
 8446TIP3    H246830   0.616   0.312   4.641 -0.0724  0.2157 -0.4131
 8447TIP3   OH246831   6.079   2.661   4.266  0.1763  0.4945  0.4686
 8447TIP3    H146832   6.049   2.603   4.196  0.1782  0.7371  0.2645
 8447TIP3    H246833   6.140   2.721   4.224  0.1654  0.6536  0.6750
 8448TIP3   OH246834   0.659   1.009   1.080 -0.0742 -0.0882  0.1480
 8448TIP3    H146835   0.705   0.946   1.135 -0.1867 -1.7076 -1.5227
 8448TIP3    H246836   0.592   1.046   1.137  0.8638 -0.4847  1.5506
 8449TIP3   OH246837   5.941   1.264  15.803 -0.4358  0.8382  0.6846
 8449TIP3    H146838   6.019   1.209  15.808  0.5557  2.1070 -0.1075
 8449TIP3    H246839   5.877   1.210  15.757  0.3639  0.1670  0.3253
 8450TIP3   OH246840   4.153   3.695  12.078  0.4431  0.3602  0.2895
 8450TIP3    H146841   4.164   3.769  12.018 -1.7459  1.0998  0.7212
 8450TIP3    H246842   4.133   3.621  12.020  0.9195  0.4802 -0.0381
 8451TIP3   OH246843   6.522   4.494  11.409  0.2356  0.3269  0.0299
 8451TIP3    H146844   6.573   4.424  11.366 -1.1711 -0.4420 -0.4542
 8451TIP3    H246845   6.481   4.541  11.337 -0.7722  0.1061  0.4394
 8452TIP3   OH246846   5.346   5.331   0.567 -0.0383 -0.1161 -0.2053
 8452TIP3    H146847   5.298   5.248   0.556 -0.3941  0.1265 -0.5310
 8452TIP3    H246848   5.296   5.394   0.516  1.4001 -0.1412 -1.7302
 8453TIP3   OH246849   1.667   2.069  12.968 -0.3026 -0.1205 -0.0893
 8453TIP3    H146850   1.761   2.082  12.981 -0.4506  1.0563 -0.0842
 8453TIP3    H246851   1.631   2.072  13.057 -0.4345  0.2662 -0.1536
 8454TIP3   OH246852   3.470   3.751  10.851 -0.6331  0.7084 -0.3094
 8454TIP3    H146853   3.533   3.707  10.794 -0.9677 -0.9764  0.5737
 8454TIP3    H246854   3.448   3.832  10.804  1.4484  0.8822 -1.0758
 8455TIP3   OH246855   2.883   0.651   3.627  0.5092 -0.0138 -0.2297
 8455TIP3    H146856   2.969   0.638   3.588  2.0968 -0.0434  3.0231
 8455TIP3    H246857   2.862   0.567   3.668 -0.4158  0.4414  0.2584
 8456TIP3   OH246858   6.797   2.844   0.324  0.4415  0.0894  0.1157
 8456TIP3    H146859   6.725   2.859   0.384  0.2662 -0.5334  0.0759
 8456TIP3    H246860   6.876   2.856   0.376  0.3045  0.4072  0.2506
 8457TIP3   OH246861   2.716   4.719  12.100 -0.4829  0.2248 -0.5151
 8457TIP3    H146862   2.639   4.776  12.097 -1.0012 -0.2278  1.7967
 8457TIP3    H246863   2.765   4.749  12.177 -1.2756 -2.9108  1.3980
 8458TIP3   OH246864   0.826   2.871   2.404 -0.1743  0.5778  0.5066
 8458TIP3    H146865   0.898   2.907   2.456 -0.5908  2.2076  0.0050
 8458TIP3    H246866   0.868   2.841   2.323  0.3255 -1.0595  1.3359
 8459TIP3   OH246867   3.504   4.462   4.528 -0.2336 -0.5178  0.0800
 8459TIP3    H146868   3.427   4.515   4.548 -0.6623 -0.9371 -0.4132
 8459TIP3    H246869   3.568   4.524   4.493 -1.4894 -0.5524 -2.5766
 8460TIP3   OH246870   4.679   5.690   6.450  0.5567 -0.4417  0.0692
 8460TIP3    H146871   4.588   5.718   6.454  0.8666  0.6422  0.0328
 8460TIP3    H246872   4.722   5.738   6.521  0.9731 -1.4318  0.4944
 8461TIP3   OH246873   1.133   1.865  15.058  0.5618 -0.6352 -0.3946
 8461TIP3    H146874   1.161   1.954  15.034  1.8762 -0.9445 -0.0713
 8461TIP3    H246875   1.145   1.862  15.153  1.6614 -1.5318 -0.5481
 8462TIP3   OH246876   0.287   3.298   5.410  0.4911 -0.0394 -0.4623
 8462TIP3    H146877   0.320   3.255   5.332 -0.2591 -0.1306 -0.7406
 8462TIP3    H246878   0.225   3.364   5.377  0.6703  0.3742  0.0181
 8463TIP3   OH246879   5.097   2.349  13.510  0.3486 -0.5054  0.1874
 8463TIP3    H146880   5.172   2.358  13.451 -1.2849 -0.5566 -2.0108
 8463TIP3    H246881   5.052   2.433  13.505 -0.4044 -0.8846  0.5379
 8464TIP3   OH246882   1.058   4.481  14.713 -0.0738 -0.5325  0.2861
 8464TIP3    H146883   1.152   4.467  14.728 -0.5992 -3.9748  1.2380
 8464TIP3    H246884   1.051   4.492  14.618  1.1774 -2.0994 -0.0401
 8465TIP3   OH246885   4.917   5.509   6.384  0.1472  0.7086  0.0205
 8465TIP3    H146886   4.968   5.589   6.388 -1.1129  1.6212 -0.9818
 8465TIP3    H246887   4.838   5.528   6.435  1.1164 -0.9872  2.3256
 8466TIP3   OH246888   5.886   5.102  16.471  0.3798 -0.2029  0.2438
 8466TIP3    H146889   5.930   5.024  16.436  2.1954  0.7450  0.2924
 8466TIP3    H246890   5.947   5.174  16.453  0.9806  0.5574  4.2542
 8467TIP3   OH246891   1.282   3.489  11.890  0.3290  0.4093  0.5843
 8467TIP3    H146892   1.287   3.394  11.902  1.1708  0.3094 -0.4378
 8467TIP3    H246893   1.328   3.505  11.808  0.3519  1.7296  0.8396
 8468TIP3   OH246894   3.070   1.066  15.670 -0.8935  0.1171  0.2496
 8468TIP3    H146895   3.064   1.047  15.576 -1.4940  1.8916 -0.1155
 8468TIP3    H246896   2.980   1.076  15.698 -0.9153 -3.1660  1.7167
 8469TIP3   OH246897   6.439   5.790   3.385 -0.3678  0.1428  0.1048
 8469TIP3    H146898   6.476   5.710   3.347 -0.9627 -0.9949  1.7897
 8469TIP3    H246899   6.470   5.860   3.328 -0.2369 -1.3202 -1.7201
 8470TIP3   OH246900   4.078   2.355  16.911  0.8040 -0.1643 -0.0833
 8470TIP3    H146901   4.025   2.279  16.887  0.4022  0.1853 -0.3398
 8470TIP3    H246902   4.168   2.326  16.901  0.6525 -0.5823 -0.2563
 8471TIP3   OH246903   1.543   0.679   1.975  0.3259  0.9166  0.0782
 8471TIP3    H146904   1.563   0.717   1.890  0.7061  3.1666  1.0858
 8471TIP3    H246905   1.450   0.657   1.970  0.3499  1.0111 -0.9214
 8472TIP3   OH246906   4.128   1.726  13.642  0.4541  0.2611 -0.6227
 8472TIP3    H146907   4.189   1.796  13.664 -0.6279  1.1660 -0.4384
 8472TIP3    H246908   4.184   1.656  13.607  1.8357  0.2304  1.4457
 8473TIP3   OH246909   4.574   3.225  15.420  0.0847 -0.3663 -0.3000
 8473TIP3    H146910   4.590   3.169  15.496 -0.9120 -0.7535 -0.3604
 8473TIP3    H246911   4.506   3.179  15.370 -1.0895  1.0924 -0.1202
 8474TIP3   OH246912   0.751   0.185  12.016 -0.0484 -0.0823  0.4946
 8474TIP3    H146913   0.670   0.224  11.982 -0.7182  0.0028  2.0980
 8474TIP3    H246914   0.740   0.091  12.003  0.5566  0.0586 -1.2472
 8475TIP3   OH246915   5.778   2.187   5.643 -0.1875 -0.6533 -0.0157
 8475TIP3    H146916   5.812   2.098   5.634  0.9032 -0.3239  0.6339
 8475TIP3    H246917   5.741   2.207   5.557  2.3113 -0.6659 -1.2091
 8476TIP3   OH246918   6.767   6.067   5.790 -0.4246 -0.0557  0.2113
 8476TIP3    H146919   6.784   6.011   5.714 -0.9620  1.6078 -1.1917
 8476TIP3    H246920   6.688   6.115   5.768 -0.7538  0.2970  1.9693
 8477TIP3   OH246921   4.813   3.612  14.068 -0.8178 -0.3087 -0.0808
 8477TIP3    H146922   4.872   3.568  14.007  1.9077 -0.3105  2.3464
 8477TIP3    H246923   4.752   3.661  14.012  0.5262 -1.5061 -2.7561
 8478TIP3   OH246924   6.455   1.241   3.325  0.0143  0.2854  0.0485
 8478TIP3    H146925   6.469   1.296   3.248  1.5030 -2.5569 -1.9238
 8478TIP3    H246926   6.517   1.274   3.390  0.4990  1.2348 -0.8675
 8479TIP3   OH246927   0.622   1.621   5.025 -0.2466  0.5115 -0.1811
 8479TIP3    H146928   0.631   1.560   4.953 -2.7984 -0.6940  0.4121
 8479TIP3    H246929   0.613   1.566   5.103 -0.2659  1.7042  0.6999
 8480TIP3   OH246930   0.116   4.941  11.618 -0.2008  0.2857  0.6250
 8480TIP3    H146931   0.043   4.934  11.557  0.1479  1.2179  0.0835
 8480TIP3    H246932   0.139   4.850  11.638 -0.3838 -0.0308 -0.5507
 8481TIP3   OH246933   0.964   2.008   5.040  0.5812  0.3602 -0.1225
 8481TIP3    H146934   0.899   1.948   5.078  2.4875 -1.5929  0.2696
 8481TIP3    H246935   0.936   2.095   5.067 -0.7634 -0.5858  1.7218
 8482TIP3   OH246936   3.455   6.264   5.850  0.2312 -0.2357 -0.5656
 8482TIP3    H146937   3.493   6.227   5.770  0.0407  1.6734 -1.5907
 8482TIP3    H246938   3.380   6.315   5.819  1.1629  1.9706  0.6259
 8483TIP3   OH246939   1.095   6.228  11.458  0.1630 -0.3944  0.0543
 8483TIP3    H146940   1.126   6.215  11.548  0.1050  0.6349  0.2367
 8483TIP3    H246941   1.175   6.243  11.407  0.2054 -1.0902 -0.1028
 8484TIP3   OH246942   4.636   6.131   0.937 -0.2654 -0.2850  0.0271
 8484TIP3    H146943   4.583   6.137   0.857  1.1107  0.3469 -0.8669
 8484TIP3    H246944   4.573   6.106   1.005 -1.6634  0.1734 -1.0451
 8485TIP3   OH246945   0.790   6.703   5.555 -0.7721  0.2752  0.3788
 8485TIP3    H146946   0.874   6.714   5.599  0.3378 -1.6519 -1.0908
 8485TIP3    H246947   0.805   6.734   5.465 -1.8947  0.6805  0.3051
 8486TIP3   OH246948   3.061   5.575  17.009  0.6172 -0.0238 -0.2961
 8486TIP3    H146949   3.096   5.497  17.051 -1.4245 -1.3333 -0.9061
 8486TIP3    H246950   2.985   5.599  17.062 -1.4201 -1.1269 -2.5162
 8487TIP3   OH246951   0.952   3.943  12.858 -0.1157  0.2248  0.0105
 8487TIP3    H146952   1.000   4.026  12.852  0.1612  0.0250 -0.5217
 8487TIP3    H246953   0.939   3.930  12.952 -0.0119  0.7869  0.1072
 8488TIP3   OH246954   4.924   1.934   3.930 -0.3675  0.1404  0.3463
 8488TIP3    H146955   4.921   1.843   3.960 -0.2247  0.6944  2.2239
 8488TIP3    H246956   4.834   1.964   3.935 -0.3153  0.2909  0.3991
 8489TIP3   OH246957   2.563   4.919   1.176  0.7232  0.0483 -0.2081
 8489TIP3    H146958   2.486   4.962   1.138 -0.3759 -0.3227  1.4544
 8489TIP3    H246959   2.604   4.873   1.103  0.4467  1.7784 -1.5028
 8490TIP3   OH246960   3.360   0.111  11.468 -0.4915  0.0900  0.4087
 8490TIP3    H146961   3.392   0.131  11.380 -1.0184  3.2567  0.8144
 8490TIP3    H246962   3.267   0.130  11.464 -0.5082  0.3193  1.6415
 8491TIP3   OH246963   4.397   5.640   4.822  0.1469 -0.7680  0.1722
 8491TIP3    H146964   4.340   5.699   4.870  0.7803 -0.8396  1.0336
 8491TIP3    H246965   4.485   5.675   4.835  0.5227 -1.8458  0.6257
 8492TIP3   OH246966   3.063   6.575  13.372 -0.1247 -0.5479  0.3361
 8492TIP3    H146967   3.033   6.485  13.358 -0.7174 -0.1040 -1.5035
 8492TIP3    H246968   3.056   6.588  13.467 -1.4027 -1.9627  0.4708
 8493TIP3   OH246969   5.974   3.056  11.600 -0.6951 -0.1935  0.1707
 8493TIP3    H146970   6.039   3.064  11.530 -0.3295  1.1204  0.6229
 8493TIP3    H246971   5.906   3.120  11.576 -0.2167  0.8007  1.3535
 8494TIP3   OH246972   1.519   0.146   5.335 -0.6466 -0.1696 -0.2017
 8494TIP3    H146973   1.432   0.186   5.325 -0.2662  0.3563 -1.6246
 8494TIP3    H246974   1.567   0.175   5.258  0.9839  0.0204  0.8522
 8495TIP3   OH246975   6.683   5.950   0.375 -0.2915 -0.0409 -0.0603
 8495TIP3    H146976   6.750   5.886   0.397 -1.1188 -1.2219 -0.8804
 8495TIP3    H246977   6.633   5.961   0.456 -0.1383 -0.4301  0.0868
 8496TIP3   OH246978   1.960   3.325  12.895  0.0852 -0.2909 -0.2223
 8496TIP3    H146979   1.883   3.382  12.886  0.0913 -0.0872  0.8817
 8496TIP3    H246980   1.926   3.237  12.884  0.0211 -0.1178 -1.6393
 8497TIP3   OH246981   1.847   0.176   3.184 -0.0994  0.1383 -0.3864
 8497TIP3    H146982   1.814   0.123   3.112  0.0689  0.1326 -0.4607
 8497TIP3    H246983   1.942   0.170   3.176 -0.0688 -0.8478  0.5646
 8498TIP3   OH246984   2.067   1.007   2.281 -0.4253 -0.3795 -0.2874
 8498TIP3    H146985   2.159   0.984   2.295 -0.9058 -1.7122  0.8688
 8498TIP3    H246986   2.056   1.007   2.186  0.7174 -0.3838 -0.4281
 8499TIP3   OH246987   4.269   2.595  14.562  0.5209 -0.0996 -0.2950
 8499TIP3    H146988   4.289   2.617  14.471  0.5425  0.8838 -0.0660
 8499TIP3    H246989   4.316   2.661  14.613 -0.4122  0.0573  0.3832
 8500TIP3   OH246990   5.343   3.012   2.843 -0.2401  0.0055  0.2305
 8500TIP3    H146991   5.342   3.103   2.873  0.7394  0.6910 -1.6527
 8500TIP3    H246992   5.310   2.962   2.918 -2.8004  2.0789  0.6454
 8501TIP3   OH246993   3.466   0.793   1.686 -0.3701 -0.3129  0.2088
 8501TIP3    H146994   3.502   0.749   1.609  0.4226  1.4185 -0.4549
 8501TIP3    H246995   3.530   0.861   1.708 -0.7289 -0.5546  2.2213
 8502TIP3   OH246996   4.700   2.518  11.214  0.8821 -0.5345 -0.0423
 8502TIP3    H146997   4.717   2.426  11.193 -2.0947 -0.9249 -1.2923
 8502TIP3    H246998   4.652   2.515  11.296 -0.1608 -0.2347 -0.6217
 8503TIP3   OH246999   2.276   5.644   1.816  0.3863  0.4614 -0.4073
 8503TIP3    H147000   2.348   5.678   1.869 -0.4893  1.0524  0.4423
 8503TIP3    H247001   2.219   5.720   1.802 -0.7091 -0.2623  0.0317
 8504TIP3   OH247002   2.083   4.349   2.824  0.1729  0.0274  0.0092
 8504TIP3    H147003   2.078   4.395   2.740  1.2242  0.3246  0.0874
 8504TIP3    H247004   2.004   4.297   2.828  0.2549 -0.2353 -1.3227
 8505TIP3   OH247005   5.407   0.344   2.749  0.2304  0.1541  0.3129
 8505TIP3    H147006   5.475   0.372   2.810  0.7226 -2.2204  0.9445
 8505TIP3    H247007   5.340   0.304   2.805 -0.6706  0.4848 -0.4933
 8506TIP3   OH247008   2.859   1.552  16.933 -0.4637  0.1013 -0.5316
 8506TIP3    H147009   2.884   1.588  16.848 -0.7382  0.9034 -0.2811
 8506TIP3    H247010   2.807   1.621  16.974  0.4780  0.1158  0.6939
 8507TIP3   OH247011   5.988   2.256   1.109  0.1243  0.2201 -0.3686
 8507TIP3    H147012   5.986   2.350   1.089  0.3783  0.3736  0.3208
 8507TIP3    H247013   6.064   2.223   1.060  0.8589  0.6319  0.4668
 8508TIP3   OH247014   2.172   2.696   4.536  0.1156  0.0262  0.0247
 8508TIP3    H147015   2.104   2.690   4.469 -0.5027 -0.6569  0.6932
 8508TIP3    H247016   2.167   2.786   4.567 -0.5723 -0.0398  0.1383
 8509TIP3   OH247017   5.463   3.993   3.450 -0.0102 -0.3091  0.0429
 8509TIP3    H147018   5.523   3.976   3.523 -0.3245 -1.3809  0.0784
 8509TIP3    H247019   5.476   3.918   3.392 -2.3333 -1.3628  0.7534
 8510TIP3   OH247020   5.848   5.741   6.235 -0.4211  0.1032 -0.1638
 8510TIP3    H147021   5.857   5.709   6.146 -1.7383 -2.7265  0.5927
 8510TIP3    H247022   5.808   5.828   6.226 -1.0040 -0.3374 -2.2907
 8511TIP3   OH247023   4.887   1.218  13.946 -0.3303 -0.2908 -0.6176
 8511TIP3    H147024   4.793   1.234  13.953 -0.3747 -1.0509  1.1579
 8511TIP3    H247025   4.927   1.304  13.958 -0.7698 -0.0269 -0.9889
 8512TIP3   OH247026   0.140   4.954  12.924  0.1279  0.1533 -0.0566
 8512TIP3    H147027   0.091   4.881  12.963 -0.0964  0.6569  0.6229
 8512TIP3    H247028   0.072   5.018  12.900  0.4004  0.5757  0.2919
 8513TIP3   OH247029   0.709   1.384  15.020  0.0299 -0.1173 -0.5446
 8513TIP3    H147030   0.619   1.388  14.988 -0.7282  1.0067  1.4840
 8513TIP3    H247031   0.719   1.295  15.054 -0.5198 -0.0746 -0.2628
 8514TIP3   OH247032   3.542   5.751  14.840  0.3962 -0.2222  0.3902
 8514TIP3    H147033   3.471   5.766  14.902 -0.2943 -1.2050 -0.1380
 8514TIP3    H247034   3.535   5.823  14.777 -0.8414 -0.9086 -0.2849
 8515TIP3   OH247035   1.525   4.089  12.648 -0.0730  0.3713  0.4217
 8515TIP3    H147036   1.531   4.044  12.733 -1.7101  1.0115  0.9029
 8515TIP3    H247037   1.595   4.154  12.651  0.1478  0.1111  1.1056
 8516TIP3   OH247038   3.744   5.607   1.259 -0.2905  0.1904 -0.4413
 8516TIP3    H147039   3.783   5.571   1.180  0.0387 -0.3456 -0.0434
 8516TIP3    H247040   3.802   5.579   1.330 -1.6569 -1.1306  0.2331
 8517TIP3   OH247041   5.135   2.626   3.451 -0.3521  0.4135  0.1140
 8517TIP3    H147042   5.146   2.694   3.385  0.0032  0.1321 -0.1194
 8517TIP3    H247043   5.066   2.659   3.508 -0.4800  0.7766 -0.2466
 8518TIP3   OH247044   0.162   6.422  15.875 -0.0827  0.2433  0.0496
 8518TIP3    H147045   0.129   6.474  15.949 -1.6962  0.1964 -0.5964
 8518TIP3    H247046   0.117   6.458  15.799  1.0024 -0.2023 -0.8220
 8519TIP3   OH247047   5.693   6.170  14.634 -0.1289 -0.3462  0.1606
 8519TIP3    H147048   5.769   6.135  14.587 -0.2836 -1.0579  0.4317
 8519TIP3    H247049   5.635   6.202  14.565  0.6190  0.6390 -0.0299
 8520TIP3   OH247050   0.283   3.953  16.606  0.5808 -0.1309 -0.0206
 8520TIP3    H147051   0.286   4.047  16.623 -0.0438  0.4641 -2.6722
 8520TIP3    H247052   0.372   3.923  16.623  1.0923  1.1730 -0.2322
 8521TIP3   OH247053   3.671   1.837  16.257 -0.3186  0.4946  0.2082
 8521TIP3    H147054   3.722   1.788  16.321  0.0235 -0.3183 -0.6510
 8521TIP3    H247055   3.580   1.818  16.279 -0.1933 -0.4717 -0.0497
 8522TIP3   OH247056   5.512   5.396  14.529 -0.5344  0.1306  0.3131
 8522TIP3    H147057   5.497   5.490  14.519  0.3051  0.3515  0.9835
 8522TIP3    H247058   5.445   5.367  14.592  0.8059  0.8171  2.1468
 8523TIP3   OH247059   0.591   1.639   2.759 -1.0344  0.3037 -0.4907
 8523TIP3    H147060   0.678   1.620   2.724  0.3709  1.0761  2.2895
 8523TIP3    H247061   0.535   1.573   2.719  1.1498 -1.3489 -1.0577
 8524TIP3   OH247062   6.199   5.039   0.315  0.2872  0.1440 -0.1092
 8524TIP3    H147063   6.222   4.997   0.398 -2.2789 -1.5754 -0.1298
 8524TIP3    H247064   6.104   5.027   0.308  0.0750  2.3216 -2.2045
 8525TIP3   OH247065   1.056   1.595   2.732  0.5766  0.4462  0.2786
 8525TIP3    H147066   0.984   1.611   2.793 -1.1243  0.0995 -1.5240
 8525TIP3    H247067   1.041   1.658   2.662  1.6589 -0.0832 -0.4454
 8526TIP3   OH247068   0.822   4.968  16.347 -0.4403  0.4764 -0.0333
 8526TIP3    H147069   0.904   4.967  16.297 -0.2116  1.1090  0.3101
 8526TIP3    H247070   0.810   5.060  16.370 -0.1127  0.0971  1.7576
 8527TIP3   OH247071   6.435   5.605  14.045 -0.7632  0.1302  0.3602
 8527TIP3    H147072   6.516   5.573  14.085 -0.3023 -0.1714 -0.7776
 8527TIP3    H247073   6.428   5.556  13.964 -2.0802  0.1830  0.4292
 8528TIP3   OH247074   4.601   3.832   4.839  0.0128 -0.6042 -0.1445
 8528TIP3    H147075   4.600   3.909   4.783  0.0575 -0.2988  0.2672
 8528TIP3    H247076   4.509   3.814   4.858  0.0047 -0.6205 -0.1998
 8529TIP3   OH247077   2.102   0.643   5.740 -0.6561 -0.0182 -0.2709
 8529TIP3    H147078   2.124   0.550   5.747  1.4032  0.3820 -0.5836
 8529TIP3    H247079   2.044   0.649   5.664 -0.4426 -1.0014 -0.5195
 8530TIP3   OH247080   3.937   5.803  15.530  0.2097 -0.3716 -0.0589
 8530TIP3    H147081   3.995   5.737  15.492  0.4877 -0.0827 -0.1322
 8530TIP3    H247082   3.891   5.841  15.456 -0.1441 -0.6627  0.0063
 8531TIP3   OH247083   4.264   3.208   2.872 -0.1191  0.7412 -0.2622
 8531TIP3    H147084   4.306   3.293   2.886  0.1251  0.5653  0.0812
 8531TIP3    H247085   4.282   3.158   2.952  0.7894 -0.0622 -0.9399
 8532TIP3   OH247086   5.739   3.603  14.791  0.5003 -0.0048 -0.1031
 8532TIP3    H147087   5.755   3.671  14.856  1.5932 -1.2806  1.0213
 8532TIP3    H247088   5.771   3.640  14.708 -0.1032  1.3010  0.2152
 8533TIP3   OH247089   1.191   5.789   4.338 -0.4030 -0.6941  0.5998
 8533TIP3    H147090   1.269   5.834   4.370 -0.2852 -1.7109  1.8308
 8533TIP3    H247091   1.224   5.706   4.303 -0.7101 -0.2237 -0.8484
 8534TIP3   OH247092   6.125   2.900   3.339  0.1779 -0.5785 -0.2987
 8534TIP3    H147093   6.144   2.816   3.298 -0.6601 -1.0367  0.2155
 8534TIP3    H247094   6.147   2.965   3.273 -0.4259 -1.2635 -1.1959
 8535TIP3   OH247095   6.633   4.519   6.356 -0.3119  0.3479  0.1553
 8535TIP3    H147096   6.685   4.544   6.432 -1.3666  0.4787  0.8572
 8535TIP3    H247097   6.580   4.445   6.385  2.1771 -2.3808 -1.6588
 8536TIP3   OH247098   6.779   0.403  16.143  0.4163 -0.3591  0.2242
 8536TIP3    H147099   6.863   0.367  16.116  1.0098 -0.5310  2.1323
 8536TIP3    H247100   6.802   0.472  16.206 -0.7639  1.9863 -1.7324
 8537TIP3   OH247101   3.171   1.377   1.635  0.0353 -0.0213 -0.5182
 8537TIP3    H147102   3.230   1.388   1.560  0.5949  0.3137 -0.0408
 8537TIP3    H247103   3.147   1.466   1.659 -0.3896 -0.1425 -0.4871
 8538TIP3   OH247104   3.629   3.532   2.792  0.4342 -0.0417  0.2433
 8538TIP3    H147105   3.659   3.619   2.766  1.2745 -0.0552  1.1009
 8538TIP3    H247106   3.664   3.473   2.725 -1.7768  0.4297 -1.4727
 8539TIP3   OH247107   0.549   6.503   2.549 -0.0579 -0.0852  0.1409
 8539TIP3    H147108   0.506   6.449   2.616 -0.7369  0.5999  0.2721
 8539TIP3    H247109   0.477   6.540   2.498  0.3311  1.4233  0.6343
 8540TIP3   OH247110   2.284   0.174   1.033  0.1675  0.0169 -0.1944
 8540TIP3    H147111   2.293   0.186   0.939 -1.5456  1.9950 -0.1687
 8540TIP3    H247112   2.224   0.100   1.042 -0.1247  0.1907 -0.6759
 8541TIP3   OH247113   6.159   2.907  15.829  0.7194 -0.2829 -0.1269
 8541TIP3    H147114   6.101   2.941  15.760  0.9407  1.5693  0.5577
 8541TIP3    H247115   6.114   2.829  15.860 -0.5706  0.1640 -0.7704
 8542TIP3   OH247116   4.949   2.855  10.381  0.1579  0.2220 -0.0820
 8542TIP3    H147117   4.919   2.800  10.308  1.3570  0.3600 -0.7111
 8542TIP3    H247118   5.014   2.914  10.341 -0.7511  1.7826  0.6700
 8543TIP3   OH247119   2.457   3.336  10.834 -0.5681  0.4101 -0.1762
 8543TIP3    H147120   2.479   3.333  10.741  0.7571 -1.9418  0.1429
 8543TIP3    H247121   2.506   3.411  10.868 -0.4261  0.8028 -1.2118
 8544TIP3   OH247122   4.342   5.033  15.222 -0.7445  0.3075 -0.1176
 8544TIP3    H147123   4.356   5.062  15.312  0.0629 -1.5511  0.4152
 8544TIP3    H247124   4.257   5.069  15.197 -0.0823  2.5522  0.6360
 8545TIP3   OH247125   0.073   1.072   5.514  0.1606 -0.1205 -0.5066
 8545TIP3    H147126  -0.003   1.030   5.554  0.3640 -0.5491 -0.5605
 8545TIP3    H247127   0.040   1.106   5.430  0.1001 -0.5938 -0.6798
 8546TIP3   OH247128   0.417   3.478  12.356 -0.3057 -0.7078  0.9854
 8546TIP3    H147129   0.475   3.431  12.296 -0.7098 -1.4241  1.1398
 8546TIP3    H247130   0.473   3.544  12.397 -0.0676 -0.0910 -0.2965
 8547TIP3   OH247131   4.419   2.981  11.847 -0.1706 -0.3721  0.2256
 8547TIP3    H147132   4.473   3.009  11.921  1.9303 -1.1513 -0.9124
 8547TIP3    H247133   4.430   3.050  11.781  0.8562 -1.3096 -0.6342
 8548TIP3   OH247134   5.986   0.081  16.042 -0.3148  0.3436 -0.2100
 8548TIP3    H147135   6.022   0.155  15.994 -2.7732  2.5867  1.1501
 8548TIP3    H247136   5.905   0.059  15.996 -0.1792 -0.7935  0.0550
 8549TIP3   OH247137   5.244   4.338  12.905 -0.6014 -0.1178  0.3890
 8549TIP3    H147138   5.338   4.328  12.918 -0.4119  1.6838  0.7199
 8549TIP3    H247139   5.236   4.398  12.831 -1.4710 -0.1532  0.4413
 8550TIP3   OH247140   4.622   5.714   3.949 -0.8541  0.1989 -0.2994
 8550TIP3    H147141   4.540   5.761   3.937 -0.0074  1.9716  0.4872
 8550TIP3    H247142   4.681   5.751   3.883 -0.7426 -1.2669 -1.0579
 8551TIP3   OH247143   6.620   1.852   1.800  0.1440  0.1113  0.4545
 8551TIP3    H147144   6.603   1.943   1.824  1.3583  0.4087  0.2572
 8551TIP3    H247145   6.560   1.801   1.854  0.9539  0.9118  2.1786
 8552TIP3   OH247146   0.863   3.802  17.050 -0.2009  0.2946  0.1092
 8552TIP3    H147147   0.953   3.772  17.064 -0.4076 -0.1951  0.4078
 8552TIP3    H247148   0.853   3.802  16.955  0.5413  1.6491 -0.0016
 8553TIP3   OH247149   6.047   1.794  11.702 -0.0993 -0.3448  0.6585
 8553TIP3    H147150   6.128   1.827  11.663  0.4262 -1.1455  1.0600
 8553TIP3    H247151   5.979   1.851  11.665  0.4460 -0.6602 -0.9512
 8554TIP3   OH247152   3.525   4.316  11.772 -0.1014 -0.0051  0.1862
 8554TIP3    H147153   3.514   4.411  11.771 -0.1654 -0.0124  0.1830
 8554TIP3    H247154   3.579   4.299  11.849 -1.5258 -0.1204  1.1995
 8555TIP3   OH247155   6.210   5.537  15.826  0.2229 -0.2570 -0.5032
 8555TIP3    H147156   6.151   5.564  15.897  1.1091  0.9852 -0.2040
 8555TIP3    H247157   6.257   5.461  15.862 -0.9620 -1.0713 -0.6372
 8556TIP3   OH247158   4.037   3.693  11.710 -0.3647  1.0391 -0.3809
 8556TIP3    H147159   4.001   3.782  11.709 -0.5529  0.9695  0.3023
 8556TIP3    H247160   4.033   3.665  11.618  2.3455  2.7951 -1.1679
 8557TIP3   OH247161   5.769   0.573  15.797 -0.1366  0.0405 -0.4421
 8557TIP3    H147162   5.783   0.478  15.796 -1.0138 -0.1104 -2.2188
 8557TIP3    H247163   5.698   0.587  15.735  0.5151  1.9523 -0.8085
 8558TIP3   OH247164   3.960   2.299  14.542 -0.3235  0.2902  0.4050
 8558TIP3    H147165   3.967   2.317  14.448  5.2540 -0.8688  0.2718
 8558TIP3    H247166   3.903   2.222  14.547  0.3145 -0.4793 -2.2639
 8559TIP3   OH247167   0.741   1.000   3.784 -0.1366 -0.2637 -0.4042
 8559TIP3    H147168   0.823   1.004   3.735 -0.5456  1.0215 -1.0278
 8559TIP3    H247169   0.757   1.052   3.863 -0.3173 -0.0771 -0.4891
 8560TIP3   OH247170   3.222   1.288  10.998  0.5235  0.0439  0.1610
 8560TIP3    H147171   3.212   1.306  11.091  1.1056 -0.8501  0.4177
 8560TIP3    H247172   3.194   1.368  10.954  1.3495  0.8927  1.1452
 8561TIP3   OH247173   0.839   5.543  11.259  0.3244 -0.2520 -0.4703
 8561TIP3    H147174   0.824   5.466  11.205 -0.0826  1.7050 -3.3310
 8561TIP3    H247175   0.875   5.609  11.199 -0.0619  2.0634  1.6563
 8562TIP3   OH247176   0.625   6.254   6.266 -0.4405 -0.0249 -0.3212
 8562TIP3    H147177   0.652   6.265   6.175  2.6013 -1.2176  0.3005
 8562TIP3    H247178   0.659   6.332   6.311 -1.3892  0.2640 -0.0846
 8563TIP3   OH247179   4.221   3.235   3.517 -0.9518 -0.3478 -0.2334
 8563TIP3    H147180   4.210   3.204   3.606 -0.0296  1.6995  0.6747
 8563TIP3    H247181   4.135   3.225   3.477 -1.6440 -0.3831  1.2041
 8564TIP3   OH247182   6.356   2.139  11.041 -0.2114 -0.0155 -0.3167
 8564TIP3    H147183   6.364   2.230  11.011  0.5628  1.0198  2.6507
 8564TIP3    H247184   6.263   2.127  11.057 -0.0466  1.5066  2.4165
 8565TIP3   OH247185   2.751   2.140  16.714 -1.0179  0.5376  0.0447
 8565TIP3    H147186   2.716   2.221  16.677 -0.8469  0.4815 -0.2417
 8565TIP3    H247187   2.676   2.100  16.759 -1.0627  0.9305  0.3223
 8566TIP3   OH247188   5.648   4.192   4.385 -0.4351  0.2075 -0.5545
 8566TIP3    H147189   5.628   4.285   4.398 -0.7983  0.0036  0.4830
 8566TIP3    H247190   5.580   4.146   4.434 -0.0415 -0.6024 -0.7496
 8567TIP3   OH247191   4.261   5.564  13.598 -0.8322 -0.1750  0.2186
 8567TIP3    H147192   4.263   5.640  13.656 -2.7930  1.4048 -1.6083
 8567TIP3    H247193   4.189   5.510  13.629 -0.1963 -0.7075  0.7993
 8568TIP3   OH247194   2.229   3.101   5.170  0.1912  0.1346  0.3736
 8568TIP3    H147195   2.197   3.060   5.251 -1.9313  0.8068 -0.0741
 8568TIP3    H247196   2.213   3.194   5.182  2.2581  0.5692  0.1690
 8569TIP3   OH247197   5.510   5.274  13.353  0.0747 -0.0053 -0.0774
 8569TIP3    H147198   5.547   5.352  13.396 -0.8195  0.3974 -0.0283
 8569TIP3    H247199   5.574   5.253  13.285 -0.5331  1.8895 -1.3194
 8570TIP3   OH247200   6.703   1.124   0.295  0.5835 -0.0272 -0.2577
 8570TIP3    H147201   6.671   1.131   0.384  1.5024 -0.4877  0.1195
 8570TIP3    H247202   6.675   1.037   0.266 -0.8208  0.6060 -0.8835
 8571TIP3   OH247203   1.238   6.195   2.296 -0.0243  0.3001  0.1782
 8571TIP3    H147204   1.187   6.147   2.231  1.1114 -0.2029 -0.3676
 8571TIP3    H247205   1.310   6.136   2.319 -0.9996  0.0018  2.7513
 8572TIP3   OH247206   1.309   6.358   6.204 -0.4274 -0.3476  0.3605
 8572TIP3    H147207   1.256   6.436   6.221 -1.0491 -0.7325  0.1959
 8572TIP3    H247208   1.380   6.364   6.268 -0.6407  0.1931  0.5570
 8573TIP3   OH247209   5.469   5.254   0.253  0.0212  0.0733  0.1887
 8573TIP3    H147210   5.410   5.325   0.229 -0.8340 -0.0419  1.7703
 8573TIP3    H247211   5.469   5.255   0.349  0.3323 -1.7553  0.2505
 8574TIP3   OH247212   1.968   0.754   1.401  0.2266 -0.0637 -0.1697
 8574TIP3    H147213   1.994   0.665   1.379  1.2737  0.2478 -0.2353
 8574TIP3    H247214   2.047   0.795   1.436 -0.9222  0.0094  2.5540
 8575TIP3   OH247215   3.913   0.612   5.889 -0.0768  0.3460  0.2735
 8575TIP3    H147216   3.847   0.550   5.919  0.1685  0.0345  0.1759
 8575TIP3    H247217   3.896   0.691   5.940 -0.4314  0.2231  0.3537
 8576TIP3   OH247218   0.059   5.251   3.850 -0.0635  0.0192  0.3229
 8576TIP3    H147219   0.031   5.250   3.758 -1.7775  2.4479  0.7313
 8576TIP3    H247220   0.136   5.194   3.852 -1.2902 -1.8856 -2.1457
 8577TIP3   OH247221   6.359   0.657   1.045  0.4166 -0.5614 -0.6099
 8577TIP3    H147222   6.378   0.732   1.101 -0.8897  0.4861 -1.5089
 8577TIP3    H247223   6.363   0.692   0.956 -2.5547 -0.9194 -0.9848
 8578TIP3   OH247224   4.265   4.189   6.481  0.1196  0.0036 -0.5642
 8578TIP3    H147225   4.286   4.278   6.509 -2.1587 -0.0235  1.6155
 8578TIP3    H247226   4.186   4.199   6.428 -1.1303 -0.7830  1.0691
 8579TIP3   OH247227   2.903   1.860  14.736 -0.0407  0.3007 -0.3656
 8579TIP3    H147228   2.960   1.878  14.662  3.2037 -0.7685  1.6577
 8579TIP3    H247229   2.884   1.767  14.730 -2.0761  0.7108 -1.2315
 8580TIP3   OH247230   5.191   1.969   3.792  0.0472 -0.3671 -0.5242
 8580TIP3    H147231   5.241   1.898   3.831  0.0241  0.5596  1.3143
 8580TIP3    H247232   5.116   1.981   3.851 -0.1966  0.8817 -1.0429
 8581TIP3   OH247233   2.146   6.677   1.706  0.4016 -0.1514  0.4588
 8581TIP3    H147234   2.214   6.618   1.676 -0.1804 -2.3897  3.1009
 8581TIP3    H247235   2.193   6.754   1.738  1.3609 -0.1103 -0.9920
 8582TIP3   OH247236   3.925   3.999   0.672 -0.0950 -0.6266 -0.6123
 8582TIP3    H147237   3.942   4.018   0.579  1.0584 -1.8868 -0.6884
 8582TIP3    H247238   3.838   3.958   0.672 -0.2515 -0.3053 -1.0867
 8583TIP3   OH247239   6.210   5.978  12.493 -0.5323 -0.1782 -0.0872
 8583TIP3    H147240   6.144   5.944  12.554 -0.4278 -1.2110 -0.5401
 8583TIP3    H247241   6.255   5.900  12.459  1.0135  0.5017  0.3013
 8584TIP3   OH247242   1.265   5.068  16.633 -0.0468  0.0408  0.6526
 8584TIP3    H147243   1.282   4.974  16.637 -1.2266 -0.2129  0.1808
 8584TIP3    H247244   1.171   5.074  16.616  0.2751  1.2847 -0.8553
 8585TIP3   OH247245   5.586   5.143  14.244 -0.4084 -0.2689 -0.0276
 8585TIP3    H147246   5.665   5.127  14.296 -1.2891  0.4926  1.6368
 8585TIP3    H247247   5.618   5.160  14.156  1.0528 -3.2888 -0.1997
 8586TIP3   OH247248   5.359   5.066   5.911 -0.0927 -0.7884  0.1105
 8586TIP3    H147249   5.281   5.024   5.874  0.7445 -0.5955 -1.9934
 8586TIP3    H247250   5.348   5.056   6.005 -1.8077 -2.3092 -0.1822
 8587TIP3   OH247251   5.633   6.421   2.430  0.0272  0.0248 -0.4295
 8587TIP3    H147252   5.570   6.493   2.438  0.4527  0.3057  0.4042
 8587TIP3    H247253   5.709   6.449   2.480  1.1208 -0.0040 -2.0237
 8588TIP3   OH247254   3.474   1.636  16.114 -0.0228 -0.0365  0.0617
 8588TIP3    H147255   3.419   1.678  16.180  0.1703 -0.4960  0.5222
 8588TIP3    H247256   3.417   1.630  16.037 -1.0911 -1.6837  0.9188
 8589TIP3   OH247257   5.017   1.199  14.991  0.4883  0.2724  0.3478
 8589TIP3    H147258   5.049   1.222  15.078  1.4259  0.0995  0.0512
 8589TIP3    H247259   5.076   1.131  14.960  0.3751  0.5701 -0.5627
 8590TIP3   OH247260   2.939   5.564   6.548  0.1313  0.5471  0.6273
 8590TIP3    H147261   2.854   5.577   6.591 -1.4925 -2.6480 -1.3016
 8590TIP3    H247262   2.942   5.632   6.481 -1.4218  0.1004  0.0599
 8591TIP3   OH247263   2.209   6.388  16.678 -0.3990  0.1021  1.1583
 8591TIP3    H147264   2.303   6.382  16.691 -0.2685  1.7362  1.0783
 8591TIP3    H247265   2.172   6.378  16.766 -0.2781 -1.9419  1.0346
 8592TIP3   OH247266   3.654   6.286   2.353  0.0609 -0.3886  0.4788
 8592TIP3    H147267   3.565   6.321   2.349  0.2182 -0.0493 -1.8373
 8592TIP3    H247268   3.709   6.359   2.324  0.7465 -1.5094 -1.1681
 8593TIP3   OH247269   1.524   6.602  11.723 -0.8005 -0.5783  0.1320
 8593TIP3    H147270   1.482   6.589  11.638 -0.8628  0.0850  0.0629
 8593TIP3    H247271   1.540   6.513  11.755  0.6978 -0.8744 -1.2943
 8594TIP3   OH247272   5.226   6.183   3.208  0.3125  0.8934 -0.2594
 8594TIP3    H147273   5.169   6.161   3.134 -1.4146  2.4528  0.5175
 8594TIP3    H247274   5.267   6.266   3.182 -1.2362  2.0922  0.9492
 8595TIP3   OH247275   4.503   4.811   5.148  0.7244  0.3597  0.9121
 8595TIP3    H147276   4.527   4.903   5.155  1.4430  0.4400 -1.5619
 8595TIP3    H247277   4.487   4.798   5.054 -2.0762 -1.4110  1.5097
 8596TIP3   OH247278   3.039   5.884  14.715  0.8998  0.5904 -0.1803
 8596TIP3    H147279   2.997   5.800  14.733  2.0679  0.1879  0.8421
 8596TIP3    H247280   2.990   5.920  14.641 -0.0004 -0.7166 -0.2606
 8597TIP3   OH247281   4.525   5.083  12.408 -0.0955 -0.4891  0.2702
 8597TIP3    H147282   4.535   5.000  12.362 -2.9915 -0.1383 -1.2367
 8597TIP3    H247283   4.510   5.059  12.499 -0.2392 -1.5760 -0.0289
 8598TIP3   OH247284   0.865   3.089  17.264  0.0347  0.4587 -0.7982
 8598TIP3    H147285   0.859   3.067  17.171 -2.3686  1.1098 -0.8668
 8598TIP3    H247286   0.803   3.030  17.306  0.1013  1.0873  0.2020
 8599TIP3   OH247287   0.024   2.747   1.399  0.0097 -0.2895  0.0910
 8599TIP3    H147288   0.057   2.719   1.314 -0.0532 -0.5107  0.1392
 8599TIP3    H247289   0.073   2.826   1.420  0.3853 -0.5222  0.0860
 8600TIP3   OH247290   5.825   4.505  12.144 -0.4951 -0.4405  0.2532
 8600TIP3    H147291   5.893   4.515  12.077  0.0044 -0.2953  0.7679
 8600TIP3    H247292   5.745   4.486  12.095 -0.3373  0.6193 -0.4408
 8601TIP3   OH247293   6.292   2.725   3.913  0.4474 -0.1259 -0.3681
 8601TIP3    H147294   6.368   2.701   3.859  1.3353  0.8467  0.3987
 8601TIP3    H247295   6.235   2.649   3.909  2.1464 -1.4918  0.2381
 8602TIP3   OH247296   2.741   4.395  11.034  0.4317 -0.1594 -0.5682
 8602TIP3    H147297   2.668   4.359  10.983  0.2549  1.9523 -1.9493
 8602TIP3    H247298   2.806   4.421  10.968  1.1682  0.6334  0.4302
 8603TIP3   OH247299   0.946   1.513   5.284 -0.3772 -0.4417  0.0612
 8603TIP3    H147300   0.943   1.540   5.192 -0.9754 -0.7594 -0.0150
 8603TIP3    H247301   0.973   1.421   5.281  1.1423 -0.0258  0.2936
 8604TIP3   OH247302   2.704   0.652  13.845 -0.1440  0.1422 -0.3539
 8604TIP3    H147303   2.780   0.593  13.844 -1.3218 -1.4166 -0.4844
 8604TIP3    H247304   2.663   0.640  13.760 -1.2651 -0.0214  0.1955
 8605TIP3   OH247305   2.051   1.817   3.114  0.0403  0.3224  0.1275
 8605TIP3    H147306   2.054   1.883   3.184 -0.4652 -0.4100  0.8578
 8605TIP3    H247307   2.143   1.790   3.104  0.5090  2.2620 -1.3123
 8606TIP3   OH247308   4.787   2.248  14.183  0.4056 -0.6236 -0.1115
 8606TIP3    H147309   4.860   2.242  14.122  0.4785 -0.2205 -0.0683
 8606TIP3    H247310   4.824   2.288  14.261  0.6841 -2.6183  0.8273
 8607TIP3   OH247311   1.911   5.647  16.560 -0.5488 -0.2630 -0.4487
 8607TIP3    H147312   1.911   5.643  16.464 -0.5768  2.4829 -0.6475
 8607TIP3    H247313   1.843   5.711  16.581 -1.8145 -2.1225  1.5721
 8608TIP3   OH247314   4.932   3.720   0.063 -0.2820 -0.2010 -0.6153
 8608TIP3    H147315   4.886   3.713   0.146 -0.5010  0.8085 -0.6429
 8608TIP3    H247316   5.015   3.673   0.077  0.0797  0.7134  0.4594
 8609TIP3   OH247317   0.519   4.624   4.336  0.2709  0.3587 -0.0469
 8609TIP3    H147318   0.608   4.596   4.359  0.8324  0.6891 -1.6888
 8609TIP3    H247319   0.528   4.718   4.316 -0.6121  0.5808  0.5266
 8610TIP3   OH247320   5.424   0.288   4.323  0.3208 -0.0023 -0.3838
 8610TIP3    H147321   5.427   0.205   4.275  1.1757 -0.7705  0.9313
 8610TIP3    H247322   5.351   0.278   4.384  0.2949  0.3011 -0.3625
 8611TIP3   OH247323   4.292   0.678   2.511 -0.3860  0.1963 -0.0457
 8611TIP3    H147324   4.273   0.614   2.580  0.0694 -0.2162 -0.2902
 8611TIP3    H247325   4.286   0.763   2.555 -0.6338 -0.0319  0.3739
 8612TIP3   OH247326   6.134   1.312   1.344 -0.9251  0.2246 -0.3912
 8612TIP3    H147327   6.082   1.268   1.276  1.6895 -2.5432 -0.8192
 8612TIP3    H247328   6.188   1.374   1.297  0.5165 -1.3325 -0.9052
 8613TIP3   OH247329   3.013   3.122   0.541  0.3015 -0.1620 -0.2186
 8613TIP3    H147330   2.994   3.166   0.624  1.0351 -1.1898  0.5055
 8613TIP3    H247331   2.941   3.060   0.530 -1.0100  1.4812 -1.4909
 8614TIP3   OH247332   0.682   0.264   3.000 -0.0011 -0.2642 -0.4035
 8614TIP3    H147333   0.727   0.323   2.938 -0.4219  0.6032  0.1058
 8614TIP3    H247334   0.705   0.176   2.969  0.8372  0.1581 -1.0357
 8615TIP3   OH247335   0.566   0.949   5.388  0.6043 -1.1910 -0.1767
 8615TIP3    H147336   0.624   1.024   5.377 -1.1326 -0.0508 -2.3572
 8615TIP3    H247337   0.605   0.880   5.335 -0.3751 -0.1329 -2.4245
 8616TIP3   OH247338   4.757   4.695   5.235 -0.1364 -0.0466  0.3776
 8616TIP3    H147339   4.672   4.671   5.273 -0.4747  1.9922  1.0813
 8616TIP3    H247340   4.740   4.779   5.193  0.5129 -1.6348 -3.4100
 8617TIP3   OH247341   6.451   4.923  15.211 -0.8158 -0.3288  0.0652
 8617TIP3    H147342   6.365   4.904  15.172 -0.6815 -1.0158  0.0984
 8617TIP3    H247343   6.451   4.876  15.294 -0.4833 -0.1637  0.1599
 8618TIP3   OH247344   0.824   1.815  10.940  0.0182 -0.5797 -0.5341
 8618TIP3    H147345   0.734   1.788  10.923 -0.0435 -0.6765 -0.0542
 8618TIP3    H247346   0.839   1.887  10.879 -1.3568  1.4239  1.3598
 8619TIP3   OH247347   2.568   4.656   1.697  0.0991  0.4099 -0.1807
 8619TIP3    H147348   2.601   4.708   1.770 -1.3743 -1.0755  1.6389
 8619TIP3    H247349   2.513   4.716   1.648  1.0777  1.4225 -0.0844
 8620TIP3   OH247350   6.338   5.302  16.573  0.1584 -0.3083 -0.4915
 8620TIP3    H147351   6.417   5.309  16.519  0.1395 -0.0960 -0.4934
 8620TIP3    H247352   6.332   5.387  16.617  0.0966 -0.4301 -0.2622
 8621TIP3   OH247353   4.338   4.455  15.636  0.0268  1.0175 -0.1063
 8621TIP3    H147354   4.304   4.501  15.713 -1.5850  1.4726 -1.0337
 8621TIP3    H247355   4.342   4.522  15.568 -1.9297 -0.0565 -1.3684
 8622TIP3   OH247356   1.419   3.533   3.417 -0.0103 -0.5008  0.1117
 8622TIP3    H147357   1.377   3.450   3.398  0.8365 -1.2147  1.2209
 8622TIP3    H247358   1.435   3.532   3.511 -0.0024  0.9324  0.1610
 8623TIP3   OH247359   0.284   1.341  13.281  0.3566  0.6462  0.3331
 8623TIP3    H147360   0.321   1.269  13.230  0.6784  1.1453 -0.1465
 8623TIP3    H247361   0.359   1.396  13.304  0.0768  0.9918  0.4321
 8624TIP3   OH247362   5.125   3.289  14.774  0.9260  0.4656  0.7663
 8624TIP3    H147363   5.050   3.267  14.829  0.6009 -1.1854 -0.2612
 8624TIP3    H247364   5.119   3.384  14.762 -2.2951  0.1911 -0.9997
 8625TIP3   OH247365   1.222   1.874   2.528 -0.4409 -0.1499  0.0850
 8625TIP3    H147366   1.136   1.838   2.549 -1.3533  1.5884 -0.5256
 8625TIP3    H247367   1.209   1.969   2.527  1.7035  0.2113  0.9165
 8626TIP3   OH247368   6.245   6.463   5.885  0.1167  0.4093 -0.4042
 8626TIP3    H147369   6.158   6.471   5.846 -0.1461 -0.5924 -0.0469
 8626TIP3    H247370   6.233   6.494   5.975  0.5298  1.8966 -0.8313
 8627TIP3   OH247371   1.371   6.217   1.516  0.0512  0.0561  0.3204
 8627TIP3    H147372   1.296   6.196   1.571 -0.6171 -0.4000 -0.7471
 8627TIP3    H247373   1.334   6.267   1.443  0.9654  0.9083  0.4228
 8628TIP3   OH247374   0.993   4.454  17.266 -0.9281  1.0018  0.0032
 8628TIP3    H147375   0.968   4.362  17.277 -0.0002  0.9448  2.1276
 8628TIP3    H247376   0.994   4.468  17.171  0.5368 -1.6558 -0.4568
 8629TIP3   OH247377   3.524   2.805   0.844 -0.6145  0.0515  0.2369
 8629TIP3    H147378   3.523   2.900   0.837 -0.3772  0.0640  0.3726
 8629TIP3    H247379   3.557   2.787   0.932  1.8816 -0.1898 -0.6635
 8630TIP3   OH247380   3.611   1.315  11.001  0.0128  0.0684  0.6791
 8630TIP3    H147381   3.686   1.357  11.042 -0.5312  0.2934  1.4625
 8630TIP3    H247382   3.539   1.376  11.015 -0.0874  0.4211 -1.1087
 8631TIP3   OH247383   3.307   3.305   1.324 -0.0239 -0.3801  0.2772
 8631TIP3    H147384   3.395   3.303   1.286 -0.4864  1.5400 -1.0962
 8631TIP3    H247385   3.302   3.227   1.379  2.8448 -0.0540  1.1477
 8632TIP3   OH247386   2.884   1.147   3.481 -0.7494  0.0282  0.4566
 8632TIP3    H147387   2.812   1.207   3.499  0.2598  1.1553  0.8355
 8632TIP3    H247388   2.843   1.075   3.433 -1.8478  1.3827 -0.7174
 8633TIP3   OH247389   4.820   2.304   4.793 -0.0192  0.0593 -0.0898
 8633TIP3    H147390   4.750   2.238   4.792 -0.1234  0.1619  0.2226
 8633TIP3    H247391   4.881   2.274   4.860 -1.8456  2.0705  2.6847
 8634TIP3   OH247392   2.642   0.802   1.352 -0.4374 -0.3497  0.1757
 8634TIP3    H147393   2.610   0.723   1.395 -0.1853 -0.4324  0.2136
 8634TIP3    H247394   2.691   0.848   1.420 -0.2292 -0.3695  0.0397
 8635TIP3   OH247395   3.121   5.438  13.709  0.4498  0.8047 -0.2569
 8635TIP3    H147396   3.195   5.441  13.648  0.6784  1.2428  0.0326
 8635TIP3    H247397   3.161   5.451  13.795  0.0469  0.9398 -0.0877
 8636TIP3   OH247398   3.761   6.576  15.725  0.0164  0.4045  0.2554
 8636TIP3    H147399   3.846   6.604  15.689 -0.0168 -0.3086 -0.4178
 8636TIP3    H247400   3.751   6.486  15.694 -0.3488  0.0010  1.5077
 8637TIP3   OH247401   5.051   2.730   4.564  0.0511 -0.4006 -0.0717
 8637TIP3    H147402   5.110   2.788   4.613 -0.2792 -0.2272  0.1225
 8637TIP3    H247403   5.069   2.749   4.472 -0.1926  0.1472 -0.0063
 8638TIP3   OH247404   0.062   4.697   1.278  0.3224 -0.2136 -0.2141
 8638TIP3    H147405   0.019   4.650   1.206  0.3976  0.5229 -0.7463
 8638TIP3    H247406   0.052   4.789   1.256 -0.8175  0.0804  1.4050
 8639TIP3   OH247407   1.324   3.812  12.761  0.9376 -0.4220  1.1387
 8639TIP3    H147408   1.303   3.848  12.847  1.5502  0.3672  0.9654
 8639TIP3    H247409   1.283   3.872  12.699  1.1704 -0.5439  0.8651
 8640TIP3   OH247410   0.296   1.137   2.813  0.3939  0.5435 -0.3244
 8640TIP3    H147411   0.248   1.149   2.731  1.8414  4.4215 -0.7991
 8640TIP3    H247412   0.232   1.097   2.872 -1.5656  0.2090 -2.4949
 8641TIP3   OH247413   2.824   0.380  16.320  0.1573  0.6578 -0.0017
 8641TIP3    H147414   2.838   0.337  16.405  0.1943  1.2905  0.3163
 8641TIP3    H247415   2.852   0.470  16.334 -0.5895  0.9642 -0.4706
 8642TIP3   OH247416   0.100   0.165  16.725  0.0308 -0.5841 -0.1574
 8642TIP3    H147417   0.149   0.227  16.671 -3.6022  1.9644 -0.9270
 8642TIP3    H247418   0.059   0.219  16.792 -1.6747 -2.4842  0.4361
 8643TIP3   OH247419   0.402   1.727  10.492  0.4122  0.2615  0.3152
 8643TIP3    H147420   0.474   1.689  10.543  1.5942 -2.2004 -2.8285
 8643TIP3    H247421   0.351   1.652  10.463 -0.4355  1.5207 -1.6926
 8644TIP3   OH247422   4.159   2.373   5.906  0.0811 -0.0530  0.0144
 8644TIP3    H147423   4.111   2.437   5.958  3.7188  0.8346  2.6513
 8644TIP3    H247424   4.139   2.289   5.946 -0.7085  0.0409 -0.1655
 8645TIP3   OH247425   3.340   3.603  11.660  0.5047  0.0747 -0.1251
 8645TIP3    H147426   3.268   3.653  11.698  1.4783  2.9639 -1.8139
 8645TIP3    H247427   3.406   3.600  11.730 -0.0947 -0.0710  0.4464
 8646TIP3   OH247428   4.418   2.644   2.232  0.3563  0.1992  0.2711
 8646TIP3    H147429   4.466   2.604   2.305 -0.2686 -0.2935  0.4271
 8646TIP3    H247430   4.382   2.724   2.269  0.8200  0.4289  0.2322
 8647TIP3   OH247431   4.062   0.644  15.996  0.0452  0.1953 -0.3046
 8647TIP3    H147432   3.974   0.606  16.000 -0.3295  1.2047  2.0235
 8647TIP3    H247433   4.102   0.600  15.921 -2.4917 -0.1159 -1.6295
 8648TIP3   OH247434   6.001   2.919  15.038  0.0629  0.2134 -0.2096
 8648TIP3    H147435   5.908   2.932  15.020 -0.6208 -0.1443  2.6129
 8648TIP3    H247436   6.043   2.999  15.007 -1.2831  0.6826 -0.8818
 8649TIP3   OH247437   5.161   6.174  12.343 -0.3938  0.2919 -0.1140
 8649TIP3    H147438   5.123   6.183  12.430 -0.9182 -0.1227 -0.2991
 8649TIP3    H247439   5.161   6.263  12.307  1.5457  0.8153  1.0024
 8650TIP3   OH247440   1.417   1.652   4.803 -0.2158  0.4087  0.4409
 8650TIP3    H147441   1.414   1.665   4.897  1.6219  0.8782  0.4681
 8650TIP3    H247442   1.403   1.739   4.766  0.7116  0.5305  0.3441
 8651TIP3   OH247443   5.743   0.513  14.043 -0.1293 -0.1961 -0.3300
 8651TIP3    H147444   5.689   0.545  13.971  0.9356 -0.2697 -1.1817
 8651TIP3    H247445   5.802   0.586  14.063  2.3016 -1.5087 -2.2713
 8652TIP3   OH247446   4.923   6.021  12.299  0.0564 -0.6395 -0.2241
 8652TIP3    H147447   4.998   5.964  12.280 -0.3255 -0.6921 -1.6306
 8652TIP3    H247448   4.961   6.107  12.316  0.4360 -0.6190 -1.1397
 8653TIP3   OH247449   0.528   5.239  15.277 -0.0781  0.1968 -0.4576
 8653TIP3    H147450   0.562   5.198  15.197  1.9014  1.2336 -0.2154
 8653TIP3    H247451   0.510   5.330  15.251  0.9341  0.6419  0.3257
 8654TIP3   OH247452   1.558   3.743   4.389 -0.0338  0.7521  0.6534
 8654TIP3    H147453   1.546   3.757   4.295 -0.0805  0.7488  0.6587
 8654TIP3    H247454   1.469   3.734   4.423  0.0016  0.3624  0.6380
 8655TIP3   OH247455   1.424   2.939   1.331  0.1866  0.4460 -0.3670
 8655TIP3    H147456   1.331   2.928   1.351  0.6077  0.1510  1.6534
 8655TIP3    H247457   1.439   2.882   1.257 -0.9633 -0.5973  0.1652
 8656TIP3   OH247458   3.404   1.647   3.334 -0.2834 -0.2862  0.1031
 8656TIP3    H147459   3.432   1.640   3.243  1.0308  0.2554  0.4318
 8656TIP3    H247460   3.372   1.737   3.343 -1.5386 -0.7020 -0.1055
 8657TIP3   OH247461   6.714   3.628  16.503 -0.0706 -0.2789 -0.3206
 8657TIP3    H147462   6.666   3.615  16.420  0.6935  1.5144 -1.1015
 8657TIP3    H247463   6.653   3.679  16.557  0.1774  0.2668 -0.5491
 8658TIP3   OH247464   3.438   5.059   3.027  0.3340 -0.0670 -0.3864
 8658TIP3    H147465   3.380   5.131   3.005 -0.6510 -0.4506  0.8809
 8658TIP3    H247466   3.445   5.061   3.122  2.5729  0.0892 -0.4942
 8659TIP3   OH247467   0.172   6.180   5.933 -0.1380 -0.3111  0.2500
 8659TIP3    H147468   0.111   6.141   5.869 -0.3423 -1.0229  0.8562
 8659TIP3    H247469   0.204   6.105   5.983  0.5223  0.1704  0.5551
 8660TIP3   OH247470   1.863   3.136  12.052  0.4265 -0.1782 -0.1663
 8660TIP3    H147471   1.947   3.161  12.013 -0.2962  1.8625 -0.5155
 8660TIP3    H247472   1.880   3.133  12.146  1.0714 -0.5357 -0.2894
 8661TIP3   OH247473   1.181   2.142   5.784 -0.3735 -0.5655 -0.1772
 8661TIP3    H147474   1.093   2.107   5.771 -0.5294  0.0509 -0.8146
 8661TIP3    H247475   1.195   2.201   5.710 -0.2892  1.0366  1.0591
 8662TIP3   OH247476   4.714   4.634   0.293 -0.0854 -0.7963  0.1947
 8662TIP3    H147477   4.743   4.677   0.374 -0.0806 -0.7331  0.1594
 8662TIP3    H247478   4.662   4.700   0.248  0.6601 -0.5239 -0.2824
 8663TIP3   OH247479   1.054   0.915  15.134  0.4196  0.3438 -0.0516
 8663TIP3    H147480   1.140   0.900  15.096  0.8134  0.4750  0.7539
 8663TIP3    H247481   1.024   0.827  15.160 -1.1773 -0.2002 -3.3049
 8664TIP3   OH247482   2.801   6.813   2.772  0.9113  0.0034  0.1358
 8664TIP3    H147483   2.825   6.803   2.680 -0.0586  0.5946 -0.2021
 8664TIP3    H247484   2.861   6.878   2.807  0.3254  0.9071 -0.4936
 8665TIP3   OH247485   0.552   1.370  11.053  0.3105 -0.3904  0.7732
 8665TIP3    H147486   0.612   1.367  11.128 -1.1539  0.3823  2.0478
 8665TIP3    H247487   0.545   1.279  11.025 -0.5629 -1.0255  2.8340
 8666TIP3   OH247488   3.115   4.535   6.008 -0.4846 -0.0184  0.3942
 8666TIP3    H147489   3.024   4.543   5.981 -0.4673 -1.2500 -0.1074
 8666TIP3    H247490   3.161   4.605   5.962 -0.5815 -1.5698 -2.2240
 8667TIP3   OH247491   1.675   4.343   2.052  0.6865  0.0731 -0.2431
 8667TIP3    H147492   1.603   4.379   2.105  0.2011  0.2730 -1.0200
 8667TIP3    H247493   1.730   4.418   2.033  0.9936 -0.0431  0.1759
 8668TIP3   OH247494   6.762   3.845   3.126 -0.1061  0.1033 -0.1585
 8668TIP3    H147495   6.750   3.888   3.041 -0.8687  1.2078  0.4676
 8668TIP3    H247496   6.856   3.849   3.142  0.1309 -0.7426 -1.2468
 8669TIP3   OH247497   1.307   1.864  13.284  0.0765 -0.6027 -0.2737
 8669TIP3    H147498   1.365   1.862  13.208 -0.2576  0.1785 -0.5639
 8669TIP3    H247499   1.224   1.897  13.250  0.8312  3.0881  0.9709
 8670TIP3   OH247500   5.753   4.272  15.024 -0.4102  0.4467 -0.0867
 8670TIP3    H147501   5.668   4.232  15.008 -0.5624 -0.3155  2.2386
 8670TIP3    H247502   5.734   4.365  15.034 -0.6584  0.5608 -1.4648
 8671TIP3   OH247503   5.746   1.698   3.429  0.2959  0.1517  0.3914
 8671TIP3    H147504   5.707   1.778   3.463  1.3641  0.1886  1.5942
 8671TIP3    H247505   5.710   1.689   3.341 -0.4391  1.5227  0.5322
 8672TIP3   OH247506   1.053   6.352   0.544 -0.1678  0.4082  0.8097
 8672TIP3    H147507   1.058   6.446   0.525 -0.0466  0.4371  0.9841
 8672TIP3    H247508   1.143   6.322   0.537 -0.5223 -0.2928 -2.2618
 8673TIP3   OH247509   1.972   2.236   5.455  0.1074 -0.1347  0.0047
 8673TIP3    H147510   2.030   2.174   5.410  1.2787 -0.0070  1.2860
 8673TIP3    H247511   2.030   2.288   5.511 -0.9118  1.8304 -0.6737
 8674TIP3   OH247512   0.693   4.572  16.584  0.4510 -0.2294  0.0419
 8674TIP3    H147513   0.607   4.613  16.580  0.5030 -0.1659 -0.5549
 8674TIP3    H247514   0.702   4.527  16.500  0.8913 -0.4581  0.2069
 8675TIP3   OH247515   4.489   6.105  14.673 -0.1133  0.3089  0.1567
 8675TIP3    H147516   4.452   6.185  14.709  1.3420  1.2067 -0.2942
 8675TIP3    H247517   4.505   6.124  14.581  1.4117 -0.0621  0.3235
 8676TIP3   OH247518   6.048   3.894  10.995  0.6885  0.1058  0.1146
 8676TIP3    H147519   5.987   3.961  11.027  0.9828  1.2554 -1.5932
 8676TIP3    H247520   6.046   3.826  11.062  0.4398  1.8487  1.9843
 8677TIP3   OH247521   3.168   1.206  14.667 -0.1139  0.0793  0.0067
 8677TIP3    H147522   3.118   1.232  14.590  0.2681  0.2864 -0.1707
 8677TIP3    H247523   3.224   1.134  14.637  1.1344  1.1538 -0.2903
 8678TIP3   OH247524   0.521   2.246   3.348  0.4570 -0.5265  0.6111
 8678TIP3    H147525   0.484   2.160   3.370  0.8962 -0.6645  0.8255
 8678TIP3    H247526   0.499   2.259   3.256  0.2677 -0.8078  0.6167
 8679TIP3   OH247527   4.546   1.842  16.639  0.7098  0.0538  0.6779
 8679TIP3    H147528   4.461   1.819  16.602  2.4462 -2.1161 -2.4065
 8679TIP3    H247529   4.546   1.938  16.642 -0.8725  0.2243 -1.9001
 8680TIP3   OH247530   4.146   5.173  14.370  0.6125 -0.1664 -0.4908
 8680TIP3    H147531   4.227   5.220  14.352 -0.6190  1.4697 -2.1633
 8680TIP3    H247532   4.106   5.221  14.443  0.3367  0.0876 -0.8094
 8681TIP3   OH247533   4.270   4.508   4.830 -0.5174 -0.6589  0.0637
 8681TIP3    H147534   4.262   4.487   4.923 -1.2653 -1.3594 -0.1435
 8681TIP3    H247535   4.260   4.424   4.786  2.1042 -0.7012 -0.5744
 8682TIP3   OH247536   4.642   6.734  13.378  0.1578  0.0585  0.8451
 8682TIP3    H147537   4.593   6.768  13.453  0.5091 -0.7141  1.4318
 8682TIP3    H247538   4.696   6.664  13.414  0.6693 -0.0203 -0.0507
 8683TIP3   OH247539   5.923   3.276  12.831 -0.0321  0.5158  0.1330
 8683TIP3    H147540   5.878   3.343  12.779 -2.4118 -1.2793 -0.2942
 8683TIP3    H247541   5.889   3.288  12.920  0.1377  0.3625  0.2206
 8684TIP3   OH247542   2.525   2.120   3.926 -0.4610  0.3254 -0.3022
 8684TIP3    H147543   2.471   2.072   3.988  0.5862 -0.5223 -0.0047
 8684TIP3    H247544   2.468   2.187   3.890 -1.4679 -0.0465  0.5721
 8685TIP3   OH247545   4.943   0.375   1.169 -0.2238 -0.4255  0.0998
 8685TIP3    H147546   4.938   0.434   1.093  1.0660 -1.6463 -0.9997
 8685TIP3    H247547   4.862   0.324   1.165 -1.3814  1.2478  1.0979
 8686TIP3   OH247548   2.938   6.137   4.423 -0.0530 -0.1308  0.4028
 8686TIP3    H147549   2.904   6.052   4.396 -0.2928  0.4797 -1.3180
 8686TIP3    H247550   2.862   6.194   4.427  0.3207  0.4118 -0.0948
 8687TIP3   OH247551   0.620   0.499  11.486  0.1666 -0.3247 -0.0217
 8687TIP3    H147552   0.712   0.473  11.486  0.7898  1.6995  0.4950
 8687TIP3    H247553   0.573   0.421  11.455  1.9118 -1.8180  0.8719
 8688TIP3   OH247554   5.193   5.469  14.253 -0.0873 -0.1691 -0.1101
 8688TIP3    H147555   5.153   5.532  14.194 -0.4269 -0.1292  0.1613
 8688TIP3    H247556   5.215   5.394  14.197 -0.2159 -0.0483 -0.3229
 8689TIP3   OH247557   4.760   0.738  15.683 -0.2661 -0.1523  0.7127
 8689TIP3    H147558   4.724   0.733  15.595  0.6057 -1.4803  0.3987
 8689TIP3    H247559   4.756   0.831  15.706 -4.8636 -0.2284  1.1861
 8690TIP3   OH247560   2.499   4.214  12.757  0.2701  0.0889 -0.7389
 8690TIP3    H147561   2.518   4.153  12.686  0.6647 -0.4418 -0.1798
 8690TIP3    H247562   2.420   4.179  12.799  0.6010 -0.1466 -0.3028
 8691TIP3   OH247563   2.483   6.652  12.129 -0.2782  0.9292  0.5212
 8691TIP3    H147564   2.574   6.654  12.160  0.1915 -1.0144 -0.5711
 8691TIP3    H247565   2.433   6.627  12.207  0.7631 -2.8488  0.1954
 8692TIP3   OH247566   4.697   6.021  15.398 -0.0784 -0.0166  0.4119
 8692TIP3    H147567   4.660   6.019  15.310 -1.4917  1.8422  0.8940
 8692TIP3    H247568   4.787   5.992  15.387  0.0748  1.1227 -1.8273
 8693TIP3   OH247569   1.876   2.714   4.453  0.2597  0.3371  0.4558
 8693TIP3    H147570   1.843   2.630   4.423 -1.2705  1.0220  0.0947
 8693TIP3    H247571   1.879   2.706   4.548 -0.5298  0.0684  0.4695
 8694TIP3   OH247572   5.504   0.370  13.723  0.1312  0.8708 -0.0488
 8694TIP3    H147573   5.512   0.439  13.657  0.1417  0.9956  0.0832
 8694TIP3    H247574   5.496   0.417  13.806 -0.3240  0.7160 -0.0067
 8695TIP3   OH247575   4.819   5.968   4.024 -0.4968  0.2201 -0.0407
 8695TIP3    H147576   4.854   6.057   4.032 -0.1660  0.2758 -1.7381
 8695TIP3    H247577   4.724   5.979   4.022 -0.7267  0.1582  3.5441
 8696TIP3   OH247578   1.812   5.305  15.582 -0.6573  0.1377 -0.0043
 8696TIP3    H147579   1.756   5.316  15.505 -0.4183  1.3883 -0.0103
 8696TIP3    H247580   1.868   5.231  15.561 -1.4194 -0.3105 -0.5245
 8697TIP3   OH247581   1.279   2.579  16.601  0.3965  0.0626 -0.4818
 8697TIP3    H147582   1.291   2.601  16.509 -0.3080 -0.7716 -0.7818
 8697TIP3    H247583   1.336   2.640  16.648  0.3862  0.8220 -1.4343
 8698TIP3   OH247584   0.874   4.958   2.130 -0.1553 -0.6915  0.2209
 8698TIP3    H147585   0.804   4.894   2.140  0.6254 -1.2814  2.3017
 8698TIP3    H247586   0.922   4.956   2.213  1.4043  0.8026 -0.5666
 8699TIP3   OH247587   5.377   0.566   0.041  0.5181 -0.4711 -0.6083
 8699TIP3    H147588   5.367   0.509   0.116  1.3736 -0.3292 -0.3742
 8699TIP3    H247589   5.316   0.638   0.057  0.6441 -0.4767 -0.0814
 8700TIP3   OH247590   4.816   4.948   4.028  0.5901 -0.5317  0.5297
 8700TIP3    H147591   4.883   5.012   4.052 -0.3669  0.3866  0.8678
 8700TIP3    H247592   4.785   4.977   3.942 -0.0547 -0.3471  0.8149
 8701TIP3   OH247593   0.403   1.167  13.734 -0.2862 -0.0052  0.3769
 8701TIP3    H147594   0.435   1.157  13.644  1.0510 -0.7006  0.8901
 8701TIP3    H247595   0.483   1.162  13.787 -1.2335 -1.7735  1.7457
 8702TIP3   OH247596   5.083   4.393   6.334  0.2317  0.0845  0.6368
 8702TIP3    H147597   5.012   4.332   6.357  0.6010 -0.6276 -0.0430
 8702TIP3    H247598   5.039   4.476   6.318 -0.4784 -0.3804  0.0978
 8703TIP3   OH247599   2.185   0.087  16.305  0.0181  0.4326 -0.2307
 8703TIP3    H147600   2.239   0.091  16.384  0.5995 -0.4302 -0.5712
 8703TIP3    H247601   2.192   0.175  16.267  1.6142  0.2240 -0.5240
 8704TIP3   OH247602   4.972   0.115   2.669 -0.1271  0.5319  0.4662
 8704TIP3    H147603   4.913   0.180   2.707 -2.0599 -1.7919  1.7717
 8704TIP3    H247604   4.917   0.065   2.608  0.9568 -0.5822  0.3599
 8705TIP3   OH247605   2.301   3.210   6.206 -0.0791  0.4786  0.0529
 8705TIP3    H147606   2.239   3.139   6.192  0.7014 -0.3573  0.7264
 8705TIP3    H247607   2.359   3.179   6.275 -0.7806  2.4752  1.6658
 8706TIP3   OH247608   3.764   2.993   6.183  0.3135 -0.5042  0.1595
 8706TIP3    H147609   3.833   3.047   6.222 -0.5202  1.2138 -0.6315
 8706TIP3    H247610   3.717   2.957   6.258  0.8109 -0.0098  0.7195
 8707TIP3   OH247611   3.771   2.193  11.387 -0.4358 -0.8470 -0.1149
 8707TIP3    H147612   3.779   2.288  11.392 -0.2798 -0.8655  0.0081
 8707TIP3    H247613   3.679   2.178  11.365 -0.8507 -0.7009  1.3514
 8708TIP3   OH247614   3.344   3.806   6.794  0.3893  0.0365  0.4086
 8708TIP3    H147615   3.256   3.814   6.759  0.7653 -2.3281 -1.3244
 8708TIP3    H247616   3.390   3.883   6.761 -0.7160  0.6984  0.3798
 8709TIP3   OH247617   6.377   6.365  16.565  0.1825  0.6750  0.0849
 8709TIP3    H147618   6.409   6.454  16.551  0.8962  0.2800 -0.8426
 8709TIP3    H247619   6.303   6.376  16.625 -0.1790  1.9647 -0.5659
 8710TIP3   OH247620   4.989   0.454  16.989  0.0563 -0.6897 -0.0959
 8710TIP3    H147621   5.038   0.383  17.029  0.9607 -0.0016  0.0534
 8710TIP3    H247622   4.906   0.415  16.962 -0.0593 -1.4452  1.3139
 8711TIP3   OH247623   3.934   4.882  14.477 -0.1981  0.2287  0.5067
 8711TIP3    H147624   3.851   4.835  14.476  0.3921 -0.8411  0.1888
 8711TIP3    H247625   3.949   4.908  14.387  0.2843 -0.4422  0.3917
 8712TIP3   OH247626   1.748   6.230  13.146 -0.3013  1.2451 -0.2659
 8712TIP3    H147627   1.767   6.249  13.054  0.1917  0.3492 -0.3641
 8712TIP3    H247628   1.698   6.148  13.144 -1.5027  1.9304  0.1928
 8713TIP3   OH247629   5.117   4.943  16.342 -0.3262  0.3932  0.0819
 8713TIP3    H147630   5.135   4.992  16.262  0.1158 -1.6840 -1.1485
 8713TIP3    H247631   5.109   4.852  16.314 -2.8128 -0.0999  2.0303
 8714TIP3   OH247632   5.746   0.286   3.167 -0.1753  0.0672  0.2183
 8714TIP3    H147633   5.691   0.345   3.116  1.5488  0.3707 -1.3725
 8714TIP3    H247634   5.778   0.339   3.240 -0.9011  0.2457  0.4199
 8715TIP3   OH247635   0.417   1.403   5.336  0.5490 -0.1384 -0.3012
 8715TIP3    H147636   0.351   1.441   5.277 -0.7797 -0.0755  1.1395
 8715TIP3    H247637   0.384   1.315   5.355  0.6155  0.0595  0.8077
 8716TIP3   OH247638   5.843   4.323  12.856 -0.0288  0.2236 -0.0847
 8716TIP3    H147639   5.827   4.253  12.920  0.3630  0.1259 -0.0918
 8716TIP3    H247640   5.839   4.278  12.772  0.7689  0.0942 -0.0676
 8717TIP3   OH247641   2.057   4.824  11.074  0.6013  0.0160 -0.1449
 8717TIP3    H147642   1.963   4.822  11.055  0.9114  1.2998 -2.0508
 8717TIP3    H247643   2.098   4.787  10.995  1.7852  1.4888 -0.2540
 8718TIP3   OH247644   0.688   0.289  14.703 -0.5464  0.1958 -0.0548
 8718TIP3    H147645   0.719   0.264  14.616  0.5388  1.0127  0.0813
 8718TIP3    H247646   0.738   0.367  14.725 -0.6719 -0.0987  1.3810
 8719TIP3   OH247647   1.820   1.349  12.805 -0.1783 -0.3625 -0.2350
 8719TIP3    H147648   1.856   1.349  12.894  0.3579  1.8774 -0.3765
 8719TIP3    H247649   1.855   1.269  12.765  0.0095 -1.1320  1.3772
 8720TIP3   OH247650   1.818   3.592   1.534 -0.3463 -0.0821  0.1689
 8720TIP3    H147651   1.762   3.660   1.571 -0.9285 -1.0024  1.0107
 8720TIP3    H247652   1.895   3.591   1.591  1.3144  2.1730 -1.7959
 8721TIP3   OH247653   1.184   5.352   0.551 -0.1000  0.4501 -0.1734
 8721TIP3    H147654   1.100   5.382   0.514 -0.1172  0.1791 -0.3558
 8721TIP3    H247655   1.179   5.257   0.546  0.3238  0.4413 -0.4157
 8722TIP3   OH247656   0.224   3.758   4.960 -0.3846 -0.7679  0.0562
 8722TIP3    H147657   0.215   3.837   4.906  0.6496 -0.3981  0.3954
 8722TIP3    H247658   0.283   3.702   4.909  0.7643 -0.3305  0.8612
 8723TIP3   OH247659   2.494   2.508   2.105 -0.0055 -0.0627  0.0468
 8723TIP3    H147660   2.440   2.582   2.078 -0.5057 -0.2118  0.6159
 8723TIP3    H247661   2.436   2.455   2.160  0.4539 -0.6883 -0.0639
 8724TIP3   OH247662   5.725   0.392   1.315 -0.0825 -0.1536  0.1346
 8724TIP3    H147663   5.771   0.393   1.230 -1.0957 -1.3875 -0.4742
 8724TIP3    H247664   5.731   0.481   1.347  2.3235 -0.1478 -0.1371
 8725TIP3   OH247665   3.116   1.355   0.055 -0.5906  0.6797  0.7498
 8725TIP3    H147666   3.115   1.411  -0.023  0.2598 -1.0000 -0.5498
 8725TIP3    H247667   3.209   1.349   0.079 -0.9165  1.8765  2.4747
 8726TIP3   OH247668   4.570   2.569  16.176  0.5342  0.3056 -0.0865
 8726TIP3    H147669   4.506   2.636  16.152  0.9617  0.1813 -1.6859
 8726TIP3    H247670   4.541   2.491  16.130  0.0491 -0.6632  1.7426
 8727TIP3   OH247671   6.297   6.362   5.392 -0.0742  0.7657  0.1850
 8727TIP3    H147672   6.301   6.396   5.482  0.1357  0.4896  0.2820
 8727TIP3    H247673   6.387   6.365   5.361 -0.1574  0.9196 -0.0400
 8728TIP3   OH247674   4.131   4.984   3.658  0.4007  0.0505 -0.4295
 8728TIP3    H147675   4.176   5.058   3.699  2.0421 -0.6069 -0.9693
 8728TIP3    H247676   4.038   5.004   3.669  0.6742 -0.1272  3.7169
 8729TIP3   OH247677   4.539   1.215  14.522  0.4084  0.0076 -0.1448
 8729TIP3    H147678   4.603   1.146  14.539 -0.0670 -0.0397  1.6085
 8729TIP3    H247679   4.454   1.171  14.523  0.2432  0.2601 -1.3211
 8730TIP3   OH247680   1.591   1.627   2.874  0.2233 -0.2738  0.1665
 8730TIP3    H147681   1.562   1.588   2.956 -1.3906 -1.1930 -0.7913
 8730TIP3    H247682   1.510   1.643   2.826  1.1278  0.4406 -1.1626
 8731TIP3   OH247683   2.538   4.253   0.718  0.3747 -0.3190  0.5187
 8731TIP3    H147684   2.612   4.193   0.710 -0.1071 -0.9782  0.9867
 8731TIP3    H247685   2.536   4.278   0.810  1.2009  1.2440  0.1483
 8732TIP3   OH247686   2.795   4.162  14.679 -0.5069  0.4828 -0.1355
 8732TIP3    H147687   2.793   4.258  14.680 -1.3224  0.4725  0.8174
 8732TIP3    H247688   2.725   4.136  14.738  1.7535 -0.6731  2.2409
 8733TIP3   OH247689   4.713   0.940   5.968  0.1373 -0.7396 -0.3214
 8733TIP3    H147690   4.750   0.980   6.047 -1.7466 -0.7531  0.6283
 8733TIP3    H247691   4.735   1.001   5.898 -0.2159  0.5446  0.6325
 8734TIP3   OH247692   4.068   3.750   4.068  0.2106 -0.1064  0.1350
 8734TIP3    H147693   4.049   3.758   4.162  2.1930 -0.4480  0.6081
 8734TIP3    H247694   4.162   3.764   4.061 -0.0302  0.8286 -1.9534
 8735TIP3   OH247695   4.957   0.110   6.273 -0.6372 -0.5379 -0.1267
 8735TIP3    H147696   4.921   0.037   6.323 -2.2056  0.2934  0.0426
 8735TIP3    H247697   4.966   0.181   6.337  1.0425 -0.6130 -0.2489
 8736TIP3   OH247698   0.047   4.999   4.157  0.4369 -0.5582  0.0291
 8736TIP3    H147699  -0.021   5.046   4.109  0.4231  0.1724  0.7551
 8736TIP3    H247700   0.009   4.982   4.243  2.4821  3.4608  1.9730
 8737TIP3   OH247701   3.433   2.586   5.462 -0.1765 -0.1440  0.1968
 8737TIP3    H147702   3.498   2.559   5.527 -1.1841  0.9419  1.6980
 8737TIP3    H247703   3.358   2.614   5.513 -0.9639  0.8635 -1.4502
 8738TIP3   OH247704   3.063   5.860  11.330  0.4334  0.2265 -0.2240
 8738TIP3    H147705   3.002   5.814  11.273  0.5890  0.2603 -0.4207
 8738TIP3    H247706   3.021   5.861  11.415  0.7061 -0.8474 -0.0645
 8739TIP3   OH247707   3.634   6.763  13.084  0.3576  0.7046  0.4147
 8739TIP3    H147708   3.541   6.767  13.060  0.1255 -0.3261  1.0928
 8739TIP3    H247709   3.633   6.737  13.177  1.3510 -0.7922  0.0322
 8740TIP3   OH247710   2.434   5.691  14.297  0.2049  0.3716  0.1905
 8740TIP3    H147711   2.365   5.692  14.230  1.8073  1.2473 -1.5583
 8740TIP3    H247712   2.389   5.669  14.378 -1.9999  0.2225 -1.0007
 8741TIP3   OH247713   0.085   1.435   4.366  0.3620  0.0083  0.5566
 8741TIP3    H147714   0.095   1.439   4.461  1.9068 -0.6707  0.4589
 8741TIP3    H247715   0.155   1.492   4.332 -1.6106  2.1646 -0.1939
 8742TIP3   OH247716   0.479   6.029  16.594  0.1024  0.1731  0.4761
 8742TIP3    H147717   0.436   6.115  16.593 -0.3893 -0.0416 -1.7447
 8742TIP3    H247718   0.430   5.979  16.660 -0.6213  1.0915  0.6696
 8743TIP3   OH247719   1.638   3.927  14.355  0.1486 -0.5634 -0.3112
 8743TIP3    H147720   1.717   3.901  14.402  0.5903 -0.3962 -0.9578
 8743TIP3    H247721   1.653   3.901  14.265  0.1239  0.8564 -0.7541
 8744TIP3   OH247722   4.661   0.833  16.700  0.1296 -0.1044  0.2257
 8744TIP3    H147723   4.583   0.822  16.645  0.4051 -2.5784  0.2343
 8744TIP3    H247724   4.716   0.757  16.679  2.0822  1.0257  0.9971
 8745TIP3   OH247725   0.310   5.021   1.899  0.3140 -0.1769 -0.2345
 8745TIP3    H147726   0.269   5.056   1.978 -0.3774  0.1835 -0.7505
 8745TIP3    H247727   0.237   4.993   1.844  0.8147 -1.3832 -0.3254
 8746TIP3   OH247728   2.686   3.687  14.481 -0.5540 -0.0182 -0.3023
 8746TIP3    H147729   2.746   3.710  14.410  0.7050 -1.5890  0.1962
 8746TIP3    H247730   2.680   3.766  14.533  3.5841 -0.5300  1.3506
 8747TIP3   OH247731   3.521   0.735   1.382  0.4089 -0.3961 -0.1042
 8747TIP3    H147732   3.614   0.716   1.368  0.4170  0.2207 -0.9629
 8747TIP3    H247733   3.487   0.751   1.295 -0.1686  0.8814  0.3417
 8748TIP3   OH247734   2.161   4.721  10.824  0.0026 -0.4670 -0.4825
 8748TIP3    H147735   2.215   4.746  10.749  0.5930 -2.6308 -0.8572
 8748TIP3    H247736   2.102   4.654  10.790  1.2950 -2.6229  1.2263
 8749TIP3   OH247737   6.518   1.749  11.556  0.3103 -0.4281 -0.0849
 8749TIP3    H147738   6.513   1.740  11.461 -2.7590  0.9236 -0.1755
 8749TIP3    H247739   6.550   1.664  11.587 -0.7943 -1.6910 -2.2144
 8750TIP3   OH247740   2.011   1.243  16.263  1.3188 -0.5115  0.3060
 8750TIP3    H147741   1.975   1.280  16.182  1.6700 -0.5763  0.1219
 8750TIP3    H247742   2.034   1.320  16.315 -0.9528 -0.4044  1.2886
 8751TIP3   OH247743   5.799   4.602  16.468  0.2151 -0.2314 -0.0953
 8751TIP3    H147744   5.822   4.541  16.399  2.3886 -1.0566  1.2373
 8751TIP3    H247745   5.704   4.595  16.477  0.2781 -2.5482 -0.7869
 8752TIP3   OH247746   6.540   1.863   5.967 -1.0828 -0.2067  0.4381
 8752TIP3    H147747   6.596   1.786   5.978 -0.2214  0.4400  0.7263
 8752TIP3    H247748   6.519   1.890   6.056 -0.5617  0.4588  0.3685
 8753TIP3   OH247749   6.083   3.159   4.901 -0.4070  0.3285 -0.3952
 8753TIP3    H147750   6.107   3.081   4.851  0.3765  0.4954 -0.3011
 8753TIP3    H247751   6.058   3.223   4.834 -0.3382  0.2278 -0.5178
 8754TIP3   OH247752   3.952   0.409   1.508 -0.5694  0.7411 -0.0883
 8754TIP3    H147753   3.921   0.434   1.421 -0.8877  0.6861  0.0089
 8754TIP3    H247754   3.933   0.485   1.563 -0.5847  0.6852 -0.0161
 8755TIP3   OH247755   6.196   6.365   0.681 -0.3663 -0.0468  0.5025
 8755TIP3    H147756   6.147   6.283   0.690 -0.9448  0.2530  0.1769
 8755TIP3    H247757   6.135   6.424   0.636 -1.0204  1.4488  3.1099
 8756TIP3   OH247758   1.030   5.284  14.708  0.1822 -0.0704 -0.8168
 8756TIP3    H147759   0.943   5.246  14.693 -0.9074  1.3616  1.3114
 8756TIP3    H247760   1.071   5.224  14.770 -0.9745  1.3022  1.4058
 8757TIP3   OH247761   4.230   6.434  15.755 -0.7069  0.9886  0.0762
 8757TIP3    H147762   4.264   6.495  15.820  0.0345  0.3577  0.3006
 8757TIP3    H247763   4.304   6.414  15.699 -1.0470  0.6358 -0.2552
 8758TIP3   OH247764   2.164   0.939   1.432  0.2591  0.3981 -0.3482
 8758TIP3    H147765   2.115   1.021   1.428 -0.5056 -0.0619 -0.8835
 8758TIP3    H247766   2.249   0.959   1.394 -0.3107  0.6866 -1.5116
 8759TIP3   OH247767   0.740   2.978  13.505 -0.2713 -0.5229 -0.3026
 8759TIP3    H147768   0.816   3.014  13.459  0.7045 -0.7556  1.0737
 8759TIP3    H247769   0.736   3.026  13.587 -0.0788 -2.2349  0.7580
 8760TIP3   OH247770   5.281   4.755   5.764 -0.5311 -0.2248  0.3625
 8760TIP3    H147771   5.224   4.686   5.796 -1.0196  0.2597  0.5524
 8760TIP3    H247772   5.348   4.765   5.831  1.8209 -3.0883 -1.3107
 8761TIP3   OH247773   3.950   3.605   0.116 -0.3964  0.3814  0.0244
 8761TIP3    H147774   3.861   3.630   0.141 -0.3894  0.7891 -0.3259
 8761TIP3    H247775   3.960   3.515   0.146 -1.2438  0.0206 -0.7108
 8762TIP3   OH247776   3.157   6.670  14.618 -0.2958 -0.1722 -0.4205
 8762TIP3    H147777   3.142   6.608  14.546 -0.1964 -1.0162  0.2787
 8762TIP3    H247778   3.081   6.659  14.675 -1.1549  1.6032 -1.1531
 8763TIP3   OH247779   4.085   4.217   1.995 -0.0473  0.3102  0.2849
 8763TIP3    H147780   4.141   4.295   1.993  0.5435 -0.0438  1.7339
 8763TIP3    H247781   3.997   4.250   1.982  0.2016  1.2231  0.8542
 8764TIP3   OH247782   2.237   1.031  13.228  0.0117  0.1794  0.2360
 8764TIP3    H147783   2.191   0.953  13.262 -1.2819  0.6420 -0.3942
 8764TIP3    H247784   2.328   1.004  13.223 -0.5606 -1.7481 -1.1237
 8765TIP3   OH247785   3.621   5.524   4.127 -0.5454  0.3238  0.2287
 8765TIP3    H147786   3.699   5.486   4.086  0.9965  1.1447  2.2395
 8765TIP3    H247787   3.630   5.618   4.113 -1.1536  0.4252  0.5005
 8766TIP3   OH247788   3.659   3.971  16.893 -0.2093  0.0319  0.5719
 8766TIP3    H147789   3.691   4.057  16.864  2.0574 -0.1242  2.3652
 8766TIP3    H247790   3.712   3.908  16.844 -1.3753 -0.3800 -0.2076
 8767TIP3   OH247791   0.765   5.045  15.928 -0.5919 -0.0570 -0.0334
 8767TIP3    H147792   0.785   4.973  15.989 -1.6491  0.1752  0.6060
 8767TIP3    H247793   0.714   5.003  15.858 -0.2637 -0.1275 -0.2341
 8768TIP3   OH247794   0.486   5.031   0.217  0.0775 -0.4894 -0.0068
 8768TIP3    H147795   0.392   5.010   0.222 -0.4138  1.3826 -0.4469
 8768TIP3    H247796   0.529   4.958   0.260 -1.6954 -0.7143  1.5253
 8769TIP3   OH247797   0.364   4.259  11.062  0.1345  0.3247  0.0993
 8769TIP3    H147798   0.304   4.333  11.071  0.1653  0.3720 -0.0766
 8769TIP3    H247799   0.324   4.189  11.114  0.0847  0.4509  0.2338
 8770TIP3   OH247800   1.512   0.709   3.438 -0.1909 -0.0828 -0.3192
 8770TIP3    H147801   1.504   0.804   3.425  0.5434  0.2588  1.4275
 8770TIP3    H247802   1.427   0.683   3.474  0.3671  0.3468  1.3678
 8771TIP3   OH247803   3.676   1.246   0.581 -0.2376 -0.4928  0.5931
 8771TIP3    H147804   3.749   1.304   0.603 -0.6160  0.4779 -0.6551
 8771TIP3    H247805   3.597   1.297   0.599 -0.6858 -1.6500  2.2601
 8772TIP3   OH247806   0.401   1.274  14.098  0.3905 -0.0122 -0.1148
 8772TIP3    H147807   0.385   1.180  14.088 -0.0290 -0.0938  1.1710
 8772TIP3    H247808   0.439   1.300  14.014  0.2558 -1.2688 -0.5980
 8773TIP3   OH247809   1.032   1.299  11.316  0.6803 -0.5610 -0.2547
 8773TIP3    H147810   1.020   1.357  11.391 -2.0482  0.5154 -1.3667
 8773TIP3    H247811   1.077   1.352  11.251  0.7473 -0.6507 -0.2829
 8774TIP3   OH247812   0.177   2.531   2.254 -0.1851  0.6999  0.2488
 8774TIP3    H147813   0.132   2.610   2.222  0.3553  0.7692 -0.3477
 8774TIP3    H247814   0.270   2.548   2.239  0.2938  1.3704  3.1974
 8775TIP3   OH247815   6.526   4.944  16.328 -0.0844  0.2718  0.5699
 8775TIP3    H147816   6.533   4.874  16.263 -2.2853 -1.6616  2.2350
 8775TIP3    H247817   6.598   4.927  16.389 -0.4654 -0.4602  0.8347
 8776TIP3   OH247818   5.200   3.801   0.803 -0.3746  0.5606 -0.2984
 8776TIP3    H147819   5.272   3.851   0.763 -0.2529  0.9735  0.4216
 8776TIP3    H247820   5.140   3.784   0.731  0.8853 -0.6057 -1.1301
 8777TIP3   OH247821   3.412   0.558  12.443  0.2345 -0.0170 -0.0907
 8777TIP3    H147822   3.501   0.588  12.462  0.0371  0.7218 -0.2910
 8777TIP3    H247823   3.363   0.574  12.524  0.2340 -0.2488 -0.0428
 8778TIP3   OH247824   5.491   5.669  15.206 -0.1783  0.0463  0.3794
 8778TIP3    H147825   5.434   5.603  15.165  0.4736 -0.4461  0.2583
 8778TIP3    H247826   5.432   5.742  15.226 -0.7967 -0.3328 -0.0248
 8779TIP3   OH247827   6.338   1.078  11.347  0.0483  0.3577  0.2948
 8779TIP3    H147828   6.286   1.154  11.323  0.1766  0.2835 -0.2541
 8779TIP3    H247829   6.274   1.008  11.360  0.0193  0.1794 -0.7196
 8780TIP3   OH247830   3.590   0.214   6.733 -0.1938 -0.2206 -0.1655
 8780TIP3    H147831   3.558   0.302   6.753  0.6072  0.1103 -0.3098
 8780TIP3    H247832   3.553   0.194   6.647  2.0195  1.2127 -1.5416
 8781TIP3   OH247833   1.675   4.662   4.054  0.2009 -0.0597 -0.1349
 8781TIP3    H147834   1.591   4.665   4.009  1.0354  0.0455 -1.7605
 8781TIP3    H247835   1.657   4.699   4.140 -1.6561 -1.1375 -0.0167
 8782TIP3   OH247836   4.815   1.857  13.138 -0.0107  0.1311 -0.3867
 8782TIP3    H147837   4.724   1.883  13.122  0.5596  1.0415 -2.3992
 8782TIP3    H247838   4.866   1.903  13.071  1.5963 -2.6414 -1.2566
 8783TIP3   OH247839   5.217   3.887   4.961 -0.4710  0.5848 -0.4591
 8783TIP3    H147840   5.153   3.913   4.895 -0.2288  1.9685 -0.1818
 8783TIP3    H247841   5.164   3.867   5.038 -0.6828  0.0071 -0.7532
 8784TIP3   OH247842   2.783   1.059  13.502  0.1830  0.1299 -0.3541
 8784TIP3    H147843   2.771   1.111  13.423  3.1755  0.5171 -0.6569
 8784TIP3    H247844   2.878   1.055  13.515 -0.1306 -1.1887  2.3940
 8785TIP3   OH247845   5.020   1.345  11.466  0.6831  0.2897  0.2947
 8785TIP3    H147846   4.998   1.314  11.554 -1.7405  0.4904 -0.1679
 8785TIP3    H247847   4.977   1.430  11.460 -1.1926 -0.7166 -1.8304
 8786TIP3   OH247848   3.803   4.848  13.926  0.4374  0.1038  0.0645
 8786TIP3    H147849   3.781   4.863  14.018  0.3701 -0.4034  0.1322
 8786TIP3    H247850   3.772   4.759  13.907  0.6560  0.1170 -0.3845
 8787TIP3   OH247851   2.342   1.405   5.671 -0.0422  0.6281  0.6265
 8787TIP3    H147852   2.355   1.343   5.600  1.8711  1.1251  0.5042
 8787TIP3    H247853   2.247   1.419   5.674 -0.2907 -0.5970 -0.7716
 8788TIP3   OH247854   5.699   5.410  14.263  0.1647 -0.7849 -0.0890
 8788TIP3    H147855   5.713   5.354  14.186 -3.1891 -0.3225 -1.2069
 8788TIP3    H247856   5.637   5.362  14.317  0.1390  0.2241  0.8174
 8789TIP3   OH247857   0.393   0.926  14.757  0.2273 -0.5091 -0.0248
 8789TIP3    H147858   0.351   0.939  14.842 -0.7371  1.5521 -0.7452
 8789TIP3    H247859   0.327   0.881  14.705 -1.1379  2.4562 -1.0623
 8790TIP3   OH247860   6.686   1.708  16.770  0.0439  0.4520  0.0086
 8790TIP3    H147861   6.745   1.782  16.752  0.3202  0.3494  0.4671
 8790TIP3    H247862   6.724   1.635  16.721 -0.3739  0.6755 -0.6488
 8791TIP3   OH247863   0.546   4.369  13.716  0.0219 -0.0374  0.3321
 8791TIP3    H147864   0.574   4.372  13.625 -0.6139  0.3770  0.1389
 8791TIP3    H247865   0.625   4.387  13.767 -0.2750  3.7624 -0.2442
 8792TIP3   OH247866   1.224   3.214   0.718 -1.4727 -0.2956 -0.1292
 8792TIP3    H147867   1.190   3.192   0.631  0.3028 -0.8467 -0.7236
 8792TIP3    H247868   1.241   3.130   0.760  0.3847 -0.1116 -0.3983
 8793TIP3   OH247869   6.269   4.894   1.165  0.3026  0.1679  0.2737
 8793TIP3    H147870   6.265   4.869   1.257 -0.3718  0.7498  0.4162
 8793TIP3    H247871   6.186   4.939   1.149  0.9373  1.1914 -0.2833
 8794TIP3   OH247872   6.261   6.057   2.580 -0.7225  0.0097 -0.5648
 8794TIP3    H147873   6.289   6.129   2.525  0.5027  1.2138  1.4901
 8794TIP3    H247874   6.300   5.979   2.540  1.7057  1.0623 -0.4327
 8795TIP3   OH247875   0.544   4.929  16.204 -0.2241 -0.5762  0.2187
 8795TIP3    H147876   0.638   4.939  16.189  0.1962 -0.6016  2.4250
 8795TIP3    H247877   0.503   4.992  16.145  1.2970  0.6642  0.4058
 8796TIP3   OH247878   1.229   1.388   5.546 -0.4551 -0.2618  0.3073
 8796TIP3    H147879   1.186   1.458   5.497 -0.1742 -1.0099 -1.0500
 8796TIP3    H247880   1.191   1.307   5.512 -1.2680 -0.7951  2.3177
 8797TIP3   OH247881   1.303   5.387  14.571  0.3867 -0.2195 -0.2042
 8797TIP3    H147882   1.372   5.447  14.599  2.2283 -1.9371 -0.8581
 8797TIP3    H247883   1.261   5.359  14.652  1.8980 -0.7702  0.4273
 8798TIP3   OH247884   4.362   2.755  10.606 -0.0736  0.1565  0.2546
 8798TIP3    H147885   4.333   2.825  10.547 -0.4926 -0.9765 -0.9171
 8798TIP3    H247886   4.364   2.677  10.552 -0.0429 -0.8478  1.6544
 8799TIP3   OH247887   6.513   0.050  15.262  0.0150  0.2359  0.2488
 8799TIP3    H147888   6.474  -0.038  15.261 -1.0446  0.7041  0.1616
 8799TIP3    H247889   6.606   0.034  15.244 -0.3204 -0.8012 -0.7309
 8800TIP3   OH247890   6.545   5.007  14.207 -0.0501 -0.3943 -0.2237
 8800TIP3    H147891   6.556   4.974  14.296 -2.1303 -0.1818  0.1816
 8800TIP3    H247892   6.471   4.956  14.172 -0.3955  0.7142 -1.1844
 8801TIP3   OH247893   2.965   0.749   3.323 -0.1817  0.2777 -0.2597
 8801TIP3    H147894   2.884   0.697   3.320  0.7664 -1.2394 -0.3366
 8801TIP3    H247895   2.935   0.839   3.311 -1.8427 -0.2759 -0.5904
 8802TIP3   OH247896   5.443   2.186   6.147 -0.3548  0.1202 -0.0582
 8802TIP3    H147897   5.484   2.099   6.154  0.7381  0.4832 -1.4760
 8802TIP3    H247898   5.494   2.240   6.207 -0.8499 -0.1327  0.6063
 8803TIP3   OH247899   0.663   3.244  14.197 -0.5639 -0.1248  0.0325
 8803TIP3    H147900   0.660   3.339  14.195  2.4005  0.1546  2.0940
 8803TIP3    H247901   0.606   3.219  14.270  0.4312  0.2999  0.9837
 8804TIP3   OH247902   2.360   6.093  16.001 -0.3722  0.0606  0.2556
 8804TIP3    H147903   2.452   6.111  16.020 -0.8543  1.2499  1.6130
 8804TIP3    H247904   2.323   6.177  15.978 -0.4817 -0.8590 -3.6417
 8805TIP3   OH247905   5.450   2.033  10.428 -0.4807  0.2543  1.0083
 8805TIP3    H147906   5.457   2.128  10.418  0.3793  0.4871  3.3203
 8805TIP3    H247907   5.368   2.020  10.476  0.3738  0.0025  2.4313
 8806TIP3   OH247908   3.466   1.009   5.406  0.6541 -0.0392  0.3584
 8806TIP3    H147909   3.420   0.925   5.402  0.8545 -0.1398  0.1500
 8806TIP3    H247910   3.432   1.051   5.485  1.2996 -0.7559  1.0429
 8807TIP3   OH247911   4.303   5.792   5.775  0.4551  0.6797  0.4330
 8807TIP3    H147912   4.286   5.721   5.714  1.6992  0.9123 -0.2210
 8807TIP3    H247913   4.389   5.771   5.812 -0.2635  0.5386  2.1283
 8808TIP3   OH247914   1.606   6.133  16.617  0.6121 -0.0260 -0.0882
 8808TIP3    H147915   1.551   6.083  16.677  1.7347 -1.4484 -0.1798
 8808TIP3    H247916   1.545   6.188  16.569 -1.0178 -2.5769 -1.1994
 8809TIP3   OH247917   3.867   6.241   6.535 -0.1669  0.3210  0.3731
 8809TIP3    H147918   3.818   6.187   6.597  0.8738  0.0247  0.9550
 8809TIP3    H247919   3.929   6.180   6.494 -1.5864  0.2449 -1.8203
 8810TIP3   OH247920   3.915   2.631   3.024  0.6743  0.3195 -0.2980
 8810TIP3    H147921   3.894   2.717   3.059  0.3363 -0.4521  1.4649
 8810TIP3    H247922   3.998   2.644   2.977  1.0968  1.4080  0.7121
 8811TIP3   OH247923   2.549   0.078   0.624 -0.0176  0.0673 -0.2520
 8811TIP3    H147924   2.619   0.018   0.599 -0.3561 -0.7816  0.7704
 8811TIP3    H247925   2.568   0.158   0.576  1.8376 -0.0251  0.2605
 8812TIP3   OH247926   4.876   1.461  17.189 -0.7779 -0.0300 -0.0463
 8812TIP3    H147927   4.891   1.474  17.096  1.4378 -0.6438  0.1455
 8812TIP3    H247928   4.813   1.389  17.194 -1.0065  0.0869 -1.0605
 8813TIP3   OH247929   4.848   2.748  15.371  0.0125  0.7194 -0.3966
 8813TIP3    H147930   4.777   2.774  15.429 -0.3072  1.5696 -1.1519
 8813TIP3    H247931   4.924   2.740  15.429 -0.7339 -0.4604  0.4583
 8814TIP3   OH247932   5.045   5.547   5.120  0.2823 -0.9450 -0.2995
 8814TIP3    H147933   4.988   5.571   5.193 -0.8075 -1.1946 -1.0395
 8814TIP3    H247934   5.018   5.605   5.048  1.5546 -0.4816 -0.4268
 8815TIP3   OH247935   6.510   1.081  11.903 -0.1435  0.3705  0.3918
 8815TIP3    H147936   6.569   1.043  11.968  1.5039 -0.3793 -1.4240
 8815TIP3    H247937   6.543   1.170  11.889 -0.5001  0.5345  0.5842
 8816TIP3   OH247938   3.446   0.863  12.666  0.0803 -0.7390  0.0416
 8816TIP3    H147939   3.427   0.770  12.672 -0.6822 -0.4937  1.9318
 8816TIP3    H247940   3.363   0.907  12.683  0.1206  0.3353 -2.1058
 8817TIP3   OH247941   4.029   6.421  16.541 -0.3216  0.3037 -0.2697
 8817TIP3    H147942   4.012   6.423  16.635 -0.2228 -0.2974 -0.2340
 8817TIP3    H247943   4.027   6.512  16.514  0.7808  0.5826  0.5173
 8818TIP3   OH247944   6.242   2.629  11.491 -0.0059  0.7439  0.3956
 8818TIP3    H147945   6.290   2.566  11.438 -0.9483  1.3594 -1.2563
 8818TIP3    H247946   6.308   2.672  11.545  0.9140 -0.2082  0.0493
 8819TIP3   OH247947   3.046   1.320  14.189  0.2827  0.8995  0.0965
 8819TIP3    H147948   3.126   1.272  14.165 -0.2239 -0.1779  0.4969
 8819TIP3    H247949   3.031   1.380  14.117  1.2121  0.7960 -0.1946
 8820TIP3   OH247950   0.231   3.823   5.240  0.0128 -0.2886  0.2212
 8820TIP3    H147951   0.224   3.835   5.145 -2.0636  1.2245  0.5052
 8820TIP3    H247952   0.255   3.731   5.250  0.6381 -0.4030 -1.7629
 8821TIP3   OH247953   0.477   2.345   3.095  0.2000 -0.2773  0.1537
 8821TIP3    H147954   0.525   2.407   3.039  0.8737  0.1177  1.1530
 8821TIP3    H247955   0.482   2.262   3.047  1.6495 -0.1805  0.0792
 8822TIP3   OH247956   4.172   6.431  13.000 -0.1054 -0.2695 -0.2442
 8822TIP3    H147957   4.083   6.434  13.035 -0.7399  1.5633 -1.8471
 8822TIP3    H247958   4.175   6.502  12.935  2.6945  0.0596  0.1285
 8823TIP3   OH247959   3.673   2.887   3.754  0.4245 -0.1632  0.4956
 8823TIP3    H147960   3.735   2.947   3.796  0.7507 -1.5300  2.0794
 8823TIP3    H247961   3.588   2.910   3.793 -0.5981  2.9582 -3.0013
 8824TIP3   OH247962   6.079   3.417   1.982  0.2905  0.6097  0.4814
 8824TIP3    H147963   6.006   3.404   1.922  2.1993  1.9927 -2.3989
 8824TIP3    H247964   6.105   3.329   2.009  0.0666 -0.2055 -1.7531
 8825TIP3   OH247965   3.428   6.544  16.207  0.3259 -0.3983 -0.2152
 8825TIP3    H147966   3.395   6.468  16.158 -0.4042  0.0589 -0.4451
 8825TIP3    H247967   3.350   6.597  16.224  0.5156 -0.6567  1.6706
 8826TIP3   OH247968   2.202   1.165  16.660  0.5566  0.3326  0.1863
 8826TIP3    H147969   2.152   1.247  16.659  0.8094  0.4889  0.2316
 8826TIP3    H247970   2.152   1.106  16.604 -0.0684  0.2559  0.8097
 8827TIP3   OH247971   5.480   2.419  11.642  0.0354  0.4959 -0.0071
 8827TIP3    H147972   5.390   2.449  11.628 -0.0028  0.0189 -0.8353
 8827TIP3    H247973   5.515   2.406  11.554  0.2543 -1.2666  0.3013
 8828TIP3   OH247974   2.166   5.880   4.870  0.1995  0.2567  0.1510
 8828TIP3    H147975   2.243   5.825   4.883  0.6504  0.9689  0.6029
 8828TIP3    H247976   2.144   5.869   4.778  1.0374  0.2913 -0.0641
 8829TIP3   OH247977   2.694   3.088  15.602  0.0363  1.2301  0.1176
 8829TIP3    H147978   2.661   3.158  15.546 -0.5846  0.2796 -0.7332
 8829TIP3    H247979   2.701   3.011  15.545 -1.0962  0.0939  1.4160
 8830TIP3   OH247980   0.605   2.562   0.036 -0.3184 -0.1014  0.4178
 8830TIP3    H147981   0.665   2.503  -0.008 -1.0758  0.5859 -1.6755
 8830TIP3    H247982   0.535   2.577  -0.028 -0.8430  1.9625  1.3802
 8831TIP3   OH247983   1.087   2.086  10.961 -0.3078 -0.4577 -0.3841
 8831TIP3    H147984   1.154   2.153  10.973 -0.7834  0.2843 -1.6029
 8831TIP3    H247985   1.093   2.031  11.039 -1.2470  2.1636  1.6630
 8832TIP3   OH247986   4.821   2.229  13.451 -0.0348  0.4812  0.0889
 8832TIP3    H147987   4.883   2.298  13.427  0.9328  0.6345  2.7367
 8832TIP3    H247988   4.735   2.265  13.428  0.5163  2.2108  0.5806
 8833TIP3   OH247989   6.192   3.265  11.846  0.1878 -0.8510  0.1392
 8833TIP3    H147990   6.270   3.280  11.900  0.5037  0.9196 -0.7236
 8833TIP3    H247991   6.183   3.170  11.842  3.0941 -1.1656 -0.8069
 8834TIP3   OH247992   2.771   4.554   2.281 -0.3400  0.5394  0.1615
 8834TIP3    H147993   2.829   4.550   2.358  0.9458 -0.0187 -0.7933
 8834TIP3    H247994   2.709   4.623   2.302  0.2902  0.7350  1.5076
 8835TIP3   OH247995   2.020   1.120   4.434  0.3043  0.3411  0.6540
 8835TIP3    H147996   1.996   1.029   4.417  1.0330  0.0262  1.2332
 8835TIP3    H247997   2.077   1.144   4.361 -0.1481  0.4452  0.3303
 8836TIP3   OH247998   4.182   3.442   4.736  1.3306 -0.1635  0.1205
 8836TIP3    H147999   4.255   3.416   4.680  0.6445 -0.6617 -0.5518
 8836TIP3    H248000   4.109   3.456   4.676  1.0398  0.9719  0.7237
 8837TIP3   OH248001   6.232   4.443   0.226 -0.2847  0.3869 -0.1882
 8837TIP3    H148002   6.245   4.379   0.156 -0.3513  0.3241 -0.1428
 8837TIP3    H248003   6.170   4.402   0.285 -2.2526  1.4377 -1.3993
 8838TIP3   OH248004   4.833   2.626  11.013 -0.1342  0.6869 -0.1322
 8838TIP3    H148005   4.801   2.716  11.007  0.0819  0.7525 -0.3218
 8838TIP3    H248006   4.776   2.584  11.077 -0.8669  0.6814 -0.7689
 8839TIP3   OH248007   6.140   1.151   3.646 -0.0064  0.2800  0.4954
 8839TIP3    H148008   6.050   1.122   3.660  0.5997 -2.1615 -0.1539
 8839TIP3    H248009   6.152   1.147   3.551  0.8971  0.1996  0.6040
 8840TIP3   OH248010   5.592   5.278  12.744  0.6087 -0.3759 -0.0135
 8840TIP3    H148011   5.554   5.193  12.765 -0.3781  0.2055  0.6041
 8840TIP3    H248012   5.537   5.341  12.790  1.6842  0.5649  0.0168
 8841TIP3   OH248013   5.258   6.620   0.587 -0.2288 -0.7412 -0.4017
 8841TIP3    H148014   5.177   6.574   0.609  0.4511 -1.6263  0.3354
 8841TIP3    H248015   5.267   6.688   0.654 -1.1758  0.4437 -1.4264
 8842TIP3   OH248016   5.136   0.986  16.281  0.2580 -0.2644 -0.3394
 8842TIP3    H148017   5.222   0.999  16.241  0.1199  0.1265 -0.5157
 8842TIP3    H248018   5.074   1.020  16.216  0.0224  0.2496  0.1454
 8843TIP3   OH248019   0.503   2.710   5.196  0.5922  0.2456  0.1473
 8843TIP3    H148020   0.578   2.726   5.252 -0.1415  0.5730  1.0740
 8843TIP3    H248021   0.482   2.618   5.208 -0.3931  0.6161  1.5168
 8844TIP3   OH248022   0.004   0.652  15.340 -0.2522  0.1396 -0.3187
 8844TIP3    H148023  -0.059   0.696  15.283 -0.5430  2.4237  1.6123
 8844TIP3    H248024  -0.037   0.655  15.427  1.8906  0.4750  0.7396
 8845TIP3   OH248025   1.251   2.027  11.517  0.0207 -0.5089  0.0713
 8845TIP3    H148026   1.293   1.944  11.491 -1.8764 -1.3129 -0.5876
 8845TIP3    H248027   1.270   2.087  11.444  1.1115 -0.4426  0.3898
 8846TIP3   OH248028   2.342   3.808  15.053 -0.2496  0.1182 -0.3087
 8846TIP3    H148029   2.399   3.791  15.128 -1.1580 -1.2740  0.0870
 8846TIP3    H248030   2.372   3.747  14.986  0.4902  1.2855 -1.0725
 8847TIP3   OH248031   4.399   5.536  14.113  0.4894  0.2364 -0.3391
 8847TIP3    H148032   4.440   5.579  14.037  0.1706 -0.0588 -0.6813
 8847TIP3    H248033   4.363   5.609  14.164  0.7993  0.4452 -0.4088
 8848TIP3   OH248034   2.857   5.413  12.324  0.2739  0.7882  0.0947
 8848TIP3    H148035   2.823   5.359  12.252 -1.5832  3.0556 -0.8484
 8848TIP3    H248036   2.779   5.454  12.362  1.4411  1.3132  2.0397
 8849TIP3   OH248037   5.514   1.566   1.464  0.4053  0.5893 -0.4128
 8849TIP3    H148038   5.523   1.660   1.451 -0.9000  0.7043 -0.6122
 8849TIP3    H248039   5.576   1.545   1.534  1.5082  1.3901 -1.1362
 8850TIP3   OH248040   1.153   2.763   4.068  0.2589 -0.2622 -0.2443
 8850TIP3    H148041   1.183   2.676   4.096 -0.8407 -0.9175 -0.9907
 8850TIP3    H248042   1.233   2.815   4.061  1.0361 -1.4444 -0.5157
 8851TIP3   OH248043   3.390   4.965   2.704  0.3499  0.7796 -0.1984
 8851TIP3    H148044   3.393   4.900   2.775 -0.6400  1.9096  0.9192
 8851TIP3    H248045   3.297   4.973   2.683  0.2993  2.7092  0.5519
 8852TIP3   OH248046   1.004   2.472   3.176 -0.3190  0.3241  0.0777
 8852TIP3    H148047   1.022   2.526   3.253  0.7115  0.4462 -0.2385
 8852TIP3    H248048   0.926   2.422   3.200 -0.8649  1.4007  0.6570
 8853TIP3   OH248049   2.097   2.186  12.413  0.0896 -0.3961  0.6941
 8853TIP3    H148050   2.060   2.216  12.330  1.0168 -1.4779 -0.1477
 8853TIP3    H248051   2.100   2.091  12.404  0.2326 -0.5285  1.9752
 8854TIP3   OH248052   2.002   3.507   0.206 -0.5389 -0.1612  0.2415
 8854TIP3    H148053   1.921   3.461   0.186 -1.3121  1.4366 -0.5213
 8854TIP3    H248054   2.026   3.550   0.124 -0.0666  1.0734  0.9970
 8855TIP3   OH248055   0.132   2.741   2.744 -0.1765 -0.0375  0.6423
 8855TIP3    H148056   0.079   2.741   2.664  2.7326  2.0826 -1.5232
 8855TIP3    H248057   0.089   2.805   2.801 -0.5466  0.8798 -0.6211
 8856TIP3   OH248058   2.663   5.697   4.488  0.1346 -0.1923 -0.3432
 8856TIP3    H148059   2.629   5.762   4.427  0.0186  0.7668  0.7055
 8856TIP3    H248060   2.604   5.622   4.480 -1.3191  0.8451  0.3129
 8857TIP3   OH248061   6.136   6.567  11.485  0.1951 -0.3221 -0.2764
 8857TIP3    H148062   6.087   6.495  11.526  1.5175 -0.9035  0.3471
 8857TIP3    H248063   6.166   6.531  11.401 -2.1138  0.7140 -1.6412
 8858TIP3   OH248064   2.461   6.080   5.236 -0.3538 -0.5693  0.1988
 8858TIP3    H148065   2.400   6.071   5.163  2.4498 -1.1114 -2.2653
 8858TIP3    H248066   2.491   5.991   5.253 -1.4205 -0.5733  2.6178
 8859TIP3   OH248067   3.095   2.036   1.658 -0.0378 -0.2804 -0.2053
 8859TIP3    H148068   3.028   2.046   1.591  0.4702 -0.1185 -0.7053
 8859TIP3    H248069   3.173   2.077   1.619  0.5196 -1.0362  0.1055
 8860TIP3   OH248070   1.420   0.503   1.726 -0.4284 -0.1835  0.1539
 8860TIP3    H148071   1.419   0.485   1.820 -0.7133 -1.1666 -0.0230
 8860TIP3    H248072   1.331   0.531   1.706 -0.1362  0.9015  0.3253
 8861TIP3   OH248073   1.851   2.554  16.124 -0.2337 -0.3499  0.8140
 8861TIP3    H148074   1.802   2.581  16.047 -0.9782 -1.1944  0.9711
 8861TIP3    H248075   1.787   2.509  16.179  1.0512 -3.3317  0.1034
 8862TIP3   OH248076   6.477   6.057   3.271  0.1996  0.4219 -0.6798
 8862TIP3    H148077   6.436   6.025   3.191 -0.0356  0.7575 -0.6968
 8862TIP3    H248078   6.568   6.030   3.265 -0.3124 -1.6146  0.0195
 8863TIP3   OH248079   5.709   3.620  17.237  0.0810 -0.6647  0.0364
 8863TIP3    H148080   5.774   3.593  17.302  2.2748  0.4921 -1.5153
 8863TIP3    H248081   5.672   3.538  17.204  0.3826 -1.3325  1.3296
 8864TIP3   OH248082   6.195   4.841   3.417  0.0901 -0.0036 -0.8763
 8864TIP3    H148083   6.260   4.795   3.364 -1.5593 -0.2049 -2.8709
 8864TIP3    H248084   6.213   4.814   3.507  2.4456 -0.3786 -1.4083
 8865TIP3   OH248085   5.579   5.667  13.097  0.3208  0.3155 -0.0456
 8865TIP3    H148086   5.568   5.743  13.039  0.4245  1.8072  1.7831
 8865TIP3    H248087   5.489   5.642  13.120  0.2928 -0.0136 -0.4963
 8866TIP3   OH248088   1.200   2.827  15.467  0.7028  0.0987 -0.3952
 8866TIP3    H148089   1.282   2.791  15.502  0.3800  0.7512  1.1059
 8866TIP3    H248090   1.137   2.816  15.538 -0.2562  0.5570 -1.1589
 8867TIP3   OH248091   0.175   1.438  14.335  0.2845  0.6608 -0.0619
 8867TIP3    H148092   0.158   1.344  14.333 -3.4086  1.1657  1.0466
 8867TIP3    H248093   0.203   1.459  14.246  0.8312 -1.3746 -0.4259
 8868TIP3   OH248094   1.196   3.894   4.207  0.1518 -0.2226  0.3955
 8868TIP3    H148095   1.179   3.848   4.289  1.2411 -1.3094  0.0467
 8868TIP3    H248096   1.210   3.824   4.143  0.3216  0.6096 -0.5018
 8869TIP3   OH248097   5.204   2.395   3.287  0.4121  0.1203 -0.0873
 8869TIP3    H148098   5.181   2.487   3.273 -0.6875 -0.1040  0.1829
 8869TIP3    H248099   5.262   2.374   3.213 -0.1853  0.7337 -0.7489
 8870TIP3   OH248100   4.246   1.391  14.664 -0.8850 -0.2605 -0.2078
 8870TIP3    H148101   4.251   1.477  14.622 -0.4487 -0.1639  0.0376
 8870TIP3    H248102   4.311   1.395  14.734  0.0287 -1.2212 -0.9792
 8871TIP3   OH248103   3.403   5.182   0.048  0.2498 -0.0292  0.2394
 8871TIP3    H148104   3.404   5.209  -0.044 -0.1824  1.2101  0.5814
 8871TIP3    H248105   3.425   5.261   0.097  2.6324 -1.1507  1.1331
 8872TIP3   OH248106   3.402   3.755   1.498  0.0947 -0.3280 -0.2794
 8872TIP3    H148107   3.438   3.719   1.418  2.1782 -0.8850  0.8454
 8872TIP3    H248108   3.359   3.836   1.471  1.0210 -0.3487 -1.9048
 8873TIP3   OH248109   4.578   3.858   0.111  0.1501  0.5351  0.2317
 8873TIP3    H148110   4.597   3.861   0.017 -0.9109  3.2081  0.0215
 8873TIP3    H248111   4.649   3.805   0.148  0.7466 -0.3538 -2.0111
 8874TIP3   OH248112   1.901   4.489  13.062 -0.0712  0.3023  0.4838
 8874TIP3    H148113   1.874   4.463  12.974  0.5399 -1.4756  0.7623
 8874TIP3    H248114   1.992   4.459  13.068 -0.2249  0.0655  1.8307
 8875TIP3   OH248115   1.541   2.053   5.038 -0.3689  0.2879  0.6138
 8875TIP3    H148116   1.543   1.958   5.050  0.5878  0.4238  1.8256
 8875TIP3    H248117   1.526   2.087   5.126  1.8096  1.3021  0.6739
 8876TIP3   OH248118   6.293   1.080  15.296 -0.3136 -0.4365 -0.7956
 8876TIP3    H148119   6.272   1.085  15.203 -0.0626 -0.9375 -0.8780
 8876TIP3    H248120   6.278   0.989  15.320 -2.1236  0.0273  0.0724
 8877TIP3   OH248121   3.060   3.628  16.579  0.1672  0.0763  0.5222
 8877TIP3    H148122   3.145   3.641  16.537 -0.3658  0.2619 -0.5246
 8877TIP3    H248123   3.067   3.543  16.622  1.2705  0.6079  1.4342
 8878TIP3   OH248124   6.714   0.420   5.925 -0.0510 -0.8243  0.4535
 8878TIP3    H148125   6.791   0.392   5.974  0.5712 -0.2872 -0.2021
 8878TIP3    H248126   6.729   0.513   5.907 -1.2772 -0.4831  1.0895
 8879TIP3   OH248127   2.456   0.443   4.868 -0.2539 -0.3925  0.0794
 8879TIP3    H148128   2.440   0.507   4.937  0.8866 -0.5237  0.4904
 8879TIP3    H248129   2.374   0.440   4.819 -0.5303  0.9275  0.4146
 8880TIP3   OH248130   4.924   2.892   4.891  0.4874 -0.0090  0.0169
 8880TIP3    H148131   4.854   2.946   4.929 -0.0163 -1.7398  1.7869
 8880TIP3    H248132   5.005   2.931   4.924  0.3003  1.1691 -0.8676
 8881TIP3   OH248133   2.055   0.326  12.477  0.3709 -0.3102  0.2485
 8881TIP3    H148134   2.143   0.308  12.509  0.7544 -0.6431 -0.9223
 8881TIP3    H248135   2.069   0.369  12.392 -0.5905  0.4775  0.4703
 8882TIP3   OH248136   6.423   4.518   0.509 -0.8315 -0.4556 -0.1148
 8882TIP3    H148137   6.376   4.568   0.577 -2.2428 -1.1134 -0.5605
 8882TIP3    H248138   6.378   4.434   0.507  0.0130 -0.8974 -1.0082
 8883TIP3   OH248139   3.278   2.824  15.771  0.1016 -0.2238 -0.1884
 8883TIP3    H148140   3.341   2.877  15.721  0.3580  0.2161  0.5921
 8883TIP3    H248141   3.331   2.779  15.836 -0.4185  0.3387  0.6361
 8884TIP3   OH248142   5.540   0.434   5.304  0.0739  0.6960  0.5253
 8884TIP3    H148143   5.509   0.377   5.234 -1.7274  0.7523  1.2284
 8884TIP3    H248144   5.461   0.468   5.344  1.0417  3.5692  0.2776
 8885TIP3   OH248145   6.320   2.600   0.739 -0.0739 -0.4871 -0.5286
 8885TIP3    H148146   6.356   2.584   0.826 -0.3625 -2.7459 -0.7619
 8885TIP3    H248147   6.380   2.663   0.699 -0.8339  1.8739  1.8212
 8886TIP3   OH248148   0.930   1.775   3.634  1.0660 -0.2717 -0.0747
 8886TIP3    H148149   0.928   1.693   3.584  0.6828 -0.4841  0.2887
 8886TIP3    H248150   0.983   1.834   3.580  0.6817 -0.5087 -0.7171
 8887TIP3   OH248151   0.888   5.136  15.076  0.0395  0.1501  0.1147
 8887TIP3    H148152   0.802   5.097  15.091  0.8866 -1.1601  2.0819
 8887TIP3    H248153   0.872   5.208  15.015 -2.1730 -1.0560 -0.8364
 8888TIP3   OH248154   4.157   0.036   4.621  0.2150 -0.3418  0.2497
 8888TIP3    H148155   4.108   0.023   4.702 -1.9464 -1.0756 -1.1044
 8888TIP3    H248156   4.246   0.007   4.642  0.1786  1.0784  2.8123
 8889TIP3   OH248157   1.659   2.025   0.629 -0.0186 -0.0546 -0.3861
 8889TIP3    H148158   1.695   1.937   0.633 -1.2780 -0.6508 -1.4120
 8889TIP3    H248159   1.707   2.074   0.695  1.9615 -1.0309 -1.0213
 8890TIP3   OH248160   2.943   1.997  11.966  0.3514 -0.9272 -0.2905
 8890TIP3    H148161   2.851   2.020  11.953  0.6029  0.9540  0.8863
 8890TIP3    H248162   2.952   1.911  11.925 -1.5599 -0.5031 -1.7826
 8891TIP3   OH248163   4.771   2.685  17.240 -0.0926 -0.3513 -0.1686
 8891TIP3    H148164   4.745   2.728  17.159 -2.4729  0.3566  0.8794
 8891TIP3    H248165   4.858   2.720  17.260 -1.4525  3.2805  0.0670
 8892TIP3   OH248166   5.515   0.617  13.619 -0.0475  0.9109 -0.5019
 8892TIP3    H148167   5.490   0.701  13.655  0.4397  0.8635 -0.0415
 8892TIP3    H248168   5.513   0.629  13.524 -0.5793  1.2584 -0.4465
 8893TIP3   OH248169   6.456   1.955  15.678  0.4274  0.6536  0.0839
 8893TIP3    H148170   6.372   1.998  15.664  0.3622  0.5750  0.2419
 8893TIP3    H248171   6.507   1.975  15.598 -0.1975 -0.4162 -0.6104
 8894TIP3   OH248172   0.666   0.196  16.096  0.6655  0.0690  0.1195
 8894TIP3    H148173   0.682   0.168  16.006 -0.0905  0.8252 -0.2675
 8894TIP3    H248174   0.749   0.182  16.141  1.2491  0.3034 -0.8560
 8895TIP3   OH248175   2.329   4.788   6.113  0.4011  0.4721  0.0062
 8895TIP3    H148176   2.293   4.705   6.144 -0.7544  0.9488 -0.0118
 8895TIP3    H248177   2.340   4.840   6.192  0.5720  0.5233 -0.0495
 8896TIP3   OH248178   1.969   5.335  11.333  0.1560  0.2578 -0.2948
 8896TIP3    H148179   1.924   5.413  11.300  0.4929 -0.2997 -2.2369
 8896TIP3    H248180   2.021   5.366  11.407 -0.0165  1.8005 -0.7779
 8897TIP3   OH248181   3.383   1.649   5.383 -0.0450  0.3178  0.2585
 8897TIP3    H148182   3.382   1.743   5.367  1.3742  0.6785  1.9547
 8897TIP3    H248183   3.475   1.629   5.402 -0.2788 -1.4756 -0.3399
 8898TIP3   OH248184   4.792   5.663   5.847 -0.0442 -0.2856  0.1241
 8898TIP3    H148185   4.714   5.683   5.899 -0.7904 -0.8707 -0.7497
 8898TIP3    H248186   4.864   5.671   5.910 -0.5796  2.0378  0.5348
 8899TIP3   OH248187   0.530   1.481  13.770 -0.1214 -0.2388  0.8557
 8899TIP3    H148188   0.561   1.547  13.833  0.7309 -0.3690  0.5863
 8899TIP3    H248189   0.610   1.433  13.745 -0.8211 -1.9221  1.6657
 8900TIP3   OH248190   0.380   0.548   5.683 -0.1481  0.0907 -0.3959
 8900TIP3    H148191   0.342   0.562   5.596 -1.9833  0.8677  0.4761
 8900TIP3    H248192   0.325   0.480   5.722 -0.4029  0.9375  0.7509
 8901TIP3   OH248193   0.240   1.696  13.088  0.2019  0.2110 -0.4157
 8901TIP3    H148194   0.328   1.689  13.125  0.3798 -0.3551 -0.9367
 8901TIP3    H248195   0.188   1.633  13.139 -0.2806  1.6473  0.9446
 8902TIP3   OH248196   0.912   1.835  12.707 -0.0521 -0.0768 -0.5653
 8902TIP3    H148197   0.970   1.863  12.778 -1.2660  2.0093 -0.3152
 8902TIP3    H248198   0.972   1.803  12.639  1.1921 -1.1604  0.9649
 8903TIP3   OH248199   2.068   4.412  15.678 -0.1676 -0.0033 -0.1376
 8903TIP3    H148200   2.132   4.409  15.607  1.0621 -0.3482  0.9485
 8903TIP3    H248201   2.028   4.325  15.678 -0.1425 -0.0139 -0.3795
 8904TIP3   OH248202   5.928   0.963  11.705  0.0645  0.8588  0.2149
 8904TIP3    H148203   5.972   0.958  11.790  1.4452  1.4327 -0.4283
 8904TIP3    H248204   5.883   0.879  11.697  1.5026 -0.0071  0.7007
 8905TIP3   OH248205   0.915   1.542  14.494  0.5883 -0.4444 -0.3188
 8905TIP3    H148206   0.829   1.535  14.536 -0.5475 -1.0258 -2.5522
 8905TIP3    H248207   0.962   1.463  14.523 -0.0334 -0.6717  0.0918
 8906TIP3   OH248208   1.372   6.300   5.183 -0.0146 -0.5353 -0.3412
 8906TIP3    H148209   1.413   6.251   5.255  0.4801  0.0636 -0.2111
 8906TIP3    H248210   1.303   6.242   5.152  0.9578 -1.5883 -0.6001
 8907TIP3   OH248211   5.175   3.497   5.441  0.2537  0.4413  0.0203
 8907TIP3    H148212   5.123   3.418   5.455 -1.6194  2.0346  3.3296
 8907TIP3    H248213   5.254   3.483   5.493  1.4898 -0.4211 -1.9585
 8908TIP3   OH248214   0.525   4.937   1.550 -0.0905 -0.3878  0.1521
 8908TIP3    H148215   0.468   5.013   1.539  1.3895  0.9457  1.2272
 8908TIP3    H248216   0.468   4.862   1.537 -1.6222  0.8902 -0.9275
 8909TIP3   OH248217   6.419   5.728  11.431 -0.2113 -0.0445 -0.4160
 8909TIP3    H148218   6.405   5.710  11.338 -0.2029 -0.4932 -0.3342
 8909TIP3    H248219   6.339   5.697  11.474 -0.5821  0.9592 -0.3637
 8910TIP3   OH248220   0.057   3.470  17.234 -0.0378  0.5192 -0.3214
 8910TIP3    H148221   0.126   3.446  17.172 -0.9908  0.9714 -1.6094
 8910TIP3    H248222   0.038   3.389  17.281  2.3936  0.7147  1.1787
 8911TIP3   OH248223   3.111   5.461  15.154  0.0438 -0.2575  0.4699
 8911TIP3    H148224   3.066   5.503  15.082  0.0693 -0.9484  0.0477
 8911TIP3    H248225   3.072   5.499  15.233  1.0398  1.6027  0.1070
 8912TIP3   OH248226   4.895   5.705  14.967  0.3735 -0.0949  0.1824
 8912TIP3    H148227   4.833   5.692  14.896 -0.4294  1.4693  0.5556
 8912TIP3    H248228   4.909   5.800  14.970  2.5040 -0.3667  0.3597
 8913TIP3   OH248229   0.509   0.655   2.897  0.1690  0.4129 -0.2846
 8913TIP3    H148230   0.480   0.741   2.867  2.0114  1.0278 -0.4048
 8913TIP3    H248231   0.543   0.612   2.818  0.6886  0.1912  0.0551
 8914TIP3   OH248232   5.278   3.194  17.253  0.3363 -0.3327  0.1919
 8914TIP3    H148233   5.289   3.105  17.218  2.5997 -0.2947  0.6453
 8914TIP3    H248234   5.273   3.249  17.176 -1.5303 -0.8596 -0.1060
 8915TIP3   OH248235   5.669   1.770   2.947 -0.0554  0.1555  0.3349
 8915TIP3    H148236   5.693   1.689   2.900  0.4150  0.4610  0.0429
 8915TIP3    H248237   5.718   1.839   2.903 -2.0923  0.9513 -0.8318
 8916TIP3   OH248238   1.523   3.038   2.845 -0.0170 -0.3700 -0.2664
 8916TIP3    H148239   1.429   3.036   2.863  0.0180  1.6748  0.3987
 8916TIP3    H248240   1.529   3.063   2.753 -0.1892  2.1336  0.3193
 8917TIP3   OH248241   6.290   5.829   1.894 -0.0372 -0.1836  0.0467
 8917TIP3    H148242   6.196   5.829   1.876  0.3693 -0.7903 -2.4799
 8917TIP3    H248243   6.317   5.738   1.881  1.1791  0.3138 -1.1625
 8918TIP3   OH248244   2.898   2.550  12.985 -0.0584  0.0797  0.2209
 8918TIP3    H148245   2.963   2.494  13.028  0.9290  2.1524  1.5723
 8918TIP3    H248246   2.821   2.543  13.041  0.8093  1.7625  1.7340
 8919TIP3   OH248247   3.473   2.270   5.112 -0.2782 -0.1494  0.3252
 8919TIP3    H148248   3.381   2.257   5.089 -0.1605 -0.8081  0.2114
 8919TIP3    H248249   3.518   2.275   5.027 -0.3774  1.5478  0.3413
 8920TIP3   OH248250   0.740   0.109  15.842  0.5457 -0.0921 -0.3609
 8920TIP3    H148251   0.749   0.136  15.751  2.1150 -0.6324 -0.3931
 8920TIP3    H248252   0.706   0.020  15.838  1.1339 -0.3146 -0.4393
 8921TIP3   OH248253   1.151   0.567  12.683 -0.1851 -0.3641  0.3729
 8921TIP3    H148254   1.172   0.489  12.735 -2.1025 -1.1008  0.1204
 8921TIP3    H248255   1.056   0.577  12.692 -0.2685  0.7298 -1.2776
 8922TIP3   OH248256   2.894   2.351   6.540 -0.7005 -0.1827 -0.3758
 8922TIP3    H148257   2.869   2.281   6.481 -1.7454 -0.0453 -0.1219
 8922TIP3    H248258   2.986   2.366   6.522 -0.5020 -1.4975 -0.5518
 8923TIP3   OH248259   3.686   2.214  12.624 -0.2665  0.4084  0.0475
 8923TIP3    H148260   3.696   2.215  12.719 -0.1738 -1.3884  0.0809
 8923TIP3    H248261   3.592   2.203  12.610 -0.1073 -0.9949 -0.0279
 8924TIP3   OH248262   4.224   3.885  11.216  0.0306  0.3758  0.0113
 8924TIP3    H148263   4.260   3.911  11.131 -0.3212  0.6070 -0.0699
 8924TIP3    H248264   4.244   3.792  11.223  1.5086  0.6888  0.4079
 8925TIP3   OH248265   6.613   1.347   3.502 -0.1791  0.1299 -0.2406
 8925TIP3    H148266   6.588   1.304   3.585 -0.2253  0.4024 -0.1127
 8925TIP3    H248267   6.708   1.349   3.504 -0.1435 -0.7301 -0.6364
 8926TIP3   OH248268   5.028   4.862   4.524 -0.2427 -0.0575 -0.8826
 8926TIP3    H148269   5.102   4.922   4.524  1.4559 -2.0655 -1.3304
 8926TIP3    H248270   5.021   4.832   4.615  0.8836 -1.4689 -1.2411
 8927TIP3   OH248271   3.112   2.827   1.253 -0.5462 -0.2598 -0.0540
 8927TIP3    H148272   3.122   2.921   1.240  3.2685 -0.6888 -1.4661
 8927TIP3    H248273   3.033   2.805   1.204 -2.6061  2.3202  1.7987
 8928TIP3   OH248274   0.656   3.242  14.869 -0.1955 -0.3691  0.7001
 8928TIP3    H148275   0.641   3.305  14.941  1.4409  0.7325  0.1423
 8928TIP3    H248276   0.633   3.290  14.790 -0.0439 -0.8646  0.3501
 8929TIP3   OH248277   1.523   6.188   3.548 -0.0972 -0.3383  0.5829
 8929TIP3    H148278   1.569   6.157   3.470  1.0209 -0.6980  1.3645
 8929TIP3    H248279   1.495   6.108   3.592 -1.9653 -0.1300 -0.1277
 8930TIP3   OH248280   4.003   6.468  16.172  0.3072 -0.0754 -0.4723
 8930TIP3    H148281   4.001   6.515  16.089 -2.0122  0.4695 -0.1717
 8930TIP3    H248282   4.034   6.532  16.235 -0.5827  0.3672 -0.4702
 8931TIP3   OH248283   2.062   3.608  12.188 -0.6645 -0.3411  0.0058
 8931TIP3    H148284   2.047   3.678  12.125 -0.7175 -0.5480 -0.2154
 8931TIP3    H248285   1.979   3.560  12.190 -0.6142 -0.4220  0.1219
 8932TIP3   OH248286   6.038   2.043   3.932 -0.1762 -0.0788 -0.8256
 8932TIP3    H148287   5.945   2.039   3.957  0.3985 -0.9553  1.4666
 8932TIP3    H248288   6.053   1.962   3.882 -0.5420 -0.2098 -0.7268
 8933TIP3   OH248289   5.515   0.418  13.116  0.1026  0.1436  0.4338
 8933TIP3    H148290   5.508   0.399  13.023 -1.3398  1.3678  0.2455
 8933TIP3    H248291   5.429   0.454  13.139  0.2638 -0.5700  2.3425
 8934TIP3   OH248292   6.757   5.385   3.166 -0.3036 -0.2253  0.1193
 8934TIP3    H148293   6.710   5.340   3.095  2.0570 -1.5191 -0.7843
 8934TIP3    H248294   6.751   5.325   3.240 -0.6094 -0.1081  0.1864
 8935TIP3   OH248295   6.802   0.945  14.756  0.3149 -0.6506  0.2368
 8935TIP3    H148296   6.760   1.010  14.813  0.4095 -1.2782  1.0441
 8935TIP3    H248297   6.842   0.883  14.817 -0.2005 -1.7472 -0.5063
 8936TIP3   OH248298   6.467   2.256   1.364 -0.0487  0.1814 -0.2556
 8936TIP3    H148299   6.482   2.207   1.282 -1.1670  1.2267 -1.1194
 8936TIP3    H248300   6.436   2.190   1.425 -0.5902 -0.3786 -1.1078
 8937TIP3   OH248301   4.742   2.869   3.802 -0.2137 -0.1848  0.7313
 8937TIP3    H148302   4.737   2.774   3.811 -1.0326 -0.0988  1.2953
 8937TIP3    H248303   4.829   2.892   3.834  0.1804 -0.7910  0.1091
 8938TIP3   OH248304   0.821   0.406  16.444  0.2590  0.0954 -0.3482
 8938TIP3    H148305   0.781   0.470  16.385  1.5745  0.7724 -0.5567
 8938TIP3    H248306   0.872   0.349  16.385  0.3930 -0.1365 -0.0083
 8939TIP3   OH248307   0.205   1.722   1.530 -0.2147 -1.1224  0.8185
 8939TIP3    H148308   0.260   1.796   1.556 -0.1970 -0.3291 -1.3167
 8939TIP3    H248309   0.116   1.749   1.553 -0.0857 -0.9617  1.1407
 8940TIP3   OH248310   2.080   2.905  13.413 -0.2585 -0.3601 -0.3553
 8940TIP3    H148311   2.091   2.859  13.496 -0.1552 -0.3813 -0.3799
 8940TIP3    H248312   2.165   2.897  13.370  0.5912  1.9980  0.7156
 8941TIP3   OH248313   2.954   5.701  13.132 -0.2819  0.2988 -0.3976
 8941TIP3    H148314   3.032   5.673  13.180 -1.2391  0.4241  1.3112
 8941TIP3    H248315   2.924   5.622  13.087 -0.3673 -0.2855  0.6663
 8942TIP3   OH248316   4.964   6.206   3.532 -1.2285 -0.1268  0.4294
 8942TIP3    H148317   4.964   6.269   3.459  0.1462 -1.0820 -0.4582
 8942TIP3    H248318   5.036   6.235   3.588  1.2579 -2.2717 -1.3617
 8943TIP3   OH248319   3.088   6.640  12.482 -0.2695 -0.6423  0.4438
 8943TIP3    H148320   3.166   6.693  12.491 -1.3832  1.0838  0.3825
 8943TIP3    H248321   3.082   6.621  12.388 -0.7982  0.6792  0.1831
 8944TIP3   OH248322   1.184   0.226   3.113  0.1570 -0.0497 -0.3081
 8944TIP3    H148323   1.114   0.161   3.122  1.6017 -1.4750  1.5639
 8944TIP3    H248324   1.230   0.200   3.033  0.0257 -0.6430 -0.1964
 8945TIP3   OH248325   0.858   0.844  15.959 -0.4544 -0.7099  0.0545
 8945TIP3    H148326   0.934   0.869  15.906 -0.1232 -0.6996  0.5245
 8945TIP3    H248327   0.896   0.796  16.033 -1.0853 -3.1329 -1.0858
 8946TIP3   OH248328   1.426   1.316   1.050 -0.1719  0.5550 -0.7109
 8946TIP3    H148329   1.335   1.295   1.070 -0.3252  1.1226 -0.7931
 8946TIP3    H248330   1.475   1.240   1.082 -0.8237 -0.5891 -2.2940
 8947TIP3   OH248331   4.525   2.995   4.781 -0.1683  0.2558 -0.2117
 8947TIP3    H148332   4.531   3.077   4.731  1.1425 -0.9368 -2.1599
 8947TIP3    H248333   4.609   2.952   4.765 -0.5652 -1.1824  1.3476
 8948TIP3   OH248334   3.290   2.174  11.809  0.1021 -0.1415  0.0125
 8948TIP3    H148335   3.261   2.179  11.900  0.0239  2.0699 -0.0897
 8948TIP3    H248336   3.262   2.087  11.780 -1.5317 -0.1856  1.5385
 8949TIP3   OH248337   2.652   3.410  15.052  0.3027  0.1948 -0.1375
 8949TIP3    H148338   2.568   3.418  15.098  1.5766  0.6784  2.2522
 8949TIP3    H248339   2.716   3.397  15.121  2.0438 -1.9872 -1.9843
 8950TIP3   OH248340   6.522   6.226  13.543 -1.0709 -0.1884 -0.1179
 8950TIP3    H148341   6.528   6.136  13.510 -0.9200 -0.0391 -0.5044
 8950TIP3    H248342   6.505   6.216  13.637 -0.2203 -0.6271  0.0045
 8951TIP3   OH248343   3.072   4.996   1.391  0.5757  0.9776 -0.2749
 8951TIP3    H148344   3.064   4.979   1.485 -0.8534  0.3426 -0.4870
 8951TIP3    H248345   2.988   5.034   1.366  1.0591  1.4549 -1.2527
 8952TIP3   OH248346   5.006   0.791   1.687  0.0083 -0.0550 -0.0194
 8952TIP3    H148347   4.964   0.870   1.721 -0.4102  0.5812 -1.9082
 8952TIP3    H248348   4.997   0.727   1.758 -0.2537  1.3686  1.2884
 8953TIP3   OH248349   3.688   1.134   5.279  0.1141  0.6764 -0.3776
 8953TIP3    H148350   3.614   1.103   5.332 -1.2249  2.6154 -0.9801
 8953TIP3    H248351   3.687   1.229   5.291  1.7576  0.8572 -1.4169
 8954TIP3   OH248352   4.629   0.248   4.972  1.2522 -0.3532 -0.8415
 8954TIP3    H148353   4.695   0.218   5.035  1.6243  2.3718  0.1792
 8954TIP3    H248354   4.666   0.328   4.935 -0.9513  0.5513 -1.1775
 8955TIP3   OH248355   2.027   2.531  12.646  0.1949  0.3327  0.0007
 8955TIP3    H148356   1.956   2.479  12.683  0.8320  0.2783  1.1978
 8955TIP3    H248357   1.986   2.615  12.623 -0.6820 -0.4126 -1.2742
 8956TIP3   OH248358   6.076   0.015   3.661  0.0127  0.1818 -0.2011
 8956TIP3    H148359   6.160   0.040   3.622  0.0523  1.4085  0.6167
 8956TIP3    H248360   6.017   0.087   3.639 -0.1117  0.6291  1.4579
 8957TIP3   OH248361   6.093   1.643  14.383  0.0558 -0.3214  0.8937
 8957TIP3    H148362   6.012   1.638  14.434 -0.9250 -1.7662 -0.6917
 8957TIP3    H248363   6.140   1.562  14.405 -1.3370 -2.0271 -1.8813
 8958TIP3   OH248364   2.845   3.114   5.489  0.0937 -0.4773 -0.0083
 8958TIP3    H148365   2.778   3.158   5.542 -1.9261 -3.1034 -0.1684
 8958TIP3    H248366   2.903   3.073   5.554  0.2740  0.0143  0.1440
 8959TIP3   OH248367   1.581   6.143   4.386  0.4122 -0.1020 -0.4753
 8959TIP3    H148368   1.536   6.102   4.461  0.6862 -1.7278 -1.1452
 8959TIP3    H248369   1.564   6.236   4.396 -0.7174 -0.4075  0.8553
 8960TIP3   OH248370   4.766   4.095   6.019  0.4581  0.3922 -0.2362
 8960TIP3    H148371   4.684   4.125   6.056  0.9098  3.6266 -1.5712
 8960TIP3    H248372   4.760   4.116   5.926  2.1109 -0.9895 -0.7206
 8961TIP3   OH248373   4.156   5.744   6.258 -0.2478  0.5819  0.0379
 8961TIP3    H148374   4.084   5.696   6.298  0.2314 -0.8283 -0.7111
 8961TIP3    H248375   4.116   5.789   6.183 -0.3664 -0.2767 -0.4378
 8962TIP3   OH248376   2.098   3.310  11.349  0.0967 -0.2291  0.3800
 8962TIP3    H148377   2.018   3.259  11.365  0.5343 -0.8228  0.7151
 8962TIP3    H248378   2.165   3.244  11.333  0.2102  0.2714 -1.5303
 8963TIP3   OH248379   5.491   2.869  15.056 -0.7059 -0.5863 -0.1040
 8963TIP3    H148380   5.509   2.963  15.062 -0.3375 -0.4761 -2.2870
 8963TIP3    H248381   5.537   2.831  15.131 -1.4827  1.0204  1.2584
 8964TIP3   OH248382   2.638   6.695   5.798 -0.5224 -0.1881  0.2019
 8964TIP3    H148383   2.631   6.719   5.891 -1.5566 -1.1078  0.3820
 8964TIP3    H248384   2.694   6.618   5.798 -1.0230 -0.5568  0.1354
 8965TIP3   OH248385   3.745   0.241  16.762  0.3083  0.2620  0.0724
 8965TIP3    H148386   3.665   0.214  16.807 -0.6917  2.0740 -0.4958
 8965TIP3    H248387   3.750   0.336  16.777  0.2474  0.8800 -3.0394
 8966TIP3   OH248388   2.655   1.331   3.041 -0.2323 -0.2542 -0.0182
 8966TIP3    H148389   2.687   1.241   3.032  0.6255 -0.0509  0.8204
 8966TIP3    H248390   2.719   1.374   3.098 -0.9855  0.7110  0.1331
 8967TIP3   OH248391   5.125   2.315   5.741 -0.1714  0.0655  0.0901
 8967TIP3    H148392   5.203   2.321   5.796 -0.7832 -0.4194  1.0255
 8967TIP3    H248393   5.134   2.388   5.679  0.2971  0.8999  1.1161
 8968TIP3   OH248394   1.950   6.420   0.244 -0.1661 -0.1637 -0.1876
 8968TIP3    H148395   1.923   6.512   0.243  0.9159  0.2144  1.2842
 8968TIP3    H248396   2.011   6.412   0.170  2.3819  1.2436  1.6048
 8969TIP3   OH248397   2.420   2.186  16.816 -0.1193 -0.2860 -0.3637
 8969TIP3    H148398   2.341   2.153  16.773  0.0608 -0.8217 -0.2954
 8969TIP3    H248399   2.422   2.279  16.795  0.5257 -0.7219 -2.4213
 8970TIP3   OH248400   6.385   4.368   4.838 -0.0647 -0.0612 -0.3520
 8970TIP3    H148401   6.326   4.441   4.817  0.9825  0.8095 -0.3888
 8970TIP3    H248402   6.386   4.365   4.934  1.0369  0.9941 -0.2967
 8971TIP3   OH248403   2.769   4.794   1.334  0.3020 -0.1429  0.0815
 8971TIP3    H148404   2.755   4.838   1.418  0.5839 -0.3483  0.2379
 8971TIP3    H248405   2.684   4.798   1.290 -0.0181 -0.5868  0.6390
 8972TIP3   OH248406   4.538   0.109  11.577 -0.7349  0.2304  0.8992
 8972TIP3    H148407   4.579   0.069  11.654  0.3274 -0.1716  0.1511
 8972TIP3    H248408   4.608   0.161  11.538 -0.7605 -0.8318 -0.6636
 8973TIP3   OH248409   1.066   5.749  15.058  0.2215  0.2766  0.3470
 8973TIP3    H148410   1.158   5.775  15.065  0.3611 -0.3701  0.9525
 8973TIP3    H248411   1.066   5.655  15.073 -0.7579  0.5310  2.2981
 8974TIP3   OH248412   4.053   1.048   6.040  0.2896 -0.1105  0.0016
 8974TIP3    H148413   4.109   0.974   6.015 -0.8109 -0.6533 -0.9311
 8974TIP3    H248414   4.071   1.060   6.134  1.0824 -1.0405 -0.0123
 8975TIP3   OH248415   5.050   3.156   0.070  0.3593  0.5395  0.3850
 8975TIP3    H148416   5.001   3.237   0.060 -0.6166 -0.0316  0.3838
 8975TIP3    H248417   5.140   3.179   0.048 -0.2312  1.1734 -1.5785
 8976TIP3   OH248418   4.403   4.205  12.941 -0.6775 -0.0338 -0.2337
 8976TIP3    H148419   4.474   4.191  13.004  1.5048 -3.8912 -3.0803
 8976TIP3    H248420   4.429   4.283  12.892  2.6403 -2.0710 -2.1018
 8977TIP3   OH248421   3.675   2.055   0.172 -0.0630 -0.0338 -0.0864
 8977TIP3    H148422   3.749   2.113   0.156  1.7338 -1.9085  0.9240
 8977TIP3    H248423   3.645   2.029   0.085  0.1573  1.0857 -0.5149
 8978TIP3   OH248424   4.779   6.273   4.022 -0.4567  0.1984 -0.1677
 8978TIP3    H148425   4.859   6.312   3.987 -0.3850 -0.3349 -0.6178
 8978TIP3    H248426   4.709   6.308   3.967 -0.4353  0.0073 -0.3189
 8979TIP3   OH248427   6.055   4.277   2.931  0.3605  0.7294  0.3519
 8979TIP3    H148428   6.150   4.275   2.933  0.3964 -0.8176 -0.8632
 8979TIP3    H248429   6.033   4.313   2.845 -0.1805  1.7012  0.8725
 8980TIP3   OH248430   4.793   1.158   2.253 -0.1302 -0.6295  0.6456
 8980TIP3    H148431   4.791   1.098   2.178  0.0721 -1.7539  1.5210
 8980TIP3    H248432   4.868   1.215   2.235 -0.4137 -0.5163 -0.2722
 8981TIP3   OH248433   5.133   5.446   4.098  0.2090  0.3751  0.0224
 8981TIP3    H148434   5.126   5.406   4.012 -1.4343 -0.3991  0.4845
 8981TIP3    H248435   5.048   5.487   4.113 -1.1020 -2.9260  2.8761
 8982TIP3   OH248436   4.189   5.778   1.326 -0.1581 -0.5747 -0.5141
 8982TIP3    H148437   4.134   5.820   1.392  2.5756  1.9884  0.3783
 8982TIP3    H248438   4.185   5.685   1.347 -1.7662 -0.1496  1.3536
 8983TIP3   OH248439   1.143   4.975   2.877 -0.6404 -0.0604 -0.4851
 8983TIP3    H148440   1.182   4.952   2.962  1.4543  2.3845 -0.6719
 8983TIP3    H248441   1.200   4.934   2.812 -0.9674 -0.0980 -0.7519
 8984TIP3   OH248442   6.384   5.204   5.185  0.0481  0.1543  0.7993
 8984TIP3    H148443   6.312   5.157   5.228 -0.3575 -0.1370 -0.1805
 8984TIP3    H248444   6.345   5.288   5.159 -0.5861 -0.7850 -1.5689
 8985TIP3   OH248445   0.492   1.639  16.975  0.0438  0.3004  0.2015
 8985TIP3    H148446   0.435   1.645  16.898  0.4541  0.0703 -0.1216
 8985TIP3    H248447   0.490   1.727  17.013  0.4454  0.6208 -0.5129
 8986TIP3   OH248448   4.277   4.547  15.899  0.7047 -0.1642 -0.1178
 8986TIP3    H148449   4.190   4.586  15.896  1.1156  0.8619  0.9162
 8986TIP3    H248450   4.272   4.479  15.966  0.3957 -0.9454 -0.9017
 8987TIP3   OH248451   2.340   1.766  11.111 -0.5991 -0.3753 -0.0289
 8987TIP3    H148452   2.279   1.726  11.049 -0.4031  0.3537 -0.7101
 8987TIP3    H248453   2.380   1.838  11.062 -1.1025  0.8014  1.2232
 8988TIP3   OH248454   1.136   2.336  13.234  0.2762  0.1086 -0.0021
 8988TIP3    H148455   1.097   2.259  13.276 -1.1642  0.9376  0.2672
 8988TIP3    H248456   1.203   2.366  13.296  0.3224 -0.4855  0.2416
 8989TIP3   OH248457   0.411   4.466  16.443  0.4341  0.5284  0.9798
 8989TIP3    H148458   0.460   4.545  16.422  0.0780  0.7007  0.7967
 8989TIP3    H248459   0.329   4.497  16.481 -1.0802  0.3718 -1.8782
 8990TIP3   OH248460   1.330   0.275   2.643  0.5115  0.0456  0.4688
 8990TIP3    H148461   1.295   0.362   2.622 -1.1616  0.2255  3.3944
 8990TIP3    H248462   1.425   0.285   2.636  0.4924 -0.0074 -6.1755
 8991TIP3   OH248463   2.649   2.440  12.646 -0.1467 -0.4634  0.4164
 8991TIP3    H148464   2.684   2.488  12.571 -1.4064 -1.4161 -0.8275
 8991TIP3    H248465   2.558   2.470  12.653 -0.7958 -2.2324 -0.0554
 8992TIP3   OH248466   6.147   4.701   6.419  0.3829 -0.3076  0.3066
 8992TIP3    H148467   6.166   4.655   6.337 -0.9841  0.6324 -0.5771
 8992TIP3    H248468   6.134   4.792   6.393  0.6997  0.1659  1.6969
 8993TIP3   OH248469   2.992   0.753   1.207  0.3961 -0.0817  0.5328
 8993TIP3    H148470   3.005   0.847   1.192  0.0808 -0.3436 -1.7450
 8993TIP3    H248471   3.032   0.712   1.131 -1.4782 -1.6700  0.3383
 8994TIP3   OH248472   5.481   4.867  14.120 -0.1878  0.3650 -0.4630
 8994TIP3    H148473   5.471   4.955  14.084 -1.7081  0.2800 -0.3453
 8994TIP3    H248474   5.545   4.877  14.190 -0.6729  1.4893 -0.1524
 8995TIP3   OH248475   1.325   4.243   5.254 -0.6251 -0.8196 -0.3395
 8995TIP3    H148476   1.317   4.221   5.347 -0.2237 -2.2105 -0.6009
 8995TIP3    H248477   1.235   4.249   5.223 -0.7581 -0.8643  0.0326
 8996TIP3   OH248478   6.234   0.373  15.381  0.8303  0.2196  0.0283
 8996TIP3    H148479   6.330   0.380  15.385  0.8097  0.6064 -0.1220
 8996TIP3    H248480   6.218   0.290  15.337  1.0893 -0.3969  1.0555
 8997TIP3   OH248481   6.175   6.687  14.964 -0.5991  0.3541 -0.5486
 8997TIP3    H148482   6.243   6.754  14.955 -1.7921  1.3453 -3.8474
 8997TIP3    H248483   6.106   6.730  15.015  0.7160 -0.3002  1.9061
 8998TIP3   OH248484   3.661   5.110  13.764 -0.1382  0.3605 -0.2342
 8998TIP3    H148485   3.690   5.178  13.824 -0.1411  1.5605 -1.5589
 8998TIP3    H248486   3.668   5.029  13.815  1.0964  1.1789  0.9528
 8999TIP3   OH248487   4.777   1.010  11.964 -0.0169  0.4322  0.2953
 8999TIP3    H148488   4.720   0.934  11.951  1.0991 -0.5712  0.9620
 8999TIP3    H248489   4.741   1.078  11.908 -1.9596 -0.0921  0.8374
 9000TIP3   OH248490   6.754   2.962   0.076 -0.0566  0.5773 -0.0118
 9000TIP3    H148491   6.806   2.903   0.022 -0.3331 -0.0446  0.3876
 9000TIP3    H248492   6.752   2.921   0.163 -1.1129  0.6235  0.0100
 9001TIP3   OH248493   5.662   1.843  12.868 -0.3097  0.1079  0.4035
 9001TIP3    H148494   5.739   1.845  12.812  0.2983  0.1099  1.2184
 9001TIP3    H248495   5.652   1.933  12.899 -1.2589  0.3381 -0.4905
 9002TIP3   OH248496   5.271   1.431   5.088 -0.1065 -0.3058  0.1085
 9002TIP3    H148497   5.298   1.517   5.121  0.6087 -0.0703 -1.0006
 9002TIP3    H248498   5.353   1.391   5.060 -0.7116 -0.1409 -2.1052
 9003TIP3   OH248499   6.001   2.700  12.656 -0.1936 -0.1963 -0.6562
 9003TIP3    H148500   6.062   2.642  12.612  0.4974  0.0277 -0.0094
 9003TIP3    H248501   6.055   2.771  12.691 -0.5302 -0.9689  1.5775
 9004TIP3   OH248502   4.160   3.247   2.591  0.5678 -0.1488  0.1536
 9004TIP3    H148503   4.170   3.288   2.677  3.0767 -0.8850  0.2904
 9004TIP3    H248504   4.219   3.172   2.593 -3.2771 -3.5091 -0.3334
 9005TIP3   OH248505   4.681   6.590   1.586  0.4005  0.7472 -0.0784
 9005TIP3    H148506   4.622   6.518   1.565  0.5469  0.1847  1.2975
 9005TIP3    H248507   4.694   6.637   1.504 -1.9455  0.8709 -0.4417
 9006TIP3   OH248508   4.566   5.300   3.812 -0.4814  0.4936 -0.1183
 9006TIP3    H148509   4.558   5.352   3.891 -2.7001 -2.3672  1.7910
 9006TIP3    H248510   4.590   5.213   3.843 -1.7905 -0.8371 -2.4905
 9007TIP3   OH248511   5.996   3.379  15.585  0.0862 -0.3798  0.4750
 9007TIP3    H148512   6.031   3.293  15.565  0.2645  0.2444 -2.2132
 9007TIP3    H248513   6.029   3.436  15.515 -2.6287  1.1676  0.3209
 9008TIP3   OH248514   1.604   0.855   5.539  0.3325 -0.2665 -0.1152
 9008TIP3    H148515   1.604   0.786   5.474  0.1031 -0.6328  0.2699
 9008TIP3    H248516   1.695   0.885   5.543  0.8232 -1.8262  1.0577
 9009TIP3   OH248517   3.415   2.125  16.872 -0.1421  0.4896  0.0557
 9009TIP3    H148518   3.357   2.049  16.880 -1.8352  1.6743 -0.4019
 9009TIP3    H248519   3.365   2.197  16.910  1.7956  1.2489  1.3220
 9010TIP3   OH248520   2.254   1.218   4.279  0.1494 -0.3860  0.0270
 9010TIP3    H148521   2.299   1.302   4.280 -2.5117  1.1534  0.4894
 9010TIP3    H248522   2.270   1.182   4.191  0.1413  1.3092 -0.6924
 9011TIP3   OH248523   0.292   1.372  11.867  0.3613  0.7947  0.0915
 9011TIP3    H148524   0.313   1.279  11.856 -0.3734  0.8512 -2.2408
 9011TIP3    H248525   0.268   1.380  11.959  2.4139 -0.8931  0.8437
 9012TIP3   OH248526   6.620   4.601   4.821 -0.3215 -0.1462  0.2427
 9012TIP3    H148527   6.668   4.665   4.768  0.7070  0.0400  1.3332
 9012TIP3    H248528   6.570   4.550   4.758  0.3522  0.4782 -0.8371
 9013TIP3   OH248529   3.485   4.344  15.404 -0.2579  0.1149  0.0987
 9013TIP3    H148530   3.575   4.321  15.428  0.8351  3.0058 -0.8067
 9013TIP3    H248531   3.462   4.282  15.335  1.6066  0.1844 -0.6519
 9014TIP3   OH248532   5.590   3.234   5.647 -0.2648 -0.1026 -0.0914
 9014TIP3    H148533   5.518   3.271   5.699 -1.8711 -2.8813 -0.1812
 9014TIP3    H248534   5.655   3.304   5.645 -1.6075  1.4182  2.6650
 9015TIP3   OH248535   6.018   4.034  14.410 -0.0821 -0.4951 -0.1438
 9015TIP3    H148536   6.100   3.985  14.420  0.5712  0.7947  1.3559
 9015TIP3    H248537   5.950   3.972  14.436  0.6937 -0.7567  1.4074
 9016TIP3   OH248538   2.917   0.509  16.041  0.5864  0.1191 -0.6816
 9016TIP3    H148539   2.829   0.547  16.038  1.1085  1.5581  0.7511
 9016TIP3    H248540   2.903   0.418  16.066 -0.4392  0.6864  0.9531
 9017TIP3   OH248541   4.091   2.529   1.375  0.3857  0.3234  0.2810
 9017TIP3    H148542   4.107   2.623   1.365  0.1348  0.4669  1.0933
 9017TIP3    H248543   4.178   2.491   1.388  0.4751  0.4596  0.0874
 9018TIP3   OH248544   2.828   3.798  16.907  0.3038  0.3994  0.2704
 9018TIP3    H148545   2.850   3.889  16.923  2.2342 -0.1693  1.1186
 9018TIP3    H248546   2.796   3.766  16.991  1.8562 -0.2798  0.6273
 9019TIP3   OH248547   3.293   6.513   4.563 -0.1317  0.3730  0.1440
 9019TIP3    H148548   3.201   6.539   4.556 -0.9063 -1.6133  1.8002
 9019TIP3    H248549   3.306   6.447   4.495 -0.3961 -0.4588  0.8842
 9020TIP3   OH248550   4.640   6.035  13.340  0.2064  0.1963  0.5365
 9020TIP3    H148551   4.696   6.113  13.349 -1.0684  1.2597 -0.3749
 9020TIP3    H248552   4.602   6.043  13.253  1.2292 -2.2920 -0.2297
 9021TIP3   OH248553   2.325   1.645  16.364 -0.7219 -0.8156 -0.1767
 9021TIP3    H148554   2.314   1.653  16.459  0.3073  1.8964 -0.1914
 9021TIP3    H248555   2.405   1.694  16.345 -1.4690 -0.3880 -2.5664
 9022TIP3   OH248556   0.962   3.393   3.760 -0.0112  0.4619 -0.6920
 9022TIP3    H148557   0.900   3.320   3.770 -1.0736  1.4746  0.4492
 9022TIP3    H248558   0.916   3.457   3.706  0.5820  0.6712 -0.9638
 9023TIP3   OH248559   0.347   1.732  11.706  0.5275  0.2661  0.2416
 9023TIP3    H148560   0.385   1.706  11.623 -1.3480 -2.1538  0.0330
 9023TIP3    H248561   0.381   1.669  11.769 -2.4005 -1.5597  0.1605
 9024TIP3   OH248562   1.071   0.090  12.401  0.3424  0.5137 -0.8487
 9024TIP3    H148563   1.143   0.035  12.369 -0.4917 -0.6688 -0.7522
 9024TIP3    H248564   0.994   0.058  12.355  0.2435  3.7783 -3.3717
 9025TIP3   OH248565   5.042   3.615   4.840 -0.5328  0.5088 -0.4525
 9025TIP3    H148566   5.065   3.665   4.762 -1.0769  0.3979 -0.6880
 9025TIP3    H248567   5.122   3.615   4.893 -1.0935  3.6046  0.6430
 9026TIP3   OH248568   6.150   0.781  16.933 -0.4447  0.1606  0.4318
 9026TIP3    H148569   6.075   0.770  16.874  0.1968  0.1075 -0.3902
 9026TIP3    H248570   6.191   0.863  16.904  1.1192 -0.9482 -0.6238
 9027TIP3   OH248571   3.640   6.502   5.939  0.4884 -0.5722  0.3083
 9027TIP3    H148572   3.626   6.546   6.023 -1.8720  1.1167 -0.8786
 9027TIP3    H248573   3.593   6.419   5.947 -0.0840 -0.2315  0.5261
 9028TIP3   OH248574   3.560   3.881  12.809  0.0939 -0.1171  0.6074
 9028TIP3    H148575   3.548   3.925  12.894 -2.3207 -0.8353  0.6977
 9028TIP3    H248576   3.533   3.946  12.744 -0.8830 -0.5286  0.5857
 9029TIP3   OH248577   0.763   4.694   4.877 -0.0564  0.3656 -0.0844
 9029TIP3    H148578   0.817   4.620   4.849 -1.9597 -1.6885  1.3081
 9029TIP3    H248579   0.762   4.689   4.972 -2.6063  0.3144 -0.0376
 9030TIP3   OH248580   5.300   0.460   5.413  0.5878  0.2330 -0.7329
 9030TIP3    H148581   5.257   0.396   5.356 -0.2456  1.5731 -1.6418
 9030TIP3    H248582   5.278   0.430   5.502 -0.2153 -0.4501 -1.1453
 9031TIP3   OH248583   6.320   3.128  16.611  0.5285  0.2989 -0.2840
 9031TIP3    H148584   6.339   3.116  16.518 -1.1874  0.6809 -0.7082
 9031TIP3    H248585   6.269   3.208  16.615  0.9984  0.5600  1.0672
 9032TIP3   OH248586   5.400   3.279  13.040 -0.0097 -0.1116  0.2111
 9032TIP3    H148587   5.358   3.313  12.961 -1.0683 -1.6617  0.0596
 9032TIP3    H248588   5.350   3.318  13.112 -0.0624  0.0551  0.0851
 9033TIP3   OH248589   3.554   1.461  11.517 -0.2912 -0.1305 -0.1219
 9033TIP3    H148590   3.596   1.386  11.474 -0.1010  0.4577 -0.9974
 9033TIP3    H248591   3.626   1.521  11.537 -0.2240 -0.8893  2.1136
 9034TIP3   OH248592   4.529   6.807   6.611  0.0267  0.0485 -0.0678
 9034TIP3    H148593   4.560   6.717   6.603  0.4750  0.2255 -0.3500
 9034TIP3    H248594   4.604   6.855   6.646 -0.2349  0.3011  0.1583
 9035TIP3   OH248595   5.003   4.384   1.876 -0.0025 -0.2900 -0.5824
 9035TIP3    H148596   4.971   4.316   1.934 -1.2976 -0.4173 -1.3934
 9035TIP3    H248597   5.050   4.445   1.933 -1.7202 -0.1012  0.7272
 9036TIP3   OH248598   4.812   4.581   5.855 -0.2585 -0.2012 -0.2710
 9036TIP3    H148599   4.840   4.523   5.925  0.7944  1.1516  0.4974
 9036TIP3    H248600   4.875   4.654   5.858 -2.6029  1.9373  0.0785
 9037TIP3   OH248601   5.487   6.416  12.212  0.4043  0.0980  0.3933
 9037TIP3    H148602   5.472   6.361  12.135 -1.8222  1.9909 -0.6251
 9037TIP3    H248603   5.445   6.368  12.284  0.1348 -0.4107 -0.0900
 9038TIP3   OH248604   0.088   6.343  13.894  0.2786  0.2757  0.0582
 9038TIP3    H148605   0.005   6.390  13.890  0.3794  0.4564  0.0738
 9038TIP3    H248606   0.102   6.329  13.988  0.4438  0.5675  0.0804
 9039TIP3   OH248607   5.871   4.440   3.255  0.0310  0.6618 -0.3308
 9039TIP3    H148608   5.856   4.492   3.176  0.8062  0.8841 -0.3433
 9039TIP3    H248609   5.863   4.503   3.327  0.5477  0.7190 -0.3182
 9040TIP3   OH248610   2.381   1.962  16.415 -0.4045 -0.2417 -0.1617
 9040TIP3    H148611   2.447   1.897  16.391 -0.1108 -0.4678  1.1774
 9040TIP3    H248612   2.400   2.038  16.360 -0.3625 -1.0416 -1.2968
 9041TIP3   OH248613   2.748   0.910  16.918 -0.4078 -0.3408  0.1960
 9041TIP3    H148614   2.665   0.864  16.933 -1.1796  1.1270  0.6265
 9041TIP3    H248615   2.756   0.970  16.992 -0.8069  2.1121 -1.6170
 9042TIP3   OH248616   1.563   1.258   2.388 -0.3579 -0.3631  0.3461
 9042TIP3    H148617   1.653   1.233   2.370 -0.4145 -0.4112  0.1242
 9042TIP3    H248618   1.570   1.337   2.442 -0.1761  0.4398 -0.8118
 9043TIP3   OH248619   6.601   0.135   4.097 -0.3743 -0.3214 -0.5449
 9043TIP3    H148620   6.593   0.223   4.133 -1.8272 -0.4456 -0.5049
 9043TIP3    H248621   6.613   0.079   4.173  0.5577 -0.1637 -0.5712
 9044TIP3   OH248622   6.750   1.724  15.273  0.0841  0.6656  0.4150
 9044TIP3    H148623   6.779   1.783  15.342  2.0676 -1.4405  1.5330
 9044TIP3    H248624   6.686   1.666  15.316 -1.2074  1.4192 -0.4382
 9045TIP3   OH248625   3.236   1.322  11.274  0.2132  0.1655  0.0504
 9045TIP3    H148626   3.289   1.276  11.339 -1.2012 -0.9856  0.4545
 9045TIP3    H248627   3.146   1.310  11.305 -0.4457  0.1983 -1.7420
 9046TIP3   OH248628   1.654   1.034  13.956  0.1068  0.1339  0.1569
 9046TIP3    H148629   1.732   1.069  13.999 -0.1899  0.2192  0.6363
 9046TIP3    H248630   1.667   0.939  13.955  0.3938  0.1749 -0.1178
 9047TIP3   OH248631   0.819   0.325  17.249  0.5486  0.3429 -0.3944
 9047TIP3    H148632   0.765   0.255  17.285  1.0382 -0.3664 -0.9957
 9047TIP3    H248633   0.766   0.404  17.257 -0.5452 -0.3252 -0.9207
 9048TIP3   OH248634   1.955   2.302   5.739 -0.5619 -0.1331  0.1844
 9048TIP3    H148635   1.991   2.363   5.674 -2.0398  0.8784  0.2769
 9048TIP3    H248636   1.861   2.299   5.721 -0.7185 -1.3642  1.0415
 9049TIP3   OH248637   1.501   2.961  10.975  0.0091  0.1990 -0.4408
 9049TIP3    H148638   1.468   2.936  11.062  1.8128 -0.9120 -0.0328
 9049TIP3    H248639   1.476   2.888  10.918 -0.8990  0.7855 -0.8222
 9050TIP3   OH248640   2.552   5.925  12.301 -0.0158  0.3932  0.2488
 9050TIP3    H148641   2.632   5.942  12.351  1.2477  2.2654 -2.1525
 9050TIP3    H248642   2.492   5.995  12.327 -0.2720 -0.0669  0.8965
 9051TIP3   OH248643   2.435   5.369  13.936 -0.7654  0.4414  0.1306
 9051TIP3    H148644   2.383   5.402  13.863 -0.6336  1.8358  0.6443
 9051TIP3    H248645   2.505   5.319  13.894 -0.3522  1.7170 -0.7551
 9052TIP3   OH248646   1.146   3.335   3.044 -0.2263  0.0998 -0.0660
 9052TIP3    H148647   1.239   3.350   3.058 -0.0714  0.2556 -1.1664
 9052TIP3    H248648   1.102   3.407   3.088  0.1700  0.0202  0.4601
 9053TIP3   OH248649   2.261   0.345   5.596 -0.0716  0.1822 -0.4553
 9053TIP3    H148650   2.235   0.292   5.671 -2.1489 -2.1711 -2.6597
 9053TIP3    H248651   2.355   0.360   5.609 -0.3460 -0.0623  2.5522
 9054TIP3   OH248652   1.974   3.141  14.268  0.6932  0.0465  0.0197
 9054TIP3    H148653   1.889   3.113  14.303  0.6961 -0.6742 -0.5273
 9054TIP3    H248654   1.957   3.227  14.230  0.1652 -0.1518 -0.2054
 9055TIP3   OH248655   4.534   0.146  13.850  0.6545 -0.6606  0.1560
 9055TIP3    H148656   4.522   0.060  13.889  1.9967  0.0191  2.2402
 9055TIP3    H248657   4.621   0.174  13.879  1.0580  0.6119 -2.0622
 9056TIP3   OH248658   0.811   0.407   2.797 -0.5077 -0.2257 -0.0858
 9056TIP3    H148659   0.841   0.472   2.861 -1.0307 -0.6648  0.6207
 9056TIP3    H248660   0.868   0.332   2.811  0.5021  0.2648 -1.3193
 9057TIP3   OH248661   3.378   4.490  12.379  0.7243  0.0519 -0.3770
 9057TIP3    H148662   3.409   4.580  12.366  1.0903  0.2095  1.2584
 9057TIP3    H248663   3.458   4.438  12.386  0.5103 -0.4834 -1.6799
 9058TIP3   OH248664   2.323   3.228   1.184  0.1798 -0.0683 -0.2063
 9058TIP3    H148665   2.407   3.235   1.139  1.3479 -0.4032  1.8348
 9058TIP3    H248666   2.330   3.288   1.258 -0.5413 -1.6511  1.2000
 9059TIP3   OH248667   3.066   2.590  12.759 -0.4745 -0.0219  0.3611
 9059TIP3    H148668   3.017   2.601  12.678  0.1680 -0.9815 -0.1769
 9059TIP3    H248669   2.999   2.580  12.827 -1.0146 -0.3460 -0.2142
 9060TIP3   OH248670   5.743   1.772  11.626 -0.1747  0.4708  0.0338
 9060TIP3    H148671   5.699   1.832  11.566 -0.4101  0.5312  0.2660
 9060TIP3    H248672   5.725   1.807  11.713 -0.0510  0.2383  0.1544
 9061TIP3   OH248673   2.687   2.714  15.010 -0.3636  0.0016 -0.2255
 9061TIP3    H148674   2.743   2.779  14.967  1.7356 -2.1555 -1.0366
 9061TIP3    H248675   2.626   2.687  14.942 -0.2224  0.0365 -0.3670
 9062TIP3   OH248676   0.706   5.051   3.628 -0.0072 -0.5507 -0.1965
 9062TIP3    H148677   0.773   5.117   3.646  0.3455 -0.8768 -0.3171
 9062TIP3    H248678   0.655   5.088   3.557 -0.4067  0.0230  0.3750
 9063TIP3   OH248679   2.470   4.423  11.258 -0.0447  0.2491 -0.7160
 9063TIP3    H148680   2.505   4.482  11.192 -0.3406  0.6272 -0.5388
 9063TIP3    H248681   2.443   4.346  11.209  0.1628  0.3374 -0.9746
 9064TIP3   OH248682   4.504   5.108  12.986  0.6068  0.2095  0.1260
 9064TIP3    H148683   4.431   5.048  12.977  0.7043 -0.1079  1.2889
 9064TIP3    H248684   4.472   5.190  12.950 -0.0444 -0.1423 -0.1126
 9065TIP3   OH248685   1.366   2.658  12.148 -0.1213 -0.3820  0.6592
 9065TIP3    H148686   1.305   2.585  12.134 -1.9754  1.4435 -1.8544
 9065TIP3    H248687   1.334   2.702  12.226 -0.9114 -0.5512  0.4457
 9066TIP3   OH248688   2.928   1.912  13.262 -0.1140 -0.1347 -0.2896
 9066TIP3    H148689   2.991   1.954  13.321  0.1448  1.4650 -1.6083
 9066TIP3    H248690   2.846   1.911  13.310  0.4098 -0.1663  0.6206
 9067TIP3   OH248691   5.245   4.112  11.503 -0.1499  0.0410 -0.1485
 9067TIP3    H148692   5.164   4.149  11.540 -0.9336 -0.2281 -1.5228
 9067TIP3    H248693   5.283   4.184  11.453  0.2446  0.0322  0.1315
 9068TIP3   OH248694   3.309   5.491  15.515 -0.0068  0.2467 -0.2582
 9068TIP3    H148695   3.232   5.508  15.460  0.0332 -1.0988 -0.7524
 9068TIP3    H248696   3.278   5.432  15.583  0.3516  0.5564  0.1841
 9069TIP3   OH248697   0.064   2.049   1.609 -0.4706  0.2759  0.6616
 9069TIP3    H148698  -0.010   2.064   1.667 -1.5002 -0.1332 -0.5130
 9069TIP3    H248699   0.036   1.978   1.551 -0.2855  1.9522 -1.6213
 9070TIP3   OH248700   6.808   5.080  12.079  0.6136 -0.6144 -0.3284
 9070TIP3    H148701   6.890   5.118  12.049  1.1926 -0.0912  1.7504
 9070TIP3    H248702   6.834   5.010  12.138 -0.3982 -0.2374  0.6128
 9071TIP3   OH248703   0.635   5.410  12.544 -0.3478 -0.1095 -0.0993
 9071TIP3    H148704   0.578   5.482  12.516 -0.0286 -0.1154 -0.7802
 9071TIP3    H248705   0.713   5.453  12.578 -0.1007 -0.1343 -0.6311
 9072TIP3   OH248706   4.870   1.063  16.175 -0.4788 -0.0787  0.6034
 9072TIP3    H148707   4.839   1.087  16.088 -0.1702 -0.2592  0.4424
 9072TIP3    H248708   4.812   0.991  16.202 -0.8883  0.3062  0.7539
 9073TIP3   OH248709   2.608   0.407   1.794  0.0144 -0.3146 -0.1989
 9073TIP3    H148710   2.561   0.490   1.781 -0.1430 -0.6015 -1.6927
 9073TIP3    H248711   2.658   0.420   1.874 -1.4274  0.5566  0.6098
 9074TIP3   OH248712   1.468   2.009  17.269 -0.4898 -0.0323 -0.7231
 9074TIP3    H148713   1.476   2.103  17.255  1.1109  0.1213  0.8486
 9074TIP3    H248714   1.558   1.977  17.271 -0.9407 -1.3334  0.3607
 9075TIP3   OH248715   5.955   3.257   5.511  0.2450  0.4536 -0.0826
 9075TIP3    H148716   6.036   3.243   5.560  0.4709  1.7186 -0.0476
 9075TIP3    H248717   5.982   3.253   5.419  0.3905  1.0365 -0.0704
 9076TIP3   OH248718   5.567   4.506   5.927  0.3048 -0.1837  1.0249
 9076TIP3    H148719   5.499   4.566   5.956  0.0343  0.9264 -1.6104
 9076TIP3    H248720   5.624   4.559   5.870 -0.7729 -2.5792 -2.6933
 9077TIP3   OH248721   5.104   4.193   0.772 -0.3763  0.2487  0.3696
 9077TIP3    H148722   5.196   4.175   0.752 -0.4512 -1.4039  1.3978
 9077TIP3    H248723   5.107   4.273   0.825  0.3561  0.7817 -0.4294
 9078TIP3   OH248724   1.661   1.169   3.731  0.1096 -0.2893 -0.1103
 9078TIP3    H148725   1.756   1.181   3.733  0.0815  0.1907 -1.2926
 9078TIP3    H248726   1.630   1.213   3.810  0.6104  2.1116 -1.1836
 9079TIP3   OH248727   3.958   1.795  10.498 -0.2096 -0.0418 -0.3929
 9079TIP3    H148728   3.970   1.887  10.520  1.0120 -0.1005 -0.7924
 9079TIP3    H248729   3.888   1.795  10.433  0.9010  0.7644 -1.6242
 9080TIP3   OH248730   2.936   6.621   0.554 -0.6130  0.1005  0.3144
 9080TIP3    H148731   2.974   6.539   0.583 -0.5800 -0.5635 -1.4861
 9080TIP3    H248732   2.842   6.610   0.568 -0.9418 -1.4205 -2.4525
 9081TIP3   OH248733   5.690   0.880  14.774  0.1826 -0.8614  0.3190
 9081TIP3    H148734   5.631   0.953  14.792  0.8750  0.4418 -2.1693
 9081TIP3    H248735   5.675   0.818  14.845 -3.1016  0.0348  0.5395
 9082TIP3   OH248736   2.381   5.652  10.721 -0.8284  0.3566  0.3584
 9082TIP3    H148737   2.338   5.607  10.793 -0.0011  1.7606  1.7860
 9082TIP3    H248738   2.334   5.623  10.643 -2.7871  0.0180  1.6039
 9083TIP3   OH248739   4.284   2.332  15.097  0.6162  0.4107  0.2270
 9083TIP3    H148740   4.213   2.367  15.150 -0.0091  0.5447 -0.6748
 9083TIP3    H248741   4.297   2.398  15.028  0.5728 -0.3159 -0.4997
 9084TIP3   OH248742   4.944   2.033   0.866 -0.0012 -0.0165  0.4016
 9084TIP3    H148743   4.986   2.099   0.922  0.2798 -0.2354  0.4471
 9084TIP3    H248744   4.956   1.950   0.912  0.6392 -0.2683 -0.2032
 9085TIP3   OH248745   0.049   3.814  11.745 -0.8944 -0.0825  0.3212
 9085TIP3    H148746   0.028   3.726  11.778 -1.1849  0.3869  1.4466
 9085TIP3    H248747   0.124   3.800  11.687  2.0373 -0.6516  3.8255
 9086TIP3   OH248748   4.567   6.610   4.994 -0.6142  0.3382 -0.6529
 9086TIP3    H148749   4.587   6.684   4.936  1.4612 -0.6379 -1.2947
 9086TIP3    H248750   4.516   6.550   4.941  1.1363 -0.4746 -1.5267
 9087TIP3   OH248751   4.053   0.478  16.604 -0.2373 -0.0258 -0.7205
 9087TIP3    H148752   4.107   0.519  16.536  1.1665  0.8933  0.8858
 9087TIP3    H248753   4.094   0.392  16.617 -0.5872 -0.2558 -1.0912
 9088TIP3   OH248754   4.843   5.974   1.032  0.1804  0.5563  0.3604
 9088TIP3    H148755   4.791   6.044   0.993 -0.8071 -0.0579  0.5279
 9088TIP3    H248756   4.851   5.997   1.124  1.9119  1.6489 -0.0234
 9089TIP3   OH248757   2.827   6.624   1.215 -0.5750 -0.1635  0.8745
 9089TIP3    H148758   2.882   6.700   1.234 -0.1468 -0.3935  0.5636
 9089TIP3    H248759   2.745   6.642   1.261 -0.7041  0.7692  0.3289
 9090TIP3   OH248760   0.215   3.973  10.704  0.0068  0.2300 -0.1472
 9090TIP3    H148761   0.188   4.010  10.620  0.0389 -0.7745 -0.6204
 9090TIP3    H248762   0.243   3.884  10.683  0.4923  0.1286  0.8561
 9091TIP3   OH248763   4.465   6.392  12.384 -0.4006  0.6057 -0.1435
 9091TIP3    H148764   4.534   6.341  12.340  1.3136  1.4086  1.4673
 9091TIP3    H248765   4.433   6.334  12.453 -0.9758  0.4316 -0.5524
 9092TIP3   OH248766   3.849   4.884   0.441  0.2099 -0.2133 -0.3781
 9092TIP3    H148767   3.924   4.833   0.471 -0.0060 -0.1925  0.2120
 9092TIP3    H248768   3.777   4.856   0.497  0.4215  1.8472  1.0502
 9093TIP3   OH248769   6.091   5.431   2.722  0.0718 -0.8147  0.0745
 9093TIP3    H148770   6.132   5.444   2.637  0.2531 -1.4442  0.0590
 9093TIP3    H248771   6.053   5.516   2.744  0.6869 -0.4414 -0.2813
 9094TIP3   OH248772   3.495   1.800  17.048  0.3815 -0.0281  0.5345
 9094TIP3    H148773   3.436   1.739  17.091 -0.0502 -1.4259 -1.8431
 9094TIP3    H248774   3.438   1.859  16.999  0.8367 -1.2822 -1.6422
 9095TIP3   OH248775   2.521   3.818  15.283  0.4481 -0.1040 -0.6206
 9095TIP3    H148776   2.471   3.836  15.362  0.5592 -0.3195 -0.5013
 9095TIP3    H248777   2.601   3.869  15.293  0.6892 -0.5293 -0.3590
 9096TIP3   OH248778   1.559   0.509   5.597 -0.6301  0.0410 -0.3846
 9096TIP3    H148779   1.557   0.421   5.634 -2.8182  1.9077  4.9611
 9096TIP3    H248780   1.467   0.530   5.581 -0.2659  1.6369 -0.5762
 9097TIP3   OH248781   4.916   3.400   3.410  0.1946 -0.0237  0.2680
 9097TIP3    H148782   4.958   3.348   3.478  0.1491 -1.8335 -1.0318
 9097TIP3    H248783   4.982   3.410   3.342 -0.3503  0.1680 -0.2427
 9098TIP3   OH248784   6.558   1.594   3.231 -0.2015  0.2594  0.6053
 9098TIP3    H148785   6.650   1.603   3.205 -0.5202 -1.4421 -1.4353
 9098TIP3    H248786   6.511   1.584   3.148 -2.6327  3.4442  1.4235
 9099TIP3   OH248787   1.870   2.364  12.823 -0.2869 -0.2640 -0.7828
 9099TIP3    H148788   1.922   2.347  12.901 -0.1142  0.5878 -0.7106
 9099TIP3    H248789   1.885   2.288  12.767  1.0047 -0.0473 -0.7448
 9100TIP3   OH248790   3.032   4.141   2.939 -0.3589  0.0872  0.1138
 9100TIP3    H148791   3.083   4.220   2.921 -0.9606  0.3679 -0.3700
 9100TIP3    H248792   2.944   4.172   2.957 -0.7677 -0.5125 -0.7790
 9101TIP3   OH248793   5.998   1.831   4.154  0.8120  0.3402 -0.3387
 9101TIP3    H148794   5.914   1.786   4.164  0.4365  1.2471  0.9045
 9101TIP3    H248795   5.994   1.871   4.067  0.5472 -0.7887 -0.8555
 9102TIP3   OH248796   0.484   4.293   2.222  0.1289 -0.7348 -0.3915
 9102TIP3    H148797   0.455   4.210   2.183 -0.7852  0.0005 -1.3258
 9102TIP3    H248798   0.409   4.351   2.213  1.4113  0.8158 -1.5983
 9103TIP3   OH248799   4.380   5.421  14.562  0.4651 -0.3951  0.2796
 9103TIP3    H148800   4.359   5.399  14.472  1.0667 -0.1167  0.0621
 9103TIP3    H248801   4.378   5.337  14.608 -0.5298 -0.4443  0.1595
 9104TIP3   OH248802   0.856   4.392  12.154 -0.0849 -0.0448 -0.7423
 9104TIP3    H148803   0.884   4.483  12.144  0.2847 -0.0943 -0.1677
 9104TIP3    H248804   0.855   4.358  12.064 -0.6830  0.6536 -1.0105
 9105TIP3   OH248805   1.038   5.515  14.117 -0.2089  0.4353 -0.0634
 9105TIP3    H148806   0.977   5.458  14.071 -0.4895  0.6150  0.0837
 9105TIP3    H248807   1.077   5.569  14.048 -0.7991  0.8650 -0.0683
 9106TIP3   OH248808   1.022   1.993  12.351 -0.0176  0.1974 -0.3418
 9106TIP3    H148809   1.039   2.016  12.442 -1.2914  0.6212 -0.1927
 9106TIP3    H248810   1.077   1.917  12.334  0.1060  0.0166  0.8327
 9107TIP3   OH248811   3.633   5.343   3.219 -0.3233 -0.0866  0.1072
 9107TIP3    H148812   3.659   5.290   3.144 -0.8088  0.8577 -0.7531
 9107TIP3    H248813   3.714   5.384   3.250 -0.2128 -0.0004 -0.2945
 9108TIP3   OH248814   6.714   5.439  16.168  0.0553 -0.5797 -0.2399
 9108TIP3    H148815   6.702   5.356  16.123 -0.4191 -1.2833  1.1399
 9108TIP3    H248816   6.627   5.461  16.202  0.4530 -0.2213  0.5730
 9109TIP3   OH248817   2.927   4.726   6.236  0.6460  0.6366 -0.3873
 9109TIP3    H148818   2.961   4.815   6.241  0.0805  0.7817  1.7620
 9109TIP3    H248819   2.992   4.679   6.182  0.8332  2.3500 -1.7562
 9110TIP3   OH248820   5.029   3.897  15.660 -0.0602  0.2489  0.3233
 9110TIP3    H148821   4.955   3.937  15.706 -1.5525 -0.4504 -1.3627
 9110TIP3    H248822   5.077   3.971  15.623 -0.0884  0.6914  1.1429
 9111TIP3   OH248823   1.290   1.631  13.455 -0.1696  0.1485 -0.1120
 9111TIP3    H148824   1.354   1.561  13.440 -0.8253 -0.5410  0.2405
 9111TIP3    H248825   1.322   1.704  13.402  1.6573  0.2845  1.0873
 9112TIP3   OH248826   4.977   6.495   3.404  0.1777 -0.0406  0.0364
 9112TIP3    H148827   4.907   6.560   3.396 -0.1032 -0.0642  1.8404
 9112TIP3    H248828   4.960   6.432   3.334 -0.7162  0.7632 -0.4873
 9113TIP3   OH248829   4.011   0.135  15.305  0.2174  0.1184  0.0470
 9113TIP3    H148830   3.926   0.180  15.309  0.7039  1.1471 -0.6729
 9113TIP3    H248831   3.996   0.052  15.351 -1.4062 -0.1072 -0.7951
 9114TIP3   OH248832   6.674   5.128   1.988  0.6060 -0.3514 -1.0663
 9114TIP3    H148833   6.674   5.175   1.905  1.6257  0.5903 -0.5564
 9114TIP3    H248834   6.624   5.184   2.047  3.5682  1.2421  0.1122
 9115TIP3   OH248835   5.898   5.458  14.862  0.5907  0.3576  0.0261
 9115TIP3    H148836   5.830   5.514  14.825 -0.9670 -2.4199 -1.7842
 9115TIP3    H248837   5.971   5.516  14.880 -1.6886  3.2651  0.6114
 9116TIP3   OH248838   0.901   1.194   1.272  0.8347 -1.0860 -0.3917
 9116TIP3    H148839   0.843   1.138   1.323 -0.6938  1.4702  0.9051
 9116TIP3    H248840   0.842   1.254   1.225  2.3626  0.6985 -0.1631
 9117TIP3   OH248841   3.159   5.265   6.747  0.1318  0.6239 -0.2082
 9117TIP3    H148842   3.188   5.356   6.753 -1.6282  1.2328 -0.3678
 9117TIP3    H248843   3.164   5.244   6.654 -2.5997  1.7139 -0.6897
 9118TIP3   OH248844   1.650   5.172  13.856  0.4809 -0.6521  0.6176
 9118TIP3    H148845   1.722   5.201  13.800 -0.7106 -0.4666 -0.8926
 9118TIP3    H248846   1.669   5.080  13.875  0.6330 -0.8774 -0.5761
 9119TIP3   OH248847   5.900   4.276   4.310 -0.5695  0.3184  0.4929
 9119TIP3    H148848   5.806   4.257   4.318 -0.4925 -1.5270 -1.9160
 9119TIP3    H248849   5.905   4.371   4.323 -2.7231  0.4336  0.9617
 9120TIP3   OH248850   5.965   4.995  10.958  0.2958  0.3308  0.2155
 9120TIP3    H148851   6.036   5.045  10.918 -0.6941  0.0126 -2.1337
 9120TIP3    H248852   5.976   4.906  10.924 -0.4490 -0.0464  0.9027
 9121TIP3   OH248853   5.843   4.353   1.150  0.5606 -0.0026  0.1994
 9121TIP3    H148854   5.937   4.346   1.134  0.2918  1.4434 -2.6617
 9121TIP3    H248855   5.809   4.265   1.133  1.1335  0.0445 -1.4006
 9122TIP3   OH248856   0.940   3.199  13.729  0.5115 -0.4943 -0.0317
 9122TIP3    H148857   0.860   3.230  13.687  0.8943 -1.0842 -1.2299
 9122TIP3    H248858   0.912   3.173  13.817 -0.4867 -0.1281 -0.2278
 9123TIP3   OH248859   3.458   5.510   2.261 -0.6699  0.6691  0.0249
 9123TIP3    H148860   3.411   5.428   2.248 -0.6353  0.6254  0.1764
 9123TIP3    H248861   3.436   5.562   2.183 -2.0793  1.1739  0.7242
 9124TIP3   OH248862   2.261   6.504   3.355  0.3560  0.3617  0.2560
 9124TIP3    H148863   2.198   6.521   3.286  0.3373  2.5698  0.7456
 9124TIP3    H248864   2.222   6.542   3.434  2.0756  1.4428  0.6478
 9125TIP3   OH248865   2.710   0.267   0.498  0.1542 -0.3040 -0.0401
 9125TIP3    H148866   2.795   0.289   0.537  0.1907 -1.8832  0.8542
 9125TIP3    H248867   2.720   0.176   0.469 -0.5752  0.1443 -1.8554
 9126TIP3   OH248868   1.857   3.933   4.227  0.1558  0.1944  0.3995
 9126TIP3    H148869   1.852   3.875   4.303  0.5303  1.2419  1.2348
 9126TIP3    H248870   1.924   3.997   4.250  1.1557 -0.1689 -1.3146
 9127TIP3   OH248871   0.073   0.807  12.228  0.2862 -0.3116  0.1091
 9127TIP3    H148872   0.085   0.754  12.149 -0.8883 -1.1068  0.4491
 9127TIP3    H248873   0.026   0.750  12.288 -0.1891  0.8163  0.8283
 9128TIP3   OH248874   3.489   6.115  11.667  0.5254  0.2953  0.2446
 9128TIP3    H148875   3.453   6.026  11.665 -0.8916  0.7974  1.4385
 9128TIP3    H248876   3.580   6.103  11.691  0.9170 -0.9501 -1.6240
 9129TIP3   OH248877   3.813   4.354   2.002 -0.2702 -0.0917  0.3408
 9129TIP3    H148878   3.775   4.439   1.981 -0.2425 -0.6166 -2.1286
 9129TIP3    H248879   3.741   4.292   1.986  0.5936 -0.7858 -1.0114
 9130TIP3   OH248880   1.712   0.751  12.860  0.8572  0.6346  0.1162
 9130TIP3    H148881   1.753   0.744  12.774  0.1329 -0.3241 -0.1763
 9130TIP3    H248882   1.656   0.829  12.854 -0.3110 -0.2340 -0.8081
 9131TIP3   OH248883   5.668   5.851  16.588 -0.0051 -0.4124 -0.3058
 9131TIP3    H148884   5.595   5.809  16.542  1.1112 -0.8715 -1.7695
 9131TIP3    H248885   5.701   5.916  16.526 -0.1771  0.9660  0.9857
 9132TIP3   OH248886   4.774   3.936  15.034  0.0246  0.0943 -0.0966
 9132TIP3    H148887   4.736   4.024  15.033  0.1713  0.1554 -0.2877
 9132TIP3    H248888   4.822   3.930  14.952  1.4359  0.4576  0.6722
 9133TIP3   OH248889   2.773   6.546   5.086  0.4207 -0.7704 -0.4606
 9133TIP3    H148890   2.847   6.556   5.026  0.8133 -0.4685  0.0666
 9133TIP3    H248891   2.701   6.593   5.043  0.4062 -1.4279 -1.1773
 9134TIP3   OH248892   6.407   1.177  13.093 -0.1136  0.4316 -0.2413
 9134TIP3    H148893   6.452   1.155  13.012  2.1355 -0.5123  1.1670
 9134TIP3    H248894   6.427   1.270  13.108  1.6698 -0.0313  0.4842
 9135TIP3   OH248895   6.460   2.661  12.376 -0.2349 -0.0405  0.0811
 9135TIP3    H148896   6.416   2.718  12.439  1.3556 -0.0328  1.2604
 9135TIP3    H248897   6.538   2.629  12.423  0.6618 -0.5638 -1.6640
 9136TIP3   OH248898   3.659   1.502  16.378  0.1848 -0.3853 -0.1390
 9136TIP3    H148899   3.693   1.480  16.292 -1.9691  0.4425 -1.2633
 9136TIP3    H248900   3.564   1.509  16.367 -0.0471  1.0806  1.9732
 9137TIP3   OH248901   5.882   4.382  14.775  0.6695 -0.4849  0.4615
 9137TIP3    H148902   5.872   4.358  14.867 -0.6260  0.8195  0.7000
 9137TIP3    H248903   5.929   4.308  14.735 -0.0489 -1.7280  1.8501
 9138TIP3   OH248904   0.570   2.721   4.785  0.5033  0.8848  0.0080
 9138TIP3    H148905   0.565   2.761   4.872  1.3574  0.4877  0.2523
 9138TIP3    H248906   0.656   2.745   4.753  0.2301  0.9412 -0.7015
 9139TIP3   OH248907   4.488   3.760  10.902 -0.1013  0.0843  0.5038
 9139TIP3    H148908   4.424   3.829  10.887  0.3882  0.3480 -0.4472
 9139TIP3    H248909   4.509   3.767  10.995 -0.3190  0.9964  0.4922
 9140TIP3   OH248910   5.618   0.093   0.340  0.3733  0.4914  0.4720
 9140TIP3    H148911   5.630   0.183   0.371  2.8255  0.1335  0.7941
 9140TIP3    H248912   5.613   0.100   0.245 -0.1555  1.0181  0.5345
 9141TIP3   OH248913   5.939   5.127  11.524 -0.1820  0.0592  0.7949
 9141TIP3    H148914   5.879   5.183  11.573 -1.2017 -0.1348 -0.2217
 9141TIP3    H248915   5.994   5.086  11.592 -0.8045  0.6799  1.6864
 9142TIP3   OH248916   0.586   1.843  15.180 -0.3102 -0.2372 -0.0617
 9142TIP3    H148917   0.671   1.865  15.142  0.7192 -0.8541  1.7456
 9142TIP3    H248918   0.547   1.781  15.118  2.4758 -3.3759  0.9856
 9143TIP3   OH248919   1.362   1.383  15.738  0.8899 -0.0971  0.3192
 9143TIP3    H148920   1.390   1.434  15.661  2.5600 -1.4245 -0.0161
 9143TIP3    H248921   1.266   1.382  15.732  0.9731 -0.5462 -2.0329
 9144TIP3   OH248922   1.569   2.519   2.516  0.0188  0.5527  0.0844
 9144TIP3    H148923   1.650   2.564   2.538 -0.6647  1.4153  0.8940
 9144TIP3    H248924   1.527   2.575   2.451 -0.2895  0.4853  0.2240
 9145TIP3   OH248925   6.744   4.944   5.180  0.6561 -0.2918 -1.0152
 9145TIP3    H148926   6.727   4.850   5.171  0.3268 -0.2477 -0.8599
 9145TIP3    H248927   6.741   4.961   5.274  1.1433 -0.2033 -1.0135
 9146TIP3   OH248928   0.763   4.245  15.304  0.1102  0.5208 -0.2028
 9146TIP3    H148929   0.763   4.160  15.260 -1.1436 -0.2028  1.1068
 9146TIP3    H248930   0.846   4.248  15.351 -0.3369 -0.5272  0.6974
 9147TIP3   OH248931   0.700   5.560   1.182  0.2212  0.4911 -0.4166
 9147TIP3    H148932   0.622   5.602   1.218  0.5289 -0.8343  2.0280
 9147TIP3    H248933   0.773   5.600   1.230  0.7634 -0.4765 -0.3967
 9148TIP3   OH248934   0.782   6.594  16.536  0.5366 -0.1639 -0.4461
 9148TIP3    H148935   0.854   6.605  16.474  1.1613 -2.3339 -0.1888
 9148TIP3    H248936   0.823   6.560  16.615 -0.8177 -2.4464 -0.6348
 9149TIP3   OH248937   4.437   0.650  12.469 -0.4869 -0.2723  0.1671
 9149TIP3    H148938   4.373   0.615  12.531 -1.3732 -1.2334 -1.2106
 9149TIP3    H248939   4.400   0.734  12.441 -0.0654  0.1812  0.9502
 9150TIP3   OH248940   4.522   6.629  12.240  0.2538  0.1841 -0.2004
 9150TIP3    H148941   4.490   6.549  12.280  0.7748 -0.8850 -1.8232
 9150TIP3    H248942   4.545   6.604  12.150  0.7703  2.0635 -0.6430
 9151TIP3   OH248943   2.578   4.478   3.797 -0.5334  0.4855  0.0703
 9151TIP3    H148944   2.618   4.539   3.735 -0.6569  1.8989  1.3152
 9151TIP3    H248945   2.497   4.450   3.754  0.5249 -0.4570 -1.3974
 9152TIP3   OH248946   1.945   3.965  16.815 -0.0094 -0.1487 -0.1749
 9152TIP3    H148947   1.913   4.031  16.754  0.0956  0.0949  0.0297
 9152TIP3    H248948   2.010   3.916  16.766 -0.3218 -0.3131 -0.4319
 9153TIP3   OH248949   2.459   3.874  17.020 -0.5377  0.7802 -0.3532
 9153TIP3    H148950   2.373   3.867  17.062 -0.5356  1.2834 -0.2592
 9153TIP3    H248951   2.502   3.791  17.039  0.0340  1.5176  1.9032
 9154TIP3   OH248952   5.347   4.659  12.181 -0.1244 -0.0004 -0.1047
 9154TIP3    H148953   5.269   4.689  12.228 -0.7428 -0.2836 -0.9379
 9154TIP3    H248954   5.363   4.728  12.116 -0.7113 -0.7764 -1.0853
 9155TIP3   OH248955   3.418   5.025  16.876  0.2488  0.1312  0.1968
 9155TIP3    H148956   3.510   5.037  16.850  0.0095  1.0916 -0.2159
 9155TIP3    H248957   3.369   5.036  16.795 -0.2562 -0.2253  0.4490
 9156TIP3   OH248958   0.100   6.575   4.175  1.2731  0.1761 -0.2656
 9156TIP3    H148959   0.044   6.614   4.242 -2.6978 -3.0329 -1.2844
 9156TIP3    H248960   0.145   6.503   4.220  0.0687 -0.7836 -0.5279
 9157TIP3   OH248961   4.824   6.093   0.404  0.3268 -0.2572  0.1207
 9157TIP3    H148962   4.757   6.084   0.471 -0.2696 -0.8842 -0.5427
 9157TIP3    H248963   4.906   6.105   0.453 -0.3237  1.1569  0.9329
 9158TIP3   OH248964   5.609   1.114   1.547  0.2876 -0.0926  0.1488
 9158TIP3    H148965   5.554   1.122   1.469  0.7084  1.5484 -0.0060
 9158TIP3    H248966   5.628   1.020   1.552 -1.1994 -0.4752 -0.6897
 9159TIP3   OH248967   6.230   2.580  12.586 -0.3288  0.1165 -0.1265
 9159TIP3    H148968   6.270   2.509  12.536 -1.8411 -0.1548 -1.0302
 9159TIP3    H248969   6.284   2.656  12.567  0.6223 -0.5386 -0.1012
 9160TIP3   OH248970   5.858   5.649  13.169  0.0961  0.2970 -0.1757
 9160TIP3    H148971   5.874   5.629  13.077 -0.0288  2.4390 -0.7166
 9160TIP3    H248972   5.763   5.659  13.175  0.0494 -0.3361  0.3236
 9161TIP3   OH248973   4.540   1.938   4.991 -0.0069  0.4247 -0.6523
 9161TIP3    H148974   4.595   1.886   4.932  2.8266  2.5371 -0.0812
 9161TIP3    H248975   4.584   1.931   5.076 -0.3701  2.4714 -0.2500
 9162TIP3   OH248976   1.394   0.896  14.406 -0.0728 -0.3102 -0.1011
 9162TIP3    H148977   1.468   0.940  14.363  0.3926  1.0606  1.9776
 9162TIP3    H248978   1.317   0.947  14.379 -0.4120 -1.9170 -2.5137
 9163TIP3   OH248979   3.576   3.216   1.205 -0.0301  0.7203  0.8756
 9163TIP3    H148980   3.630   3.262   1.140 -1.5956 -1.6596 -2.3850
 9163TIP3    H248981   3.628   3.140   1.230 -0.9190 -0.4348 -0.6479
 9164TIP3   OH248982   6.278   1.465  11.709 -0.0371 -0.0695 -0.5079
 9164TIP3    H148983   6.368   1.495  11.698  0.3470 -0.2783  1.6045
 9164TIP3    H248984   6.276   1.378  11.668  0.3285  0.5024 -1.7683
 9165TIP3   OH248985   1.671   2.876  12.484 -0.1444  0.3734 -0.0697
 9165TIP3    H148986   1.631   2.956  12.516 -2.4609 -0.2980 -1.0743
 9165TIP3    H248987   1.601   2.811  12.487  1.5336 -1.5367  0.3043
 9166TIP3   OH248988   5.467   2.018  14.660 -0.4923  0.4941  0.3110
 9166TIP3    H148989   5.429   2.098  14.623  0.8749  0.7622 -0.5883
 9166TIP3    H248990   5.459   2.029  14.755 -1.0270  1.3474  0.1726
 9167TIP3   OH248991   1.459   2.533   0.516  0.3488  0.3397  0.4727
 9167TIP3    H148992   1.406   2.456   0.536  0.3959 -0.0416 -0.7634
 9167TIP3    H248993   1.506   2.552   0.598 -2.1494  1.1252  1.8223
 9168TIP3   OH248994   1.492   4.832  12.734 -0.2911 -0.1615 -0.0894
 9168TIP3    H148995   1.468   4.880  12.655 -2.2561 -1.7911 -0.5714
 9168TIP3    H248996   1.417   4.842  12.793 -1.5339 -3.7274 -0.8165
 9169TIP3   OH248997   1.326   4.115  12.893  0.2323 -0.4713  0.1357
 9169TIP3    H148998   1.276   4.157  12.823 -1.3895  1.0296  2.0733
 9169TIP3    H248999   1.276   4.132  12.972  2.2814 -1.5806  1.7798
 9170TIP3   OH249000   0.390   4.739   3.719  0.4015  0.7289  0.2123
 9170TIP3    H149001   0.407   4.808   3.783 -0.3576  0.0013  1.2354
 9170TIP3    H249002   0.389   4.784   3.635 -1.4147  2.2461  0.9672
 9171TIP3   OH249003   1.221   2.894  17.181 -0.3447 -0.2856  0.3051
 9171TIP3    H149004   1.309   2.916  17.153 -0.3822 -1.2331 -0.6109
 9171TIP3    H249005   1.194   2.823  17.123 -0.7070 -1.8512  2.2802
 9172TIP3   OH249006   5.534   3.897   5.729 -0.3046  0.6046 -0.5142
 9172TIP3    H149007   5.516   3.804   5.714 -2.1060  0.7885  0.2314
 9172TIP3    H249008   5.489   3.943   5.658 -1.5453  0.9916  0.4662
 9173TIP3   OH249009   3.887   2.791   4.337  0.1318 -0.9514  0.6232
 9173TIP3    H149010   3.873   2.754   4.425 -0.6317 -1.7497  0.1879
 9173TIP3    H249011   3.813   2.757   4.286  1.0237 -1.1834 -0.5426
 9174TIP3   OH249012   4.840   1.424   3.404  0.8401  0.2059  0.3511
 9174TIP3    H149013   4.838   1.398   3.496 -1.1735  2.1533  0.9474
 9174TIP3    H249014   4.818   1.517   3.405 -2.4952 -0.3479 -2.2456
 9175TIP3   OH249015   2.528   4.478  13.613  0.2662  0.1962 -0.4785
 9175TIP3    H149016   2.540   4.529  13.533 -1.3466 -1.9152 -2.1833
 9175TIP3    H249017   2.539   4.387  13.586  1.0366 -0.5484  2.0294
 9176TIP3   OH249018   0.688   3.363  16.453  0.0488 -0.3623  0.0934
 9176TIP3    H149019   0.602   3.388  16.421  0.0256 -0.5479  0.0065
 9176TIP3    H249020   0.733   3.331  16.374  0.4221  0.3384  0.0070
 9177TIP3   OH249021   3.683   0.643  12.214 -0.6648  0.9063 -0.0387
 9177TIP3    H149022   3.645   0.559  12.189  2.1449 -0.2175 -0.9213
 9177TIP3    H249023   3.653   0.657  12.304  1.2507 -2.6986  1.3554
 9178TIP3   OH249024   0.863   5.954   4.014  0.3895 -0.1622  0.6123
 9178TIP3    H149025   0.820   6.039   4.001 -0.3508 -0.6098  0.0983
 9178TIP3    H249026   0.955   5.977   4.028  0.2697  0.7033  0.0871
 9179TIP3   OH249027   1.655   2.570  13.037 -0.3171  0.2586 -0.1996
 9179TIP3    H149028   1.574   2.536  12.998  0.0727 -0.5959 -0.2954
 9179TIP3    H249029   1.722   2.551  12.971  0.2849 -0.8306  0.6955
 9180TIP3   OH249030   1.765   1.737  11.772 -0.5537 -0.5602 -0.5074
 9180TIP3    H149031   1.835   1.802  11.767 -1.5430  0.5203 -0.7777
 9180TIP3    H249032   1.780   1.692  11.855  0.8727 -0.8570 -0.8970
 9181TIP3   OH249033   5.109   6.728   5.603 -0.6587  0.4216  0.1180
 9181TIP3    H149034   5.052   6.715   5.527  1.1926 -0.1821 -1.2510
 9181TIP3    H249035   5.179   6.784   5.571  1.1735 -1.3545  0.8101
 9182TIP3   OH249036   0.187   3.196  14.022  0.5031 -0.5149  0.0925
 9182TIP3    H149037   0.197   3.276  13.970  0.7603 -0.8406 -0.3688
 9182TIP3    H249038   0.145   3.225  14.103 -0.7746 -0.1467 -0.6912
 9183TIP3   OH249039   3.880   3.197  17.295  0.4364  0.4848 -0.2937
 9183TIP3    H149040   3.936   3.250  17.352  0.4058  1.0701 -0.8058
 9183TIP3    H249041   3.797   3.192  17.342  1.0898 -0.9587  0.8025
 9184TIP3   OH249042   0.935   5.323   2.517 -0.1593  0.9279 -0.7364
 9184TIP3    H149043   0.916   5.273   2.597 -0.1182  0.6457 -0.9017
 9184TIP3    H249044   0.859   5.311   2.462  0.1353  0.4864 -1.0538
 9185TIP3   OH249045   0.887   2.620  15.903 -0.5766 -0.0341 -0.5102
 9185TIP3    H149046   0.872   2.714  15.905  0.1172  0.0677  0.3702
 9185TIP3    H249047   0.918   2.598  15.991  3.3644 -0.3514 -1.7565
 9186TIP3   OH249048   5.250   5.410  11.385  0.6006 -0.3726 -0.3946
 9186TIP3    H149049   5.169   5.360  11.374  0.3440  0.0620 -0.5095
 9186TIP3    H249050   5.273   5.437  11.296  0.0469  0.7788 -0.2076
 9187TIP3   OH249051   3.661   1.710   4.070 -0.1219 -0.8833 -0.1385
 9187TIP3    H149052   3.581   1.663   4.048 -0.6328 -0.4671  0.7691
 9187TIP3    H249053   3.631   1.799   4.088  0.5194 -0.7767  0.4101
 9188TIP3   OH249054   1.929   4.971  16.499  0.2944 -0.0621 -0.2875
 9188TIP3    H149055   1.952   5.040  16.436  1.6809 -0.4344 -0.2359
 9188TIP3    H249056   1.941   4.890  16.450 -1.1765 -0.2933 -0.2985
 9189TIP3   OH249057   3.553   6.437  16.750 -0.6202 -0.1691 -0.0008
 9189TIP3    H149058   3.574   6.432  16.657  0.7564  0.7321  0.2204
 9189TIP3    H249059   3.573   6.350  16.784  0.2427 -0.1108 -0.3170
 9190TIP3   OH249060   3.243   3.910  12.747 -0.3186  0.2729 -0.0516
 9190TIP3    H149061   3.296   3.848  12.698 -1.2447  0.3446 -1.1906
 9190TIP3    H249062   3.165   3.922  12.693 -1.5640  0.0621  1.6174
 9191TIP3   OH249063   2.673   0.794  14.132  0.4911 -0.1243 -0.0948
 9191TIP3    H149064   2.746   0.772  14.074  1.1733 -1.5910  1.2575
 9191TIP3    H249065   2.595   0.770  14.083  0.9924 -0.2665 -0.8415
 9192TIP3   OH249066   5.550   5.657  15.907  0.3737 -0.0734 -0.1585
 9192TIP3    H149067   5.483   5.725  15.903 -3.1730 -2.9417  2.4607
 9192TIP3    H249068   5.596   5.673  15.989  1.8002  0.8756 -1.0995
 9193TIP3   OH249069   4.812   2.349  11.453 -0.3608  0.1211  0.4791
 9193TIP3    H149070   4.900   2.383  11.440 -0.2391  0.4833  2.0084
 9193TIP3    H249071   4.794   2.296  11.375  1.0284  0.3913 -0.0482
 9194TIP3   OH249072   1.336   5.485   2.091 -0.0844  0.2732  0.1591
 9194TIP3    H149073   1.277   5.456   2.161 -1.5501  1.0499 -0.7157
 9194TIP3    H249074   1.279   5.529   2.028  1.5950  2.2518 -0.0899
 9195TIP3   OH249075   1.073   0.244  16.798 -0.3437 -0.0324 -0.1841
 9195TIP3    H149076   0.991   0.202  16.824 -0.5651  0.3089 -0.3302
 9195TIP3    H249077   1.047   0.330  16.765  0.2243  0.9215  1.6623
 9196TIP3   OH249078   3.010   1.434  13.936 -0.5330  0.0080 -0.8255
 9196TIP3    H149079   3.026   1.345  13.905 -1.7301 -0.4205 -0.2874
 9196TIP3    H249080   2.982   1.482  13.858 -0.1609 -0.1577 -1.0644
 9197TIP3   OH249081   6.258   2.811  14.564  0.4383 -0.0543 -0.0860
 9197TIP3    H149082   6.229   2.723  14.541 -1.5512 -0.4099  3.0957
 9197TIP3    H249083   6.342   2.799  14.607  0.7374 -0.2583 -0.7303
 9198TIP3   OH249084   0.794   4.088  13.846  0.3158  0.1250  0.3642
 9198TIP3    H149085   0.704   4.103  13.818  0.7159 -0.1763 -1.1489
 9198TIP3    H249086   0.847   4.107  13.769  1.5399  0.0792  1.1656
 9199TIP3   OH249087   5.393   0.337  16.933  0.0375 -0.1640 -0.5570
 9199TIP3    H149088   5.431   0.250  16.919 -1.6660 -0.7515 -1.9651
 9199TIP3    H249089   5.313   0.319  16.983  0.4705  0.7917  0.5075
 9200TIP3   OH249090   6.764   6.178  15.107  0.0831  0.4081  0.0875
 9200TIP3    H149091   6.681   6.130  15.105  0.3613 -0.2263  1.9949
 9200TIP3    H249092   6.812   6.147  15.031  0.2192 -2.3569  1.1973
 9201TIP3   OH249093   4.048   0.967  14.507  0.1262  0.0439  0.1162
 9201TIP3    H149094   4.069   1.056  14.477  0.4735  0.4446  1.4786
 9201TIP3    H249095   3.953   0.962  14.499  0.1340  0.4244 -0.2765
 9202TIP3   OH249096   5.070   2.362   1.412 -0.5054 -0.4727 -0.2052
 9202TIP3    H149097   5.016   2.328   1.484 -0.6986 -1.7681 -0.9389
 9202TIP3    H249098   5.008   2.412   1.359 -0.0285  2.0250  1.4124
 9203TIP3   OH249099   2.573   2.722   4.677  0.2677 -0.4598 -0.2044
 9203TIP3    H149100   2.621   2.697   4.756  0.3494  0.7643  0.1607
 9203TIP3    H249101   2.502   2.778   4.709  0.4113  0.2019 -1.0156
 9204TIP3   OH249102   2.809   4.289   5.806  0.6742 -0.2868 -0.4260
 9204TIP3    H149103   2.904   4.282   5.813  0.6471 -0.4433 -0.2103
 9204TIP3    H249104   2.775   4.219   5.863  0.4108  0.8430  0.8643
 9205TIP3   OH249105   1.503   1.764  15.837 -0.6142  0.3587 -0.4301
 9205TIP3    H149106   1.423   1.806  15.869  0.3128  1.1456  0.9355
 9205TIP3    H249107   1.563   1.767  15.911  0.9576  0.4870 -1.6680
 9206TIP3   OH249108   4.963   3.876   5.768 -0.3057  0.3185 -0.0485
 9206TIP3    H149109   4.898   3.856   5.702 -0.5866 -0.7351  0.5287
 9206TIP3    H249110   5.003   3.958   5.738 -1.4800  0.6771 -0.7068
 9207TIP3   OH249111   5.092   5.336  16.970 -0.1434  0.4303  0.3979
 9207TIP3    H149112   5.170   5.280  16.977 -0.5620 -0.9955 -3.4749
 9207TIP3    H249113   5.110   5.393  16.896 -2.8010 -0.1254 -0.8161
 9208TIP3   OH249114   0.513   4.337   2.520  0.0664  0.3189 -0.1732
 9208TIP3    H149115   0.434   4.304   2.477  0.8345 -0.8110 -0.7795
 9208TIP3    H249116   0.511   4.431   2.503 -0.5556  0.1467 -1.1965
 9209TIP3   OH249117   0.483   6.046   3.538 -0.2533  0.3868 -0.4482
 9209TIP3    H149118   0.413   5.982   3.524 -0.4932 -0.1691  2.4969
 9209TIP3    H249119   0.564   5.996   3.529 -0.3489  0.2781 -0.7135
 9210TIP3   OH249120   6.021   3.160  13.863 -0.0355 -0.0096  0.4324
 9210TIP3    H149121   6.115   3.144  13.863 -0.2890 -1.8068 -1.1304
 9210TIP3    H249122   5.990   3.125  13.946  0.6120  0.3247  0.8240
 9211TIP3   OH249123   0.601   4.580  14.736  0.3011  0.6674  0.0623
 9211TIP3    H149124   0.604   4.619  14.648  2.4488 -0.5310 -0.4772
 9211TIP3    H249125   0.603   4.485  14.720  3.0018  0.4141  1.3421
 9212TIP3   OH249126   2.986   5.988  14.411  0.7939 -0.3026 -0.2527
 9212TIP3    H149127   3.063   6.022  14.364  0.4680  1.3297  0.3401
 9212TIP3    H249128   2.998   5.893  14.410  1.9816 -0.1824 -1.5960
 9213TIP3   OH249129   4.150   0.420  13.508  0.5036 -0.3130  0.3939
 9213TIP3    H149130   4.170   0.443  13.599 -0.8829 -0.8103  0.8444
 9213TIP3    H249131   4.148   0.325  13.508 -2.2590 -0.3122  0.5134
 9214TIP3   OH249132   4.197   3.913  11.933  0.3222  0.0126  0.4092
 9214TIP3    H149133   4.215   3.952  11.847 -0.1166  0.1418  0.3767
 9214TIP3    H249134   4.212   3.984  11.995 -2.2093  0.7851  0.2291
 9215TIP3   OH249135   5.214   1.081   1.894  0.1522  0.6907  0.2745
 9215TIP3    H149136   5.302   1.102   1.926  1.0090 -1.0940 -0.7411
 9215TIP3    H249137   5.207   0.986   1.903 -1.6584  0.7755  0.2195
 9216TIP3   OH249138   1.576   2.091  10.453  0.1348  0.0062 -0.2667
 9216TIP3    H149139   1.544   2.001  10.464  1.1170 -0.3941 -0.5663
 9216TIP3    H249140   1.612   2.093  10.364  0.3583  0.6267 -0.1689
 9217TIP3   OH249141   0.882   0.766  11.816  0.0300 -0.3395 -0.5216
 9217TIP3    H149142   0.854   0.844  11.863  1.6059  0.2451 -0.5068
 9217TIP3    H249143   0.857   0.783  11.725 -2.5692 -1.2611 -0.0679
 9218TIP3   OH249144   4.255   5.666  14.612  0.1740  0.6574 -0.1403
 9218TIP3    H149145   4.304   5.583  14.606 -0.1905  0.3508  0.9441
 9218TIP3    H249146   4.253   5.698  14.522  0.9829 -0.1296 -0.4638
 9219TIP3   OH249147   2.663   0.255  12.815 -0.2355  0.4420 -0.0135
 9219TIP3    H149148   2.602   0.181  12.811 -1.3537  1.3609 -0.3944
 9219TIP3    H249149   2.702   0.259  12.727  1.9251 -1.3590  0.7602
 9220TIP3   OH249150   1.813   2.469  14.527 -0.5526  0.1138 -0.5599
 9220TIP3    H149151   1.795   2.376  14.542 -0.2504  0.2368  0.6466
 9220TIP3    H249152   1.767   2.514  14.598 -1.0705  0.9283 -1.3967
 9221TIP3   OH249153   3.586   1.201   5.933 -0.3130 -0.1297 -0.0353
 9221TIP3    H149154   3.578   1.152   6.015 -0.2171 -0.4568 -0.2236
 9221TIP3    H249155   3.672   1.177   5.898  0.0024  0.6374  0.1747
 9222TIP3   OH249156   2.667   2.005   4.519 -0.1765  0.1427 -0.4986
 9222TIP3    H149157   2.669   2.096   4.548  0.1257  0.0820 -0.3257
 9222TIP3    H249158   2.723   2.003   4.441  1.0088 -0.1813  0.3400
 9223TIP3   OH249159   3.361   3.704  11.958 -0.6196  0.4327 -0.4964
 9223TIP3    H149160   3.313   3.627  11.988 -0.9610  0.7350 -0.2602
 9223TIP3    H249161   3.378   3.755  12.037 -1.9317  1.4646 -0.8348
 9224TIP3   OH249162   5.585   3.186  14.666  0.0932 -0.8067  0.0295
 9224TIP3    H149163   5.621   3.159  14.582  2.5390  0.0872  0.6950
 9224TIP3    H249164   5.656   3.237  14.707 -0.9365 -1.3514  2.6900
 9225TIP3   OH249165   4.329   4.371   5.773 -0.2819 -0.8376 -0.0458
 9225TIP3    H149166   4.404   4.333   5.818 -0.1838  0.6614  1.1398
 9225TIP3    H249167   4.253   4.337   5.821 -0.2596 -0.6988  0.0894
 9226TIP3   OH249168   0.114   1.032   6.315  0.1020  0.3143 -0.5752
 9226TIP3    H149169   0.104   1.125   6.295 -2.9847 -0.2166 -2.0408
 9226TIP3    H249170   0.147   0.993   6.234 -0.5609 -0.1418 -0.6320
 9227TIP3   OH249171   6.324   6.813  13.706 -0.4606 -0.0325  0.4928
 9227TIP3    H149172   6.360   6.875  13.770  0.0569 -1.1135  1.2780
 9227TIP3    H249173   6.385   6.818  13.632  1.3235 -1.7379  1.7508
 9228TIP3   OH249174   5.754   6.508  12.300  0.6583  0.5904 -0.8467
 9228TIP3    H149175   5.666   6.496  12.265  0.1819  3.3073 -0.8076
 9228TIP3    H249176   5.796   6.569  12.239  1.9570  0.5748 -0.0079
 9229TIP3   OH249177   3.060   4.079   0.749 -0.2995 -0.5307 -0.4296
 9229TIP3    H149178   3.058   4.173   0.730 -0.2386 -0.2172  1.0412
 9229TIP3    H249179   3.051   4.073   0.844 -0.1360 -2.0103 -0.4851
 9230TIP3   OH249180   5.287   6.234  14.331  0.3543  0.3602  0.3664
 9230TIP3    H149181   5.212   6.244  14.272  2.2828 -1.8378 -2.7822
 9230TIP3    H249182   5.273   6.149  14.373  0.2125  0.8083  1.2517
 9231TIP3   OH249183   0.080   3.590  14.274 -0.7024  0.8429 -0.5711
 9231TIP3    H149184   0.070   3.496  14.290  0.5752  0.7916  0.0845
 9231TIP3    H249185  -0.001   3.616  14.231 -0.7219 -0.7366 -1.5794
 9232TIP3   OH249186   1.086   0.635  15.089  0.1010  0.0287  0.4397
 9232TIP3    H149187   1.066   0.546  15.118  0.5273 -0.1517  0.1885
 9232TIP3    H249188   1.179   0.632  15.065 -0.0330  0.3840 -0.1414
 9233TIP3   OH249189   4.024   6.618   5.798 -0.3154 -0.2058  0.3750
 9233TIP3    H149190   4.039   6.693   5.741  1.8992 -0.3740  0.6526
 9233TIP3    H249191   4.040   6.650   5.887  1.3034 -1.1082  0.4478
 9234TIP3   OH249192   3.987   4.265   3.408  0.5473  0.0401  0.0364
 9234TIP3    H149193   3.999   4.254   3.503 -0.5127 -0.0329  0.1746
 9234TIP3    H249194   3.894   4.284   3.398  0.5401 -0.5122 -1.0432
 9235TIP3   OH249195   5.631   6.603  13.886 -0.0431  0.1220  0.0078
 9235TIP3    H149196   5.657   6.517  13.853  1.3060  0.4088  0.2610
 9235TIP3    H249197   5.554   6.626  13.834  1.8880  0.4935 -2.9654
 9236TIP3   OH249198   6.712   3.408  15.631  0.0577  0.4229 -0.4532
 9236TIP3    H149199   6.765   3.418  15.552  0.4237  1.5957 -0.0929
 9236TIP3    H249200   6.639   3.469  15.618 -1.7437 -1.8159 -1.3355
 9237TIP3   OH249201   4.245   4.187  16.308  0.5273 -0.2271  0.1723
 9237TIP3    H149202   4.198   4.121  16.359  1.7042 -0.2822  1.2101
 9237TIP3    H249203   4.258   4.260  16.368 -0.0882  0.6724 -0.7449
 9238TIP3   OH249204   4.405   3.483  15.608  0.4159  0.3012 -0.1181
 9238TIP3    H149205   4.351   3.406  15.626 -0.4617  0.3413 -2.3241
 9238TIP3    H249206   4.493   3.458  15.636 -0.4359 -0.2802  2.2232
 9239TIP3   OH249207   6.753   3.206  15.908  0.0946 -0.3875  0.3297
 9239TIP3    H149208   6.806   3.157  15.845 -1.2726 -2.5612  0.7601
 9239TIP3    H249209   6.793   3.293  15.911  1.7649 -1.0207 -1.5689
 9240TIP3   OH249210   5.578   2.053  13.217 -0.6539  0.4933  0.3969
 9240TIP3    H149211   5.496   2.070  13.264 -1.7353  0.0809 -1.2544
 9240TIP3    H249212   5.615   1.977  13.261 -2.6477 -1.1495 -0.5577
 9241TIP3   OH249213   3.350   4.697  11.438 -0.4558 -0.2555  0.0414
 9241TIP3    H149214   3.410   4.689  11.364 -2.6387  1.3975 -2.0845
 9241TIP3    H249215   3.348   4.791  11.458 -3.7404  0.1284 -1.4024
 9242TIP3   OH249216   5.375   5.363  11.782  0.0611  0.1928 -0.0237
 9242TIP3    H149217   5.361   5.387  11.874 -0.4348  0.7946 -0.2493
 9242TIP3    H249218   5.346   5.439  11.733  1.4686  0.3551 -0.6438
 9243TIP3   OH249219   1.820   3.926  16.025 -0.9384 -0.3190 -0.2261
 9243TIP3    H149220   1.729   3.898  16.026 -1.0925  0.1374 -0.8070
 9243TIP3    H249221   1.832   3.965  15.938 -0.5954  0.9263  0.3565
 9244TIP3   OH249222   4.669   6.297   2.963  0.3049  0.0436 -0.4851
 9244TIP3    H149223   4.633   6.323   2.879  1.5234  1.7177 -0.5432
 9244TIP3    H249224   4.597   6.253   3.008 -0.7420  0.2594 -1.8903
 9245TIP3   OH249225   6.015   4.336   0.405 -0.1216 -0.3522  0.3780
 9245TIP3    H149226   5.970   4.375   0.480  0.7505  1.6398 -0.0694
 9245TIP3    H249227   6.039   4.248   0.434  0.5090  0.4742  2.5765
 9246TIP3   OH249228   6.180   4.680   0.031 -0.4627 -0.1827  0.0231
 9246TIP3    H149229   6.228   4.761   0.018 -1.3643  0.3558 -0.0007
 9246TIP3    H249230   6.248   4.614   0.046  0.3362  0.3688 -1.0042
 9247TIP3   OH249231   1.281   1.402   4.928 -0.4171 -0.1701  0.1061
 9247TIP3    H149232   1.358   1.388   4.983 -0.3947  1.8240  0.6811
 9247TIP3    H249233   1.262   1.316   4.891  0.6751 -1.2018  1.7798
 9248TIP3   OH249234   0.517   4.144   4.462 -0.0342  0.1412 -0.1047
 9248TIP3    H149235   0.541   4.132   4.370  0.0604 -0.1226 -0.0465
 9248TIP3    H249236   0.502   4.238   4.471 -0.9187  0.0600 -0.6037
 9249TIP3   OH249237   6.754   3.231  10.547 -0.0238 -0.0052  0.3178
 9249TIP3    H149238   6.825   3.281  10.507 -2.0421  2.0896 -0.9215
 9249TIP3    H249239   6.685   3.230  10.481 -0.8502 -2.7803  1.1058
 9250TIP3   OH249240   1.934   5.508  11.683 -0.1449  0.0098  0.1902
 9250TIP3    H149241   1.934   5.553  11.767 -1.1253  2.7216 -1.1445
 9250TIP3    H249242   2.015   5.535  11.641 -0.6364  0.4100 -0.5356
 9251TIP3   OH249243   5.975   1.983  17.125 -0.4842 -0.3489 -0.3013
 9251TIP3    H149244   5.999   2.020  17.210  1.8970 -1.3079 -0.4646
 9251TIP3    H249245   5.908   2.042  17.090  0.5883  1.7186  0.9751
 9252TIP3   OH249246   1.312   2.578  14.657  0.0085 -0.3815 -0.5127
 9252TIP3    H149247   1.231   2.583  14.605 -0.2896 -0.7132 -0.0853
 9252TIP3    H249248   1.286   2.535  14.738  0.3147  0.7746  0.2192
 9253TIP3   OH249249   1.520   1.816   1.027  0.0919  0.3075 -0.2271
 9253TIP3    H149250   1.552   1.727   1.013  0.8759  0.5343  0.0832
 9253TIP3    H249251   1.426   1.810   1.013  0.3708 -0.1748 -2.1913
 9254TIP3   OH249252   5.980   4.256  15.223  0.4546 -0.3197  0.2085
 9254TIP3    H149253   6.046   4.324  15.208  0.5340 -0.3619  0.3578
 9254TIP3    H249254   5.908   4.278  15.164  1.1600 -1.0262 -0.9626
 9255TIP3   OH249255   0.121   3.025  14.929 -0.3676  0.0318 -0.1287
 9255TIP3    H149256   0.081   3.041  15.015 -1.2343  0.9037 -0.6875
 9255TIP3    H249257   0.206   3.069  14.935  0.6887 -1.9865  1.1220
 9256TIP3   OH249258   2.781   0.752  16.574 -0.9844 -0.2544  0.7591
 9256TIP3    H149259   2.767   0.727  16.482  0.4766 -0.9292  0.6944
 9256TIP3    H249260   2.814   0.842  16.570 -0.4971 -0.4373  0.5858
 9257TIP3   OH249261   5.143   0.957  14.878 -0.4310  0.1087  0.4471
 9257TIP3    H149262   5.211   0.915  14.825 -1.0569  1.2124 -1.3183
 9257TIP3    H249263   5.102   0.885  14.926 -0.6551 -1.1723 -1.5507
 9258TIP3   OH249264   4.481   3.378  16.649 -0.1333 -0.1246 -0.1427
 9258TIP3    H149265   4.438   3.303  16.609 -0.5407  0.4139 -0.7360
 9258TIP3    H249266   4.572   3.374  16.617 -0.3984  0.1700 -0.9516
 9259TIP3   OH249267   6.557   1.849   6.474  0.1559  0.2875  0.4383
 9259TIP3    H149268   6.547   1.802   6.391  1.6198 -1.8070  1.3659
 9259TIP3    H249269   6.468   1.856   6.508 -0.2395 -0.7180 -0.3362
 9260TIP3   OH249270   0.100   0.600  10.815 -0.1812  0.0349 -0.3727
 9260TIP3    H149271   0.099   0.676  10.874  1.1612 -0.1279 -0.1147
 9260TIP3    H249272   0.018   0.554  10.835 -0.1087  0.3943  0.8305
 9261TIP3   OH249273   5.561   4.448   4.392 -0.0883  0.1129  0.1917
 9261TIP3    H149274   5.470   4.431   4.417 -0.4957  0.9471 -0.6561
 9261TIP3    H249275   5.592   4.510   4.458 -0.3205  0.2549  0.1725
 9262TIP3   OH249276   2.445   4.029   3.802  0.1661  0.0697 -0.0087
 9262TIP3    H149277   2.372   3.989   3.849  0.1631  1.5011  1.2750
 9262TIP3    H249278   2.437   3.996   3.712 -0.6671 -1.6095  0.6381
 9263TIP3   OH249279   6.309   5.418  11.398 -0.2813 -0.7118 -0.6688
 9263TIP3    H149280   6.249   5.344  11.409  0.0369 -0.9492 -0.5096
 9263TIP3    H249281   6.317   5.428  11.303 -0.3683 -0.8427 -0.6909
 9264TIP3   OH249282   5.905   1.367  16.907 -0.6590  0.0111 -0.1732
 9264TIP3    H149283   5.819   1.341  16.875 -0.4176 -1.5737  0.4036
 9264TIP3    H249284   5.892   1.455  16.942 -2.4060 -0.7613  1.2518
 9265TIP3   OH249285   5.169   4.512   5.878  0.1691  0.9501  0.0757
 9265TIP3    H149286   5.079   4.481   5.883  0.0094  1.5426  1.4300
 9265TIP3    H249287   5.209   4.485   5.961  0.5585  2.6462  0.4982
 9266TIP3   OH249288   5.717   1.287   0.264 -0.0327  0.7041 -0.0088
 9266TIP3    H149289   5.781   1.301   0.194  0.4229  0.8124  0.4347
 9266TIP3    H249290   5.633   1.307   0.222  0.2765  1.2208 -0.4035
 9267TIP3   OH249291   1.513   4.168   3.724 -0.0907  0.3664  0.2231
 9267TIP3    H149292   1.484   4.219   3.649 -1.1569 -1.4657 -0.6835
 9267TIP3    H249293   1.494   4.077   3.700  0.5135 -0.3610  2.2855
 9268TIP3   OH249294   2.743   1.060  12.480  0.7668 -0.4043  0.2965
 9268TIP3    H149295   2.774   1.087  12.567  0.5561 -2.3936  1.0303
 9268TIP3    H249296   2.648   1.057  12.488  0.7857 -1.3861  0.2631
 9269TIP3   OH249297   5.178   5.353   2.881  0.0537  0.4175 -0.4003
 9269TIP3    H149298   5.273   5.367   2.881  0.2567 -0.7359 -1.8742
 9269TIP3    H249299   5.156   5.339   2.789 -2.0632  3.8218 -0.5907
 9270TIP3   OH249300   0.955   6.373   5.584  0.1666 -0.6359  0.0434
 9270TIP3    H149301   1.034   6.375   5.637  0.8866 -0.4218 -1.0036
 9270TIP3    H249302   0.888   6.412   5.639  0.6256 -1.4334  1.1960
 9271TIP3   OH249303   2.397   3.590   5.208  0.6238 -0.3158 -0.5113
 9271TIP3    H149304   2.493   3.587   5.203  0.8326  2.9355 -0.8780
 9271TIP3    H249305   2.373   3.662   5.149 -2.1159 -1.3335 -0.7548
 9272TIP3   OH249306   2.736   3.108   2.791  0.2640 -0.3442 -0.3147
 9272TIP3    H149307   2.670   3.109   2.860  2.8633 -0.1122  2.3588
 9272TIP3    H249308   2.757   3.016   2.779  0.7202 -0.3084  0.1728
 9273TIP3   OH249309   3.429   1.776  16.345 -0.5585 -0.0083  0.0603
 9273TIP3    H149310   3.438   1.703  16.406  1.6000  0.6909  0.7000
 9273TIP3    H249311   3.369   1.836  16.388 -0.6322 -0.4250  0.5453
 9274TIP3   OH249312   0.507   5.252  16.403  0.8366  0.0617 -0.3576
 9274TIP3    H149313   0.412   5.240  16.400  0.6837 -0.4829  2.9289
 9274TIP3    H249314   0.520   5.345  16.384 -0.3276  0.1453 -0.8323
 9275TIP3   OH249315   2.054   6.810   1.470 -0.1942 -0.0001  0.8621
 9275TIP3    H149316   2.085   6.724   1.497  2.7802 -0.3168 -2.7588
 9275TIP3    H249317   2.110   6.872   1.518  1.8906 -0.3859 -0.9517
 9276TIP3   OH249318   0.525   4.576   5.492 -0.1326  0.2967  0.3855
 9276TIP3    H149319   0.604   4.521   5.490  0.2992  0.9121 -1.7320
 9276TIP3    H249320   0.453   4.515   5.475  0.1680  0.1101 -0.2608
 9277TIP3   OH249321   5.419   2.586  14.008  0.4650 -0.0104 -0.3869
 9277TIP3    H149322   5.386   2.624  13.927  0.2040  0.5161 -0.0402
 9277TIP3    H249323   5.361   2.621  14.076  0.5491 -0.6126 -0.0006
 9278TIP3   OH249324   4.487   2.638   4.516 -0.1194 -0.2350  0.2226
 9278TIP3    H149325   4.432   2.581   4.462  0.3108  0.9766 -1.5958
 9278TIP3    H249326   4.564   2.586   4.537  1.5660  0.3398 -3.6772
 9279TIP3   OH249327   4.053   5.643  14.794  0.0233 -0.0318 -0.1175
 9279TIP3    H149328   4.112   5.651  14.719  1.3790 -2.2846  0.6309
 9279TIP3    H249329   3.970   5.614  14.756  0.6287 -0.9211 -0.7975
 9280TIP3   OH249330   5.335   6.531  15.702  0.2121  0.0191  0.3792
 9280TIP3    H149331   5.424   6.524  15.666  0.5064  1.5195  0.7312
 9280TIP3    H249332   5.340   6.491  15.788  0.5914  0.2466  0.4644
 9281TIP3   OH249333   2.925   0.836  14.995  0.0700  0.4309  0.4966
 9281TIP3    H149334   2.899   0.928  14.992  0.2862  0.4738 -1.6008
 9281TIP3    H249335   2.963   0.819  14.909  0.3119 -1.5517  0.9463
 9282TIP3   OH249336   1.402   5.726   2.229  0.5199 -0.7200 -0.6439
 9282TIP3    H149337   1.478   5.745   2.174  0.4857 -1.2275 -0.8754
 9282TIP3    H249338   1.397   5.630   2.230  1.1599 -0.7679  1.1209
 9283TIP3   OH249339   6.658   0.423  12.607 -0.0548 -0.5463  0.0829
 9283TIP3    H149340   6.629   0.422  12.698 -2.2354  1.1391 -0.5083
 9283TIP3    H249341   6.630   0.339  12.571 -3.7763  0.6513 -0.2198
 9284TIP3   OH249342   3.671   1.464   5.771  0.6711  0.1352  0.0625
 9284TIP3    H149343   3.730   1.537   5.750 -0.4084  1.0845  0.1881
 9284TIP3    H249344   3.607   1.502   5.831  0.6417 -1.1831  0.8928
 9285TIP3   OH249345   2.484   2.177  12.550 -0.0775  0.5317 -0.5729
 9285TIP3    H149346   2.522   2.251  12.596  0.3319 -0.3659  0.5833
 9285TIP3    H249347   2.437   2.216  12.476 -2.0756  2.1860  1.4110
 9286TIP3   OH249348   6.374   2.688  15.807  0.1610 -0.0028 -0.4116
 9286TIP3    H149349   6.469   2.697  15.796  0.0318  1.7707 -0.2882
 9286TIP3    H249350   6.340   2.688  15.717  0.1500  1.1710 -0.4184
 9287TIP3   OH249351   6.514   5.827   1.038 -0.4094  0.5628 -0.0813
 9287TIP3    H149352   6.494   5.906   0.988  1.2798  1.7028  0.9398
 9287TIP3    H249353   6.605   5.806   1.017  0.2522  0.8833  2.1613
 9288TIP3   OH249354   0.299   6.509   4.456 -0.7749 -0.1787 -0.2987
 9288TIP3    H149355   0.232   6.483   4.520 -1.2878 -0.5339 -0.9627
 9288TIP3    H249356   0.276   6.599   4.433  0.0472  0.3257  0.8044
 9289TIP3   OH249357   3.702   1.983   4.648 -0.0921  0.1773  0.0275
 9289TIP3    H149358   3.614   1.954   4.622  0.0663 -0.1565 -0.1465
 9289TIP3    H249359   3.696   1.996   4.743 -0.1062 -0.6510  0.1445
 9290TIP3   OH249360   3.301   4.352   1.435  0.0688  0.2055  0.0793
 9290TIP3    H149361   3.220   4.399   1.454 -0.6231  0.6313 -3.3526
 9290TIP3    H249362   3.370   4.418   1.443 -0.2011  0.4203  0.6934
 9291TIP3   OH249363   6.304   1.594  11.289  0.1616 -0.5515 -0.4337
 9291TIP3    H149364   6.233   1.561  11.343  2.5244  0.4412  3.7305
 9291TIP3    H249365   6.323   1.681  11.325  1.3130  0.7173 -3.6905
 9292TIP3   OH249366   5.778   3.163   0.772  0.0986 -0.5491  0.7152
 9292TIP3    H149367   5.685   3.166   0.749 -0.3451 -0.5502  2.3740
 9292TIP3    H249368   5.779   3.171   0.867  1.6921 -2.5626  0.9194
 9293TIP3   OH249369   3.359   0.898   3.586 -0.5392  0.3151 -0.6038
 9293TIP3    H149370   3.410   0.819   3.603 -1.8454 -0.4357 -0.0438
 9293TIP3    H249371   3.422   0.960   3.549  1.1283 -0.0160  1.5110
 9294TIP3   OH249372   6.282   5.410  12.398 -0.2254 -0.2994  0.7648
 9294TIP3    H149373   6.230   5.367  12.330 -0.1884 -0.8027  1.0522
 9294TIP3    H249374   6.246   5.378  12.481 -0.2125  0.2443  0.9877
 9295TIP3   OH249375   0.110   4.644   3.435 -0.1853 -0.2106 -0.0914
 9295TIP3    H149376   0.203   4.623   3.445 -0.2980 -0.3488  0.7435
 9295TIP3    H249377   0.076   4.576   3.377  0.0300 -0.7544  0.4052
 9296TIP3   OH249378   4.268   6.762  11.769 -0.0624  0.5966 -0.0407
 9296TIP3    H149379   4.313   6.732  11.690  0.0597  1.1170 -0.1723
 9296TIP3    H249380   4.324   6.832  11.803 -0.7247  1.1816 -0.1482
 9297TIP3   OH249381   4.068   1.445   3.517  0.1912  0.1510  0.4360
 9297TIP3    H149382   4.104   1.365   3.479 -1.3167 -0.3218 -0.0302
 9297TIP3    H249383   3.985   1.418   3.556 -0.9125  1.7052 -0.7633
 9298TIP3   OH249384   4.641   1.814  17.120  0.5348 -0.1643 -0.2555
 9298TIP3    H149385   4.731   1.811  17.087 -0.0049  2.0792 -2.1448
 9298TIP3    H249386   4.591   1.764  17.055  0.3249 -1.2163  0.6747
 9299TIP3   OH249387   0.539   0.777   1.798  0.1402  0.5191  0.0125
 9299TIP3    H149388   0.479   0.842   1.834  2.1098  2.8908 -0.7261
 9299TIP3    H249389   0.511   0.766   1.707 -0.6421 -0.2439  0.3400
 9300TIP3   OH249390   2.373   4.680  15.436 -0.4403 -0.4452  0.1745
 9300TIP3    H149391   2.468   4.690  15.431 -0.6204  1.5345 -0.1979
 9300TIP3    H249392   2.340   4.720  15.355 -1.5247 -2.9101 -0.7038
 9301TIP3   OH249393   3.944   5.173  15.677  0.1849 -0.4829  0.3148
 9301TIP3    H149394   3.920   5.258  15.714 -1.1406 -0.7792  0.2180
 9301TIP3    H249395   3.861   5.138  15.642  0.9804 -1.1389 -1.0279
 9302TIP3   OH249396   5.998   2.572   0.481 -0.0545 -0.2858  0.1884
 9302TIP3    H149397   6.071   2.525   0.521 -0.6318 -1.9750 -0.6480
 9302TIP3    H249398   6.009   2.559   0.387 -0.9548  0.1750  0.0014
 9303TIP3   OH249399   6.474   1.184   1.774 -0.2546 -0.3226 -0.1442
 9303TIP3    H149400   6.548   1.221   1.725 -1.1195  1.3547 -0.2562
 9303TIP3    H249401   6.397   1.221   1.732 -1.1472 -1.5690  0.3548
 9304TIP3   OH249402   6.037   5.381  10.921 -0.3636 -0.1191 -0.0744
 9304TIP3    H149403   6.025   5.316  10.852 -0.8270  0.5184 -0.5966
 9304TIP3    H249404   5.978   5.452  10.899 -3.9496 -1.6763  3.2598
 9305TIP3   OH249405   5.778   6.038   0.591  0.1634  0.8500  0.2542
 9305TIP3    H149406   5.740   6.080   0.514 -1.3689  0.9042  1.0111
 9305TIP3    H249407   5.778   6.107   0.658  0.5102  0.5000  0.6185
 9306TIP3   OH249408   5.818   2.653   3.354 -0.0959  0.0898  0.0312
 9306TIP3    H149409   5.782   2.738   3.328  1.6744  0.7203 -0.4787
 9306TIP3    H249410   5.759   2.622   3.424  0.0135  2.3982  1.2392
 9307TIP3   OH249411   4.376   6.724   2.607  0.1907 -0.1960 -0.3814
 9307TIP3    H149412   4.450   6.735   2.666 -2.5853 -2.1640  4.0435
 9307TIP3    H249413   4.321   6.801   2.622 -1.0743 -1.2378  0.6274
 9308TIP3   OH249414   1.377   4.380  12.189 -0.2110  0.0734 -0.2129
 9308TIP3    H149415   1.360   4.474  12.182  0.1668  0.5912  3.6274
 9308TIP3    H249416   1.473   4.372  12.184 -0.1882  0.0152  0.2626
 9309TIP3   OH249417   5.688   0.188   2.129  0.1876  1.1761 -0.2253
 9309TIP3    H149418   5.780   0.169   2.148  0.7286  3.1173 -0.7013
 9309TIP3    H249419   5.656   0.235   2.206 -0.7794 -0.4655  0.4293
 9310TIP3   OH249420   6.760   2.459   0.736 -0.3664 -0.5314 -0.6364
 9310TIP3    H149421   6.699   2.440   0.665 -1.8970  0.5537  0.3085
 9310TIP3    H249422   6.724   2.412   0.811 -1.3599  1.8235  0.4747
 9311TIP3   OH249423   4.722   5.553  11.978 -0.0986 -0.3138 -1.0002
 9311TIP3    H149424   4.803   5.528  12.024 -0.4551  1.7250  0.9226
 9311TIP3    H249425   4.749   5.623  11.919 -0.7360  2.2140  1.5080
 9312TIP3   OH249426   4.428   3.980   2.168  0.3897  0.1093  0.1980
 9312TIP3    H149427   4.510   3.942   2.200  1.3437  1.1763 -0.8713
 9312TIP3    H249428   4.434   3.974   2.073 -0.2210  1.2718  0.0620
 9313TIP3   OH249429   5.336   0.223   2.372 -0.0009  0.8907  0.4814
 9313TIP3    H149430   5.261   0.267   2.412 -0.3233 -0.8733  1.9188
 9313TIP3    H249431   5.392   0.200   2.446  1.8837  1.9504 -0.5407
 9314TIP3   OH249432   3.055   6.560  11.601  0.0279 -0.1449 -0.3150
 9314TIP3    H149433   3.003   6.588  11.525 -1.8423 -0.6367  0.7080
 9314TIP3    H249434   3.122   6.628  11.610 -0.6707  0.7473 -1.4957
 9315TIP3   OH249435   0.971   2.520   3.618  0.1465 -0.5504 -0.1963
 9315TIP3    H149436   1.027   2.587   3.658  0.9473 -1.2731 -0.0825
 9315TIP3    H249437   0.910   2.570   3.564 -0.5026  0.4182  1.3350
 9316TIP3   OH249438   5.377   5.104  11.509  0.0582 -0.0682  0.1839
 9316TIP3    H149439   5.332   5.171  11.561 -0.3261 -0.7732  0.7805
 9316TIP3    H249440   5.345   5.116  11.420  1.3966  1.7480 -0.1119
 9317TIP3   OH249441   2.981   3.587  15.802  0.1293 -0.1240  0.3922
 9317TIP3    H149442   2.937   3.501  15.801  0.2056 -0.1708  0.7773
 9317TIP3    H249443   2.941   3.632  15.877  1.4647 -0.5522  1.3980
 9318TIP3   OH249444   1.482   2.406   4.645 -0.2521 -0.2786  0.0857
 9318TIP3    H149445   1.554   2.429   4.703  2.0476 -0.8674 -2.3031
 9318TIP3    H249446   1.475   2.311   4.652  0.1595 -0.3742 -0.6556
 9319TIP3   OH249447   5.345   2.049  11.942  0.0835 -0.7442  0.4013
 9319TIP3    H149448   5.367   1.986  12.012  3.3200  1.2294  1.3443
 9319TIP3    H249449   5.399   2.022  11.868  1.1167  0.5274  0.6523
 9320TIP3   OH249450   1.136   1.875   0.573 -0.2431 -0.4885  0.2808
 9320TIP3    H149451   1.178   1.924   0.502  1.2854 -1.3586  0.5222
 9320TIP3    H249452   1.189   1.894   0.650  0.1735 -2.1731  0.4591
 9321TIP3   OH249453   3.768   0.460   5.342 -0.1132  0.2566 -0.4937
 9321TIP3    H149454   3.719   0.541   5.324 -1.1667 -0.3678 -0.5424
 9321TIP3    H249455   3.834   0.457   5.273 -0.3574  0.8465 -0.7669
 9322TIP3   OH249456   5.807   6.583  13.503 -0.3340  0.0667 -0.8517
 9322TIP3    H149457   5.868   6.552  13.570 -1.3496  0.1350  0.1313
 9322TIP3    H249458   5.833   6.673  13.486  1.3143 -0.6001 -2.1978
 9323TIP3   OH249459   2.257   3.805  16.186 -0.0789  0.2953 -0.1994
 9323TIP3    H149460   2.181   3.843  16.143 -0.5870 -0.0882  0.3427
 9323TIP3    H249461   2.273   3.862  16.261 -1.0586 -0.7004  0.8211
 9324TIP3   OH249462   0.975   6.117   3.456 -0.7018  0.1428 -0.1908
 9324TIP3    H149463   0.967   6.128   3.551 -0.9016 -1.3794 -0.0082
 9324TIP3    H249464   1.058   6.160   3.434  1.0219 -2.2303  1.2016
 9325TIP3   OH249465   0.234   2.654  15.045 -0.0270 -0.2085  0.7101
 9325TIP3    H149466   0.147   2.669  15.010  0.6705  0.0206 -1.0172
 9325TIP3    H249467   0.253   2.731  15.098 -0.6516 -0.0129  0.6457
 9326TIP3   OH249468   4.012   3.129  13.867 -0.0430  0.3367  0.1722
 9326TIP3    H149469   3.949   3.171  13.925 -0.9052 -1.3409  0.5147
 9326TIP3    H249470   4.068   3.077  13.925 -1.5494 -2.1784 -0.4313
 9327TIP3   OH249471   5.360   4.020   5.932 -0.3148  0.2294 -0.5073
 9327TIP3    H149472   5.407   4.038   6.013 -1.9904  1.3540  0.2620
 9327TIP3    H249473   5.429   4.014   5.865  0.8937  2.6636  0.4136
 9328TIP3   OH249474   2.616   1.216  15.274  0.2468  0.1067  0.1089
 9328TIP3    H149475   2.657   1.303  15.278 -0.8596  0.6023  1.5622
 9328TIP3    H249476   2.522   1.233  15.278  0.0070 -1.1586  0.3459
 9329TIP3   OH249477   5.484   2.026   3.833  0.4699  0.1162 -0.3110
 9329TIP3    H149478   5.390   2.046   3.831  0.6104  0.7589 -0.4614
 9329TIP3    H249479   5.498   1.967   3.759  0.5326  1.5627 -1.4879
 9330TIP3   OH249480   6.371   4.708   3.251  0.1548  0.6060  0.1756
 9330TIP3    H149481   6.462   4.739   3.249  0.3046  0.3129 -3.0888
 9330TIP3    H249482   6.378   4.615   3.229 -0.7833 -0.2999  3.2694
 9331TIP3   OH249483   5.774   0.712   2.235  0.0286 -0.0346 -0.4116
 9331TIP3    H149484   5.839   0.773   2.200 -0.5093  0.5192 -0.4562
 9331TIP3    H249485   5.738   0.756   2.311  1.2041 -1.2402  0.9005
 9332TIP3   OH249486   4.604   4.779   1.274  0.0150  0.2038  0.2930
 9332TIP3    H149487   4.546   4.705   1.255 -1.6056  1.5394 -0.1451
 9332TIP3    H249488   4.596   4.836   1.197  2.7798 -0.0395 -0.2945
 9333TIP3   OH249489   0.192   2.529   1.025  0.1739  0.1181  0.3360
 9333TIP3    H149490   0.276   2.520   0.980 -0.6116 -1.0092 -1.0068
 9333TIP3    H249491   0.203   2.479   1.106  1.1726  1.0143  0.7774
 9334TIP3   OH249492   4.028   1.003  17.190 -0.4711  0.2467 -0.3866
 9334TIP3    H149493   4.015   1.051  17.108 -1.1167  0.7009 -0.0324
 9334TIP3    H249494   4.057   0.916  17.163 -0.4977  0.4514 -1.0877
 9335TIP3   OH249495   4.149   1.526  11.307  0.3406  0.2309 -0.5849
 9335TIP3    H149496   4.175   1.602  11.359  0.9798 -0.8664  0.7615
 9335TIP3    H249497   4.126   1.562  11.221  0.2620  1.9713  0.1334
 9336TIP3   OH249498   2.142   6.791   2.615  0.1364 -0.2159 -0.3406
 9336TIP3    H149499   2.066   6.758   2.662  1.2767 -1.9554  0.3901
 9336TIP3    H249500   2.167   6.720   2.556  0.9298  0.4981 -0.8964
 9337TIP3   OH249501   3.800   5.734   4.051  0.1584  0.4789 -0.1187
 9337TIP3    H149502   3.866   5.691   4.105  1.3712  0.2586 -1.6927
 9337TIP3    H249503   3.815   5.828   4.064  0.5750  0.4254 -0.2071
 9338TIP3   OH249504   5.782   3.672   3.046  0.0317 -0.2197 -0.0951
 9338TIP3    H149505   5.699   3.624   3.042  0.4292 -0.9689  0.4348
 9338TIP3    H249506   5.759   3.761   3.020 -1.1643 -0.1359  1.1613
 9339TIP3   OH249507   0.419   4.970  11.740 -0.3605 -0.0673  0.4531
 9339TIP3    H149508   0.432   5.028  11.665  1.0742 -1.5437 -0.5107
 9339TIP3    H249509   0.332   4.934  11.728  0.0185 -0.6062 -0.7478
 9340TIP3   OH249510   5.173   1.014   1.245 -0.4681  0.3857  0.5269
 9340TIP3    H149511   5.163   0.935   1.297  0.9481 -0.4175 -0.3464
 9340TIP3    H249512   5.130   1.082   1.296  0.0284 -0.5464  2.2735
 9341TIP3   OH249513   0.019   4.373   1.877 -0.5726 -0.0437  0.6352
 9341TIP3    H149514   0.065   4.291   1.896  2.0503  1.2520  0.1834
 9341TIP3    H249515   0.082   4.442   1.896 -1.5755  1.7740 -2.0233
 9342TIP3   OH249516   3.431   0.907  14.053  0.7631  0.3244 -0.1626
 9342TIP3    H149517   3.420   0.907  13.957 -0.1089  3.0028 -0.1446
 9342TIP3    H249518   3.495   0.838  14.069  0.9782 -0.1824 -2.6863
 9343TIP3   OH249519   5.084   2.194  16.693 -0.2165 -0.2849 -0.2379
 9343TIP3    H149520   5.124   2.278  16.671  0.6366 -0.3285  1.0259
 9343TIP3    H249521   4.991   2.205  16.671  0.0316  0.6917 -0.8661
 9344TIP3   OH249522   4.683   5.534  15.701 -0.1320 -0.1714  0.3288
 9344TIP3    H149523   4.618   5.589  15.743 -0.8920 -1.2734  0.6296
 9344TIP3    H249524   4.673   5.552  15.608 -1.2090 -0.6752  0.3337
 9345TIP3   OH249525   6.649   5.801   2.155  0.1930 -0.3663 -0.5036
 9345TIP3    H149526   6.711   5.750   2.208 -0.6258  0.9627  1.8892
 9345TIP3    H249527   6.705   5.855   2.099  1.2130  0.0732  0.8718
 9346TIP3   OH249528   3.988   2.034   2.552 -0.6391  0.6379  0.0240
 9346TIP3    H149529   4.064   2.035   2.494 -0.7153 -0.4911 -0.1250
 9346TIP3    H249530   3.957   2.124   2.554  0.1113  0.9172 -0.6992
 9347TIP3   OH249531   1.441   1.843  15.258 -0.0700  0.0834 -0.3859
 9347TIP3    H149532   1.453   1.888  15.342 -0.0588 -1.4634  0.4759
 9347TIP3    H249533   1.492   1.896  15.195  1.7015  0.1126  0.9785
 9348TIP3   OH249534   6.458   2.286   6.472  0.6038  0.3029  0.7341
 9348TIP3    H149535   6.364   2.276   6.458  0.5275 -0.3073  1.5874
 9348TIP3    H249536   6.467   2.371   6.515  0.5534  0.8144 -0.2369
 9349TIP3   OH249537   4.160   0.643   2.998  0.1201 -0.7626 -0.0779
 9349TIP3    H149538   4.096   0.576   2.973 -0.4775 -0.3862  0.4116
 9349TIP3    H249539   4.136   0.719   2.946  0.6949 -0.8718 -0.5086
 9350TIP3   OH249540   4.381   5.185   5.260 -0.0330  0.3317  0.0906
 9350TIP3    H149541   4.328   5.180   5.180  0.2136  3.3920 -0.3927
 9350TIP3    H249542   4.469   5.161   5.232 -0.6592 -2.8105  0.4707
 9351TIP3   OH249543   5.147   5.786   5.315 -0.3325  0.2069 -0.5361
 9351TIP3    H149544   5.112   5.811   5.230  0.1949 -2.5916 -1.6858
 9351TIP3    H249545   5.170   5.869   5.357 -3.8554  1.9438 -1.5991
 9352TIP3   OH249546   0.235   3.526   3.842 -0.1295  0.2056  0.0223
 9352TIP3    H149547   0.298   3.501   3.910 -0.1112  0.1519 -0.0137
 9352TIP3    H249548   0.172   3.581   3.887 -0.1800  0.0790  0.1074
 9353TIP3   OH249549   1.312   2.668   0.169  0.2084 -0.0109  0.5280
 9353TIP3    H149550   1.293   2.762   0.164 -0.6899 -0.2285 -0.8871
 9353TIP3    H249551   1.262   2.637   0.243 -0.3993  0.4401  0.3121
 9354TIP3   OH249552   1.077   4.333   3.388  0.2101 -0.4182  0.0804
 9354TIP3    H149553   1.110   4.353   3.301 -1.9856  0.4999 -0.5978
 9354TIP3    H249554   1.038   4.246   3.380  0.6511 -0.6438  0.3473
 9355TIP3   OH249555   0.561   1.417  11.420  0.2069 -0.5823 -0.3132
 9355TIP3    H149556   0.630   1.357  11.391  0.0095 -1.2985  0.6359
 9355TIP3    H249557   0.567   1.415  11.516  0.0958  0.8164 -0.2615
 9356TIP3   OH249558   0.161   1.540   5.399 -0.6841 -0.2585  0.3330
 9356TIP3    H149559   0.236   1.594   5.426  0.8167 -1.8616 -0.4661
 9356TIP3    H249560   0.090   1.567   5.459  0.2956  1.7718  0.6797
 9357TIP3   OH249561   1.112   6.009   4.110  0.0479  0.1712  0.3864
 9357TIP3    H149562   1.080   5.987   4.197 -0.4529  1.6344  0.5994
 9357TIP3    H249563   1.170   6.084   4.124  1.8133 -1.0088 -0.2723
 9358TIP3   OH249564   4.012   6.184   2.384 -0.3888  0.2167 -0.0277
 9358TIP3    H149565   4.039   6.253   2.323  0.1147  0.0168 -0.0373
 9358TIP3    H249566   3.955   6.128   2.333  0.5500 -0.3179 -0.5224
 9359TIP3   OH249567   3.705   3.166  11.920 -0.2778 -0.2047 -0.2282
 9359TIP3    H149568   3.707   3.258  11.897 -0.1028  0.3915  1.9670
 9359TIP3    H249569   3.796   3.138  11.916 -0.0265  0.3359  1.2977
 9360TIP3   OH249570   2.852   0.118  13.424 -0.5573  0.4249  0.2371
 9360TIP3    H149571   2.816   0.096  13.338 -1.0898  1.5905  0.1341
 9360TIP3    H249572   2.945   0.131  13.408 -0.3266 -1.1157  0.2050
 9361TIP3   OH249573   3.142   6.535  12.241 -0.0675  0.3793  0.6246
 9361TIP3    H149574   3.226   6.492  12.233 -1.0578 -1.4888 -0.4498
 9361TIP3    H249575   3.095   6.513  12.160 -2.0511  0.2642  1.7299
 9362TIP3   OH249576   3.431   1.881   2.921 -0.1418  0.0247  0.0916
 9362TIP3    H149577   3.485   1.907   2.847  0.9282  0.2218  0.9229
 9362TIP3    H249578   3.480   1.909   2.998 -2.3424  2.0809  0.8841
 9363TIP3   OH249579   3.314   6.255  12.486  0.1177  0.3812  0.2177
 9363TIP3    H149580   3.296   6.209  12.404  2.3473  0.1292 -0.1732
 9363TIP3    H249581   3.238   6.236  12.541 -0.4647 -1.1592 -1.0485
 9364TIP3   OH249582   4.535   3.535  14.354  0.4361  0.2648  0.0527
 9364TIP3    H149583   4.471   3.562  14.288  0.3684 -0.2621 -0.1056
 9364TIP3    H249584   4.616   3.519  14.304  0.2749 -0.5335  0.0201
 9365TIP3   OH249585   2.946   4.272  14.320 -0.1469  0.2228  0.4192
 9365TIP3    H149586   3.027   4.289  14.368  0.9862  0.5061 -1.4854
 9365TIP3    H249587   2.886   4.340  14.349  0.9441  1.2040  0.4536
 9366TIP3   OH249588   5.962   6.537  13.153  0.4648 -0.5022  0.0304
 9366TIP3    H149589   5.934   6.623  13.184  0.5966  0.2395 -1.7966
 9366TIP3    H249590   5.882   6.485  13.153  0.7111 -1.0464  2.9997
 9367TIP3   OH249591   1.948   6.610   3.743  0.0722  0.3827  0.2911
 9367TIP3    H149592   1.935   6.573   3.830  0.1502  1.3881  0.7384
 9367TIP3    H249593   2.018   6.674   3.754 -0.3408  0.9677 -0.3900
 9368TIP3   OH249594   3.870   2.255  15.853 -0.4305  0.1011 -0.4960
 9368TIP3    H149595   3.906   2.322  15.794 -0.7887  0.6277 -0.1182
 9368TIP3    H249596   3.782   2.239  15.821 -0.8845  0.9017  0.3071
 9369TIP3   OH249597   6.770   4.236  13.498  0.3617  0.1013 -0.1034
 9369TIP3    H149598   6.735   4.306  13.554  0.8376 -1.1731  1.8909
 9369TIP3    H249599   6.818   4.179  13.558  2.2209 -0.5581 -2.0633
 9370TIP3   OH249600   3.520   4.125   4.242  0.3368 -0.2198  0.4158
 9370TIP3    H149601   3.548   4.132   4.151 -0.9725  0.6814  0.0448
 9370TIP3    H249602   3.599   4.102   4.290  1.0522 -0.7077 -0.9458
 9371TIP3   OH249603   5.164   3.649   4.592 -0.4440 -0.0753  0.0332
 9371TIP3    H149604   5.150   3.744   4.600  1.9629  0.2799  0.6578
 9371TIP3    H249605   5.177   3.635   4.498  1.3744  0.5969  0.1584
 9372TIP3   OH249606   4.779   4.738  13.201 -0.4577  0.1970  0.7926
 9372TIP3    H149607   4.796   4.730  13.295  1.9516  2.4596  0.6788
 9372TIP3    H249608   4.758   4.831  13.189 -0.3511  0.0269 -0.9529
 9373TIP3   OH249609   3.553   6.168   3.108  0.0592 -0.2592  0.0943
 9373TIP3    H149610   3.554   6.171   3.203 -2.2373 -4.4591  0.5106
 9373TIP3    H249611   3.481   6.226   3.082  1.1667  1.4790  0.7452
 9374TIP3   OH249612   1.478   0.385  13.767 -0.0479  0.0909  0.0742
 9374TIP3    H149613   1.547   0.335  13.809 -0.1752  0.1074  0.3022
 9374TIP3    H249614   1.443   0.442  13.836 -0.8965 -0.5586  0.1907
 9375TIP3   OH249615   6.525   4.401   5.066  0.6298  0.1409 -0.4456
 9375TIP3    H149616   6.610   4.402   5.109  1.5274 -0.0314 -2.1479
 9375TIP3    H249617   6.512   4.491   5.037  0.4204  0.0789 -0.5461
 9376TIP3   OH249618   2.986   4.982   6.232  0.2466  0.4791  0.4329
 9376TIP3    H149619   3.010   5.012   6.144  0.9044 -1.6731 -0.1890
 9376TIP3    H249620   3.068   4.982   6.281  0.1759  0.1823  0.5553
 9377TIP3   OH249621   1.012   5.380   4.832  0.0062  0.5520  0.3917
 9377TIP3    H149622   1.098   5.339   4.828  0.6950  1.9778 -0.0586
 9377TIP3    H249623   0.966   5.332   4.901  0.9381 -0.6131  0.2418
 9378TIP3   OH249624   3.326   3.677  12.606 -0.0923 -0.6253 -0.1559
 9378TIP3    H149625   3.321   3.609  12.674 -0.7658 -1.0618 -0.6190
 9378TIP3    H249626   3.254   3.655  12.546 -0.0055  0.2162 -0.5787
 9379TIP3   OH249627   5.950   2.310  14.326 -0.2428 -0.1398  0.2903
 9379TIP3    H149628   6.027   2.352  14.287 -0.1379  0.5070  1.1781
 9379TIP3    H249629   5.925   2.367  14.398 -0.3977 -1.3513  1.2273
 9380TIP3   OH249630   5.932   4.550   0.026  0.0252  0.4678  0.2723
 9380TIP3    H149631   6.007   4.610   0.028  1.3691 -1.1043 -0.3597
 9380TIP3    H249632   5.928   4.520  -0.065 -1.0915  0.1606  0.4031
 9381TIP3   OH249633   3.869   1.349   2.784 -0.5503 -0.0633  0.1204
 9381TIP3    H149634   3.964   1.345   2.788 -0.6116 -1.8001  0.6365
 9381TIP3    H249635   3.850   1.396   2.703  0.7393  0.7070  0.2499
 9382TIP3   OH249636   5.831   1.366  17.223  0.4542 -0.2480 -0.1329
 9382TIP3    H149637   5.917   1.348  17.263  0.3505  0.7967  0.6198
 9382TIP3    H249638   5.776   1.293  17.250  0.6552 -0.0544  0.8421
 9383TIP3   OH249639   5.971   6.145  16.808 -0.5900  0.0232  0.2616
 9383TIP3    H149640   5.914   6.127  16.882 -0.8365 -0.1336  0.0351
 9383TIP3    H249641   6.028   6.069  16.802 -0.3052  0.2136  0.5355
 9384TIP3   OH249642   1.815   6.506  13.224 -0.4568 -0.0705  0.0264
 9384TIP3    H149643   1.742   6.447  13.206 -2.5329  1.8240  1.7514
 9384TIP3    H249644   1.835   6.546  13.139 -0.9833 -1.0888 -0.5910
 9385TIP3   OH249645   0.575   5.474  16.738 -0.2382 -0.1152  0.1646
 9385TIP3    H149646   0.570   5.463  16.643 -1.0087 -0.6494  0.2568
 9385TIP3    H249647   0.565   5.568  16.751 -1.5272 -0.1757 -0.2224
 9386TIP3   OH249648   0.096   2.173   5.924 -0.6854  0.1013 -0.2589
 9386TIP3    H149649   0.011   2.175   5.968 -0.5325 -0.7598  0.0945
 9386TIP3    H249650   0.149   2.114   5.977  0.0562  0.4276 -0.6226
 9387TIP3   OH249651   2.438   0.915   3.876  0.0970  0.1703 -0.0992
 9387TIP3    H149652   2.522   0.870   3.867 -0.1862 -0.7388  1.4796
 9387TIP3    H249653   2.389   0.890   3.797  0.9532 -0.0213 -0.5897
 9388TIP3   OH249654   6.341   2.483  13.180  0.4925 -0.4354 -0.3397
 9388TIP3    H149655   6.436   2.497  13.181  0.9781 -3.1313  0.9147
 9388TIP3    H249656   6.330   2.396  13.142 -1.2558 -1.1105  1.5472
 9389TIP3   OH249657   1.053   3.759   1.266  0.0007 -0.0611  0.0040
 9389TIP3    H149658   0.989   3.751   1.195  0.8512 -0.7438 -0.7124
 9389TIP3    H249659   1.020   3.700   1.334 -0.2269 -0.2761 -0.2853
 9390TIP3   OH249660   5.882   4.765  13.157 -0.0442 -0.8063  0.2232
 9390TIP3    H149661   5.813   4.718  13.203 -1.3815  0.2287 -0.6635
 9390TIP3    H249662   5.896   4.716  13.076 -1.4334  0.2510 -0.6982
 9391TIP3   OH249663   2.885   3.670   4.464  0.1000 -0.5371 -0.1432
 9391TIP3    H149664   2.921   3.705   4.382  0.2411  0.7027  0.4175
 9391TIP3    H249665   2.940   3.595   4.485  0.2768 -0.6533 -1.0085
 9392TIP3   OH249666   2.945   5.333  15.863 -0.7558  0.1063  0.3030
 9392TIP3    H149667   2.885   5.354  15.934 -0.8865 -0.9190  0.5106
 9392TIP3    H249668   3.024   5.383  15.882 -0.9550  0.1834  0.9227
 9393TIP3   OH249669   1.059   2.562   5.379  0.1862 -0.0409 -0.7472
 9393TIP3    H149670   1.081   2.471   5.356  2.6271  0.5352 -0.9723
 9393TIP3    H249671   0.984   2.554   5.438 -1.3366 -2.0251 -2.7884
 9394TIP3   OH249672   5.130   0.558   1.470 -0.0388  0.5501  0.8191
 9394TIP3    H149673   5.155   0.608   1.392  0.0764  1.8350  1.6443
 9394TIP3    H249674   5.084   0.621   1.525 -0.5790 -0.4711  1.5738
 9395TIP3   OH249675   6.326   5.488  13.794 -0.7511 -0.0638 -0.0815
 9395TIP3    H149676   6.302   5.396  13.802 -2.7305  0.2054 -2.1500
 9395TIP3    H249677   6.403   5.488  13.738 -1.0245 -0.4247 -0.4545
 9396TIP3   OH249678   5.015   0.538   0.115  0.5829  0.1662  0.0192
 9396TIP3    H149679   4.970   0.528   0.199  0.6088  1.1684  0.1731
 9396TIP3    H249680   5.000   0.455   0.069 -1.6627  0.5336 -0.0402
 9397TIP3   OH249681   6.208   6.243   1.972  0.0987 -0.5045 -0.0040
 9397TIP3    H149682   6.228   6.336   1.959 -0.5006 -0.4762 -0.8014
 9397TIP3    H249683   6.252   6.220   2.053  1.0505  0.2438 -0.2879
 9398TIP3   OH249684   1.255   3.556   1.637  0.1456  1.0762  0.4095
 9398TIP3    H149685   1.283   3.647   1.640  1.3809  0.7007  1.0930
 9398TIP3    H249686   1.251   3.528   1.728 -3.3365  1.2881  0.4678
 9399TIP3   OH249687   6.384   3.531   1.378  0.0688 -0.3263 -0.0628
 9399TIP3    H149688   6.456   3.528   1.441  1.2482  2.1665 -1.1461
 9399TIP3    H249689   6.305   3.532   1.432  0.9358 -0.5600  1.2576
 9400TIP3   OH249690   5.836   5.070   0.646  0.0471 -0.1470 -0.2002
 9400TIP3    H149691   5.779   5.050   0.720 -0.6365  0.7756 -0.4606
 9400TIP3    H249692   5.918   5.100   0.686 -0.1112 -0.2251  0.1835
 9401TIP3   OH249693   1.251   3.982   4.915  0.0579 -0.6516 -0.0111
 9401TIP3    H149694   1.269   4.071   4.885  0.7321 -0.2724  1.4356
 9401TIP3    H249695   1.185   3.949   4.854  0.6450  0.4172 -1.2701
 9402TIP3   OH249696   1.566   4.376   5.427  0.8221 -0.0114  0.0644
 9402TIP3    H149697   1.496   4.311   5.431  0.2521  0.5031 -0.8909
 9402TIP3    H249698   1.646   4.327   5.441  0.3778 -0.8656 -0.3162
 9403TIP3   OH249699   4.470   6.782   0.400  0.0727  0.4394 -0.2212
 9403TIP3    H149700   4.478   6.687   0.405  0.0839  0.4747  0.4709
 9403TIP3    H249701   4.388   6.797   0.353 -1.3653  0.0755  2.0195
 9404TIP3   OH249702   0.379   0.858   2.743 -0.1569 -0.5829  0.3558
 9404TIP3    H149703   0.339   0.826   2.662 -0.3811  0.4152  0.0620
 9404TIP3    H249704   0.341   0.944   2.756  0.9704 -0.1247  0.7414
 9405TIP3   OH249705   4.651   4.220   1.703 -0.0316 -0.1404 -0.3279
 9405TIP3    H149706   4.647   4.314   1.724 -1.6933 -0.3150  0.2880
 9405TIP3    H249707   4.614   4.177   1.780 -0.4063 -1.2162 -1.0901
 9406TIP3   OH249708   6.544   4.659   1.695 -0.3221 -0.4038  0.9886
 9406TIP3    H149709   6.534   4.740   1.744 -1.0729  0.6215 -0.7802
 9406TIP3    H249710   6.469   4.605   1.722  0.9120 -1.1364  3.1901
 9407TIP3   OH249711   1.057   0.519  16.759  0.0475 -0.2042  0.2002
 9407TIP3    H149712   1.113   0.587  16.796  0.1598 -1.2101  2.0477
 9407TIP3    H249713   0.969   0.556  16.759  0.1424  0.0456  0.9927
 9408TIP3   OH249714   5.503   3.315  11.918 -0.4897 -0.2255 -0.2137
 9408TIP3    H149715   5.463   3.368  11.849 -0.9913 -0.7375 -0.3230
 9408TIP3    H249716   5.469   3.227  11.904 -1.2280 -0.1881  1.1634
 9409TIP3   OH249717   2.529   4.586   5.528 -0.0929 -0.0415  0.4305
 9409TIP3    H149718   2.565   4.521   5.467  0.9251  0.8577  0.0536
 9409TIP3    H249719   2.518   4.538   5.610  1.2550 -0.5469  0.3427
 9410TIP3   OH249720   0.953   2.553  13.067 -0.1590 -0.0230  0.1457
 9410TIP3    H149721   0.986   2.491  13.131 -0.3021 -0.4589 -0.1988
 9410TIP3    H249722   1.030   2.604  13.040  0.0510 -0.3832  0.0606
 9411TIP3   OH249723   4.905   2.453   0.053 -0.1316  0.5230 -0.5807
 9411TIP3    H149724   4.856   2.526   0.016  0.4712  0.8149 -0.8285
 9411TIP3    H249725   4.990   2.457   0.010  1.2323  1.9113  1.9825
 9412TIP3   OH249726   2.147   4.621  13.106 -0.1408 -0.2579  0.1837
 9412TIP3    H149727   2.141   4.628  13.011  0.0924  1.0626  0.2455
 9412TIP3    H249728   2.132   4.710  13.138 -1.3569 -0.8790  1.4584
 9413TIP3   OH249729   6.125   3.153  15.548  0.1823  0.2636 -0.0522
 9413TIP3    H149730   6.069   3.078  15.569 -1.3749  0.4380 -3.1090
 9413TIP3    H249731   6.206   3.115  15.513  1.0203  0.0535  1.9683
 9414TIP3   OH249732   5.108   6.649   0.203 -0.3364 -0.4235  0.1034
 9414TIP3    H149733   5.042   6.582   0.185  0.4662 -2.0224  2.5768
 9414TIP3    H249734   5.059   6.718   0.247 -0.9271  0.0333 -1.2173
 9415TIP3   OH249735   6.373   5.764  15.790  0.4878 -0.2984  0.4601
 9415TIP3    H149736   6.300   5.820  15.763  0.5574 -0.1500  0.5776
 9415TIP3    H249737   6.332   5.684  15.822  0.3865 -0.3119  0.3000
 9416TIP3   OH249738   0.686   4.780  14.317 -0.5794  0.3113  0.1908
 9416TIP3    H149739   0.636   4.769  14.236 -0.8406 -1.4228  0.5370
 9416TIP3    H249740   0.652   4.712  14.375  1.1799  0.0129  0.9338
 9417TIP3   OH249741   6.044   0.889  17.244  0.3943  0.0137  0.6440
 9417TIP3    H149742   6.042   0.808  17.296 -0.1847  0.0195  0.6385
 9417TIP3    H249743   6.015   0.863  17.157  0.6007  0.1521  0.5334
 9418TIP3   OH249744   2.356   2.793  14.781 -0.0801 -0.2282 -0.4134
 9418TIP3    H149745   2.307   2.727  14.829  0.6689 -0.7716 -0.3812
 9418TIP3    H249746   2.428   2.745  14.740  0.0580  0.4465 -0.9848
 9419TIP3   OH249747   3.622   4.164  11.543 -0.5937 -0.0565 -0.4738
 9419TIP3    H149748   3.618   4.217  11.464 -0.5898  2.3622  1.0601
 9419TIP3    H249749   3.579   4.217  11.611 -0.5848 -2.0111  1.1843
 9420TIP3   OH249750   0.664   0.968   0.791  0.2635  0.6683 -0.4013
 9420TIP3    H149751   0.684   0.992   0.882 -0.7163  1.0097 -0.2685
 9420TIP3    H249752   0.643   1.051   0.748 -2.5705  0.1957 -0.0871
 9421TIP3   OH249753   0.229   4.105   1.103 -0.2373  0.0230  0.2918
 9421TIP3    H149754   0.199   4.144   1.185 -0.6884 -1.2397  0.7502
 9421TIP3    H249755   0.307   4.155   1.080  1.0868 -0.8686  2.5686
 9422TIP3   OH249756   0.966   3.845  16.778  0.5963  0.4245  0.6783
 9422TIP3    H149757   1.035   3.912  16.775  0.3394  0.6569 -1.3207
 9422TIP3    H249758   0.888   3.889  16.745  0.5895 -0.9872 -1.3697
 9423TIP3   OH249759   5.875   2.995  12.436  0.4136 -0.6663 -0.3461
 9423TIP3    H149760   5.911   3.076  12.472  0.6716 -1.0597  0.3072
 9423TIP3    H249761   5.782   2.998  12.459  0.5084 -0.7518  0.0608
 9424TIP3   OH249762   6.582   0.318   3.368  0.0080  0.1886 -0.2070
 9424TIP3    H149763   6.514   0.337   3.304  1.2333 -1.2722 -2.0429
 9424TIP3    H249764   6.625   0.239   3.335  1.3464 -0.0478  1.9097
 9425TIP3   OH249765   0.116   5.627  12.803  0.2459 -0.3346  0.1472
 9425TIP3    H149766   0.096   5.535  12.785 -0.4722 -0.1630  0.0068
 9425TIP3    H249767   0.155   5.627  12.890  0.9946 -0.8573 -0.1814
 9426TIP3   OH249768   5.813   4.166  13.781  0.0933 -0.1021 -0.1386
 9426TIP3    H149769   5.851   4.127  13.703 -1.2585  1.1159 -1.4713
 9426TIP3    H249770   5.718   4.160  13.768 -0.1590  1.0860  0.8794
 9427TIP3   OH249771   3.290   4.895  15.020 -0.9766  0.2938  0.2512
 9427TIP3    H149772   3.268   4.902  15.113 -2.4612 -0.7426  0.0071
 9427TIP3    H249773   3.343   4.815  15.014  1.3781  1.7432  0.5442
 9428TIP3   OH249774   1.310   3.293   5.354  0.5119 -0.7769  0.1735
 9428TIP3    H149775   1.218   3.266   5.349  0.4033 -0.9770  2.3598
 9428TIP3    H249776   1.307   3.388   5.344 -0.1241 -0.6240  1.5009
 9429TIP3   OH249777   2.302   5.545  16.620 -0.3679  0.3005  0.6111
 9429TIP3    H149778   2.254   5.588  16.691 -4.0549  1.8527 -2.4470
 9429TIP3    H249779   2.340   5.617  16.570  0.3435 -0.6027 -0.1820
 9430TIP3   OH249780   3.050   0.477  13.372 -0.2087  0.0588 -0.0516
 9430TIP3    H149781   3.071   0.391  13.335  0.3005  0.1636 -0.0203
 9430TIP3    H249782   3.087   0.475  13.460  1.4182  0.9198 -0.6518
 9431TIP3   OH249783   5.806   2.762   4.350  0.4486  0.2585  0.3682
 9431TIP3    H149784   5.899   2.774   4.331  0.5952  0.2097  1.0335
 9431TIP3    H249785   5.762   2.830   4.299  0.9021  0.7023  0.5603
 9432TIP3   OH249786   4.724   6.770  13.891  0.3044  0.2905  0.1215
 9432TIP3    H149787   4.812   6.778  13.852 -0.7748  1.1202 -2.3519
 9432TIP3    H249788   4.686   6.694  13.847 -1.6864  2.4528 -2.2290
 9433TIP3   OH249789   4.383   3.566  12.433  0.2924  0.1784  0.1247
 9433TIP3    H149790   4.428   3.648  12.453  0.2584  0.2460 -0.0739
 9433TIP3    H249791   4.421   3.537  12.350 -1.1626  1.0858 -0.9148
 9434TIP3   OH249792   4.248   6.525  17.116 -0.0317 -0.3646  0.7334
 9434TIP3    H149793   4.322   6.534  17.176  1.5609  0.2342 -1.1971
 9434TIP3    H249794   4.171   6.529  17.172  1.3717 -0.9329  2.8341
 9435TIP3   OH249795   4.684   3.689   3.998 -0.0961 -0.3813  0.3331
 9435TIP3    H149796   4.692   3.652   4.085 -0.1273  0.5572  0.7432
 9435TIP3    H249797   4.611   3.751   4.004  0.3844  0.2467 -0.1575
 9436TIP3   OH249798   3.997   6.279  13.189 -0.1485  0.3465  0.0193
 9436TIP3    H149799   3.973   6.356  13.137 -1.3739  0.5505  0.8338
 9436TIP3    H249800   3.951   6.291  13.272  1.5129 -0.1307  1.0448
 9437TIP3   OH249801   4.032   0.267   2.758  0.0950 -0.1059 -0.0914
 9437TIP3    H149802   3.958   0.284   2.699  0.6762 -0.4192 -0.9442
 9437TIP3    H249803   3.994   0.267   2.845 -0.9811 -0.6071 -0.5375
 9438TIP3   OH249804   0.346   4.086  16.166  0.0552  0.1898  0.2458
 9438TIP3    H149805   0.412   4.091  16.097 -0.0787  1.3135  0.1744
 9438TIP3    H249806   0.389   4.040  16.237  0.7453  0.4402  0.0010
 9439TIP3   OH249807   6.599   4.786  10.496  0.2005 -0.3120 -0.1299
 9439TIP3    H149808   6.544   4.779  10.418 -0.6540 -1.0262  0.5344
 9439TIP3    H249809   6.654   4.863  10.479  1.6209 -1.7127 -2.4329
 9440TIP3   OH249810   4.519   2.878   1.408 -0.2062 -0.1786  0.1688
 9440TIP3    H149811   4.565   2.809   1.360 -0.3078  0.6481 -1.1474
 9440TIP3    H249812   4.427   2.851   1.405 -0.1701 -0.3068  0.2021
 9441TIP3   OH249813   3.821   3.773  16.785 -0.0750 -0.1492 -0.2721
 9441TIP3    H149814   3.828   3.747  16.877 -1.0293 -1.5262 -0.5561
 9441TIP3    H249815   3.847   3.695  16.736 -1.6942 -0.1617 -1.1659
 9442TIP3   OH249816   2.262   1.665  16.615 -0.1422  0.2977 -0.0835
 9442TIP3    H149817   2.301   1.656  16.702  0.7158 -1.7532 -0.5969
 9442TIP3    H249818   2.168   1.671  16.631  0.0992  1.6235  1.0262
 9443TIP3   OH249819   4.258   2.336  10.915  0.0410  0.1546 -0.2194
 9443TIP3    H149820   4.288   2.427  10.917 -0.9687  0.4937  0.1905
 9443TIP3    H249821   4.164   2.341  10.933 -0.0831 -0.9493 -0.4693
 9444TIP3   OH249822   4.287   5.011  14.222 -0.7526  0.4686 -0.4596
 9444TIP3    H149823   4.237   5.059  14.288 -1.2986 -2.8441  1.7314
 9444TIP3    H249824   4.377   5.010  14.255 -0.7371  0.0194 -0.5110
 9445TIP3   OH249825   6.204   4.048  12.523  0.0155 -0.9842 -0.4140
 9445TIP3    H149826   6.140   4.118  12.528  0.9013 -0.1921  0.1624
 9445TIP3    H249827   6.159   3.977  12.476 -0.6341  0.2308 -1.6910
 9446TIP3   OH249828   5.667   1.864  14.821  0.1983  0.0672 -0.1867
 9446TIP3    H149829   5.670   1.832  14.911 -0.9480  0.7514  0.1098
 9446TIP3    H249830   5.702   1.953  14.825 -0.5406  0.3628 -0.2934
 9447TIP3   OH249831   1.333   4.371   2.853 -0.3072 -0.0424  0.3740
 9447TIP3    H149832   1.335   4.462   2.882 -0.1333  0.1321 -0.1656
 9447TIP3    H249833   1.423   4.341   2.860 -0.0007  0.4061 -1.1851
 9448TIP3   OH249834   1.982   3.561  13.908  0.1462 -0.2912  1.1906
 9448TIP3    H149835   1.967   3.645  13.863 -2.2624 -0.0908  2.2326
 9448TIP3    H249836   2.076   3.561  13.927  0.6353  1.1136 -0.8253
 9449TIP3   OH249837   0.665   4.498   1.746 -0.7138  0.2037 -0.4161
 9449TIP3    H149838   0.611   4.576   1.763 -0.8328 -0.2080  1.2397
 9449TIP3    H249839   0.636   4.435   1.811  2.7668  0.4507  1.5625
 9450TIP3   OH249840   3.375   1.180  10.776 -0.4578  0.0743  0.3206
 9450TIP3    H149841   3.379   1.259  10.830 -1.2575  0.0597  0.4143
 9450TIP3    H249842   3.304   1.129  10.813 -0.1351 -0.5628  0.0771
 9451TIP3   OH249843   1.052   2.104   0.881  0.4382 -0.1388  0.2452
 9451TIP3    H149844   0.956   2.107   0.885  0.4033 -0.2130 -0.4054
 9451TIP3    H249845   1.081   2.168   0.946 -0.0647  0.1845  0.1540
 9452TIP3   OH249846   5.104   3.680   6.140 -0.5434 -0.1977  0.0977
 9452TIP3    H149847   5.022   3.725   6.116 -0.0440  1.8796  1.8907
 9452TIP3    H249848   5.080   3.625   6.214 -0.1199  1.4469  1.5047
 9453TIP3   OH249849   3.460   2.140   3.474 -0.1019  0.0348 -0.1900
 9453TIP3    H149850   3.365   2.134   3.470 -0.1065  0.3153 -0.6071
 9453TIP3    H249851   3.490   2.050   3.470 -0.3364 -0.0286 -0.5800
 9454TIP3   OH249852   3.288   3.966   5.064 -0.0589  0.1982  0.3190
 9454TIP3    H149853   3.353   4.019   5.017 -1.0846  0.1401 -1.2593
 9454TIP3    H249854   3.204   4.004   5.039 -0.8224 -2.0121 -0.7182
 9455TIP3   OH249855   1.926   6.370   3.585 -0.2327  0.1980  0.2852
 9455TIP3    H149856   1.846   6.341   3.630  0.0702 -0.0464  0.6691
 9455TIP3    H249857   1.953   6.449   3.632 -0.7268  0.7838 -0.3901
 9456TIP3   OH249858   2.246   3.417   2.096  0.4954  0.0256 -0.3173
 9456TIP3    H149859   2.277   3.474   2.025 -0.0844 -0.4522 -0.9665
 9456TIP3    H249860   2.175   3.366   2.057 -0.4834  0.4283  0.8723
 9457TIP3   OH249861   1.160   2.932   0.557 -0.4904  0.3500  0.0968
 9457TIP3    H149862   1.151   2.842   0.589 -0.6848 -0.1481 -1.3082
 9457TIP3    H249863   1.083   2.946   0.501 -0.0321  1.0985 -0.3635
 9458TIP3   OH249864   5.560   2.063  12.612 -0.0349  0.0645  0.0232
 9458TIP3    H149865   5.482   2.013  12.589  1.1465 -2.0231  0.3128
 9458TIP3    H249866   5.529   2.130  12.674 -1.3575 -1.8127  1.4843
 9459TIP3   OH249867   4.801   4.811  15.837 -0.3545  0.0752  0.0346
 9459TIP3    H149868   4.768   4.897  15.862  0.5468  0.3375  0.3296
 9459TIP3    H249869   4.833   4.822  15.748 -0.0788  0.0927  0.1349
 9460TIP3   OH249870   3.941   1.803  11.664  0.6551 -0.1509  0.3680
 9460TIP3    H149871   3.975   1.827  11.577 -0.3127  2.6069  0.6403
 9460TIP3    H249872   4.019   1.781  11.715  1.2375 -1.9968 -1.1693
 9461TIP3   OH249873   5.474   6.594   0.886 -0.2885 -0.0127  0.3248
 9461TIP3    H149874   5.411   6.649   0.932  0.0078  1.7530 -1.2286
 9461TIP3    H249875   5.559   6.632   0.908 -0.0580 -0.0148 -0.5204
 9462TIP3   OH249876   4.939   4.855   0.781 -0.1704  0.1176  0.5129
 9462TIP3    H149877   5.034   4.861   0.789  0.0423 -1.6088 -0.1954
 9462TIP3    H249878   4.914   4.785   0.842 -0.9173  0.2336  0.3507
 9463TIP3   OH249879   0.264   5.601  16.885  0.4337  0.1834  0.3563
 9463TIP3    H149880   0.312   5.539  16.940  0.9777 -1.0782 -1.4348
 9463TIP3    H249881   0.187   5.624  16.936 -0.0522 -2.3884  0.9392
 9464TIP3   OH249882   2.943   2.769  12.082  0.1826  0.7710  0.3687
 9464TIP3    H149883   2.953   2.689  12.134  0.6520 -0.1219 -1.0480
 9464TIP3    H249884   2.848   2.784  12.081  0.1391  0.6243  1.1965
 9465TIP3   OH249885   2.621   3.965  15.703  0.2482  0.0927 -0.3649
 9465TIP3    H149886   2.715   3.981  15.696  0.2474  1.6425  2.1016
 9465TIP3    H249887   2.614   3.884  15.752  0.2595 -0.4480 -1.2303
 9466TIP3   OH249888   2.992   6.173  12.940  0.1281  0.0975  0.3018
 9466TIP3    H149889   2.977   6.125  12.858 -0.2662  0.8264 -0.0718
 9466TIP3    H249890   3.085   6.161  12.958 -0.3815 -2.8736  1.5848
 9467TIP3   OH249891   5.974   6.811   5.710  0.0644 -0.1996  0.3281
 9467TIP3    H149892   5.963   6.726   5.754 -0.3912 -0.0346  0.5398
 9467TIP3    H249893   6.046   6.797   5.649 -1.3184 -1.3567 -1.1287
 9468TIP3   OH249894   1.955   2.885  11.036  0.4056 -0.4609  0.1795
 9468TIP3    H149895   1.901   2.843  11.103 -0.7308 -0.6606 -0.8429
 9468TIP3    H249896   1.896   2.946  10.992  2.2176  3.3292  2.4170
 9469TIP3   OH249897   5.719   1.256   1.968 -0.4063  0.9054  0.1685
 9469TIP3    H149898   5.640   1.231   1.921 -0.5474  0.1192  0.8059
 9469TIP3    H249899   5.789   1.206   1.927 -0.3124  1.2221 -0.0651
 9470TIP3   OH249900   2.574   1.766   6.487  0.1108 -0.3276 -0.3666
 9470TIP3    H149901   2.494   1.811   6.516  0.6691 -0.0873  0.8568
 9470TIP3    H249902   2.542   1.692   6.436 -0.9491 -0.7182  0.7877
 9471TIP3   OH249903   1.442   6.016   2.349  0.5926  0.1207  0.5468
 9471TIP3    H149904   1.441   6.018   2.444  0.9003 -1.1497  0.5855
 9471TIP3    H249905   1.462   5.925   2.326 -0.0703  0.2742 -0.7325
 9472TIP3   OH249906   5.368   0.301  14.649 -0.1335 -0.6561  0.2049
 9472TIP3    H149907   5.355   0.386  14.692 -0.3286 -0.1952 -0.7447
 9472TIP3    H249908   5.357   0.237  14.720  0.8598  0.1338  1.1069
 9473TIP3   OH249909   1.797   0.446   2.403 -0.6104 -0.2011 -0.1005
 9473TIP3    H149910   1.832   0.524   2.359 -0.0096 -0.9918 -1.0531
 9473TIP3    H249911   1.874   0.392   2.420 -0.8226  0.0365  1.9016
 9474TIP3   OH249912   4.115   5.578   1.670 -0.0073 -0.0950  0.3509
 9474TIP3    H149913   4.137   5.488   1.646  1.1724  0.1855  0.3015
 9474TIP3    H249914   4.034   5.571   1.719  0.3410 -1.2446  0.7945
 9475TIP3   OH249915   6.370   5.357   0.873  0.5381 -0.0609  0.0683
 9475TIP3    H149916   6.409   5.351   0.960  1.6818  0.6968 -0.3663
 9475TIP3    H249917   6.379   5.269   0.837  1.1830 -0.0815  0.2644
 9476TIP3   OH249918   3.344   3.910  15.272  0.4232  0.3969 -0.1688
 9476TIP3    H149919   3.333   3.920  15.366  1.1943  0.2023 -0.0530
 9476TIP3    H249920   3.301   3.987  15.234  2.3182  1.8472  0.4807
 9477TIP3   OH249921   4.381   2.902   0.911  0.1297 -0.1423 -0.0458
 9477TIP3    H149922   4.358   2.980   0.860  0.2522 -0.4886 -0.6355
 9477TIP3    H249923   4.427   2.936   0.988  1.0729  0.3033 -0.7932
 9478TIP3   OH249924   0.344   2.609  12.683 -0.2927  0.0354  0.3342
 9478TIP3    H149925   0.331   2.603  12.588  0.6007 -0.1502  0.2206
 9478TIP3    H249926   0.435   2.585  12.696  0.1084  1.8399  1.0686
 9479TIP3   OH249927   1.134   1.545   1.540 -0.1997  0.5552  0.2029
 9479TIP3    H149928   1.075   1.474   1.564  1.3107 -1.5083 -1.8181
 9479TIP3    H249929   1.211   1.531   1.595 -0.8116  2.2256  1.6018
 9480TIP3   OH249930   1.019   5.989   1.352  0.2423  0.3462  0.5631
 9480TIP3    H149931   1.045   6.067   1.401  0.3039  1.6905 -1.4918
 9480TIP3    H249932   0.939   6.015   1.306 -0.2976 -1.1481  0.6118
 9481TIP3   OH249933   4.410   3.222   4.107  0.4334  0.0355  0.3932
 9481TIP3    H149934   4.390   3.143   4.056 -2.0772  0.7138  0.2211
 9481TIP3    H249935   4.382   3.294   4.051 -0.3023  0.8954  1.8225
 9482TIP3   OH249936   0.179   1.445   3.123  0.0288 -0.2067 -0.1689
 9482TIP3    H149937   0.117   1.397   3.068  0.9074 -2.0201  0.3252
 9482TIP3    H249938   0.257   1.456   3.068  0.2174 -0.3309  0.0681
 9483TIP3   OH249939   1.804   4.302  13.377 -0.3926 -0.3159  0.4131
 9483TIP3    H149940   1.798   4.322  13.284 -1.4771  0.1937  0.5753
 9483TIP3    H249941   1.897   4.291  13.394 -0.2961 -3.0879 -1.2725
 9484TIP3   OH249942   1.975   4.017   6.367 -0.1065 -0.4560  0.2041
 9484TIP3    H149943   1.957   4.098   6.319 -2.5639 -1.1235 -0.1448
 9484TIP3    H249944   1.923   4.025   6.447  0.7916 -1.0829  0.8715
 9485TIP3   OH249945   3.013   0.782  16.881  0.3041 -0.6396 -0.1623
 9485TIP3    H149946   2.925   0.818  16.869  0.6911  0.0426 -1.1020
 9485TIP3    H249947   3.023   0.774  16.976  0.0143  1.3679  0.0889
 9486TIP3   OH249948   2.155   5.880   1.744 -0.0985  0.2483  0.7558
 9486TIP3    H149949   2.165   5.944   1.814 -3.1746 -0.5850  2.1176
 9486TIP3    H249950   2.130   5.932   1.668 -0.4892  0.8584  1.2846
 9487TIP3   OH249951   6.115   0.645   3.280  0.0943  0.1164 -0.1107
 9487TIP3    H149952   6.208   0.623   3.275  0.0766  0.2372 -1.3427
 9487TIP3    H249953   6.113   0.739   3.296  0.1869  0.1396 -0.2373
 9488TIP3   OH249954   2.090   0.025  11.822 -0.0506 -0.0215 -0.1168
 9488TIP3    H149955   2.106  -0.034  11.895  1.6761 -1.3205 -1.4672
 9488TIP3    H249956   1.995   0.021  11.808  0.0776 -3.6556 -1.0194
 9489TIP3   OH249957   2.629   1.484  14.383  0.4489 -0.5528 -0.1235
 9489TIP3    H149958   2.606   1.464  14.293 -1.2137 -1.5754  0.4732
 9489TIP3    H249959   2.545   1.490  14.429  1.2328  0.3017  1.2906
 9490TIP3   OH249960   2.017   1.625  15.568 -0.5478  0.2083  0.0765
 9490TIP3    H149961   2.090   1.574  15.533  0.1138 -0.4930  2.2790
 9490TIP3    H249962   1.949   1.618  15.501  0.1357 -2.1760 -0.4861
 9491TIP3   OH249963   5.629   6.760  11.614 -0.0397 -0.0405 -0.2030
 9491TIP3    H149964   5.556   6.699  11.601  0.8877 -1.3856  0.6344
 9491TIP3    H249965   5.629   6.779  11.707  0.7490 -0.1636 -0.1672
 9492TIP3   OH249966   2.485   4.144   5.783  0.4032 -0.1888 -0.5266
 9492TIP3    H149967   2.454   4.180   5.866  1.3897 -0.4928 -0.0020
 9492TIP3    H249968   2.525   4.219   5.738  1.5701 -0.3846  0.1304
 9493TIP3   OH249969   4.025   6.165   0.828  0.1505  0.0085  0.3916
 9493TIP3    H149970   4.075   6.085   0.810 -1.1959 -0.4177 -1.8952
 9493TIP3    H249971   4.086   6.236   0.807  0.9943 -0.4005  1.3615
 9494TIP3   OH249972   6.324   5.114  16.364 -0.1332 -0.1457 -0.0646
 9494TIP3    H149973   6.376   5.036  16.343 -1.5302 -1.0731 -0.2686
 9494TIP3    H249974   6.358   5.144  16.448  0.6904 -0.7530 -0.1709
 9495TIP3   OH249975   1.225   5.095  14.811 -0.0937 -0.2594 -0.4560
 9495TIP3    H149976   1.252   5.158  14.879  1.5003 -0.3584 -0.9581
 9495TIP3    H249977   1.204   5.015  14.859 -0.8246  0.2345  0.0700
 9496TIP3   OH249978   1.420   4.408   2.196 -0.3519 -0.2557 -0.2961
 9496TIP3    H149979   1.406   4.502   2.187  0.3917 -0.2179 -1.2889
 9496TIP3    H249980   1.343   4.376   2.243 -0.6379  0.8331 -0.0053
 9497TIP3   OH249981   3.739   1.770  14.604 -0.1376 -0.2455  0.0166
 9497TIP3    H149982   3.681   1.809  14.539 -1.3627 -0.3691  1.0113
 9497TIP3    H249983   3.775   1.692  14.560 -2.1801 -1.2344 -0.0157
 9498TIP3   OH249984   0.597   3.315   2.001 -0.8967 -0.2512 -0.0168
 9498TIP3    H149985   0.682   3.317   2.045 -2.3905 -0.3388  3.1072
 9498TIP3    H249986   0.600   3.235   1.948  0.6144 -0.7811  0.7913
 9499TIP3   OH249987   1.706   6.393  14.581 -0.3707  0.2903 -0.3320
 9499TIP3    H149988   1.666   6.378  14.667  1.1132 -0.9801  0.1861
 9499TIP3    H249989   1.640   6.442  14.532 -1.6413  0.1974  1.2036
 9500TIP3   OH249990   5.311   5.324  12.497  0.4760  0.1051  0.5925
 9500TIP3    H149991   5.353   5.244  12.530 -0.4768  0.1991  2.1353
 9500TIP3    H249992   5.218   5.307  12.507  0.1026  0.1357 -2.2101
 9501TIP3   OH249993   6.648   2.441   3.298 -0.1156 -0.0323 -0.3907
 9501TIP3    H149994   6.605   2.384   3.363 -0.6679  1.8710  1.0030
 9501TIP3    H249995   6.678   2.516   3.349  2.8039 -0.1495 -1.7305
 9502TIP3   OH249996   1.332   4.464   5.992  0.3672  0.3386 -0.7769
 9502TIP3    H149997   1.398   4.464   6.062  1.1148 -1.4291 -1.4291
 9502TIP3    H249998   1.338   4.552   5.955  0.1932  1.2045  1.1280
 9503TIP3   OH249999   0.933   6.706   2.737 -0.6326  0.2736 -0.4406
 9503TIP3    H150000   1.014   6.709   2.788 -0.7293 -0.7952 -0.1808
 9503TIP3    H250001   0.917   6.612   2.725 -1.8599  0.4696 -0.4372
 9504TIP3   OH250002   4.098   2.616  10.919  0.3375  0.6928  0.4411
 9504TIP3    H150003   4.083   2.524  10.942  4.4267 -0.5727 -0.9816
 9504TIP3    H250004   4.015   2.645  10.880 -0.7962 -2.7248 -0.0376
 9505TIP3   OH250005   0.595   6.774  17.119  0.3846 -0.1742  0.3142
 9505TIP3    H150006   0.613   6.822  17.200  0.7368 -1.2864  0.9164
 9505TIP3    H250007   0.650   6.696  17.125 -0.7647 -1.0621 -0.2523
 9506TIP3   OH250008   1.449   1.459   0.014 -0.6758  1.3110  1.3845
 9506TIP3    H150009   1.461   1.499  -0.072  1.7060  0.1735  1.1059
 9506TIP3    H250010   1.488   1.522   0.076 -0.8577  1.3688  1.4398
 9507TIP3   OH250011   1.804   4.292   4.946 -0.1858 -1.4518  0.5508
 9507TIP3    H150012   1.757   4.332   4.873 -1.3371 -2.0656  0.9225
 9507TIP3    H250013   1.779   4.343   5.022  1.6471 -0.3132  0.4321
 9508TIP3   OH250014   1.457   1.737   0.485 -0.0845  0.0952  0.1142
 9508TIP3    H150015   1.439   1.718   0.393  0.3123 -0.5039  0.1567
 9508TIP3    H250016   1.552   1.727   0.494 -0.0317  0.8145  0.4397
 9509TIP3   OH250017   4.338   0.995  15.814  0.2258  0.1179  0.2559
 9509TIP3    H150018   4.432   0.982  15.800  0.2629 -0.4668  0.9827
 9509TIP3    H250019   4.333   1.065  15.880  0.1185  0.7861 -0.4403
 9510TIP3   OH250020   3.788   5.400  13.924  0.1659  0.1295 -0.4396
 9510TIP3    H150021   3.858   5.347  13.961  0.4220 -0.1966 -1.3857
 9510TIP3    H250022   3.760   5.456  13.997  1.8975  0.7861 -0.2362
 9511TIP3   OH250023   3.758   3.613   6.248  1.0596 -0.1851 -0.5689
 9511TIP3    H150024   3.698   3.579   6.314  0.0240 -0.2509 -1.5136
 9511TIP3    H250025   3.752   3.708   6.257 -0.9965 -0.0975 -2.1529
 9512TIP3   OH250026   3.141   4.756  17.235  0.4885 -0.5047  0.8384
 9512TIP3    H150027   3.121   4.705  17.314  0.6868 -0.5082  0.8894
 9512TIP3    H250028   3.206   4.820  17.264  0.5569 -0.5008  0.6813
 9513TIP3   OH250029   6.428   2.808   1.664 -0.3959 -0.3623  0.2141
 9513TIP3    H150030   6.444   2.743   1.596  1.5302 -2.6155  2.6099
 9513TIP3    H250031   6.502   2.869   1.656 -0.0755 -0.7254  0.4143
 9514TIP3   OH250032   0.523   4.955   3.024  0.1696 -0.1930  0.3208
 9514TIP3    H150033   0.551   5.003   2.946  1.4395  0.4798  1.1485
 9514TIP3    H250034   0.440   4.916   3.000 -0.9290  2.4008 -0.4151
 9515TIP3   OH250035   4.220   4.892   1.406 -0.0561  0.0111  0.1107
 9515TIP3    H150036   4.222   4.821   1.343 -0.6055 -1.0087  1.2070
 9515TIP3    H250037   4.218   4.849   1.492 -1.3496  1.2996  0.7796
 9516TIP3   OH250038   0.189   4.913  13.680 -0.1502 -0.2399  0.1056
 9516TIP3    H150039   0.220   4.892  13.768  0.2781 -1.6481 -0.3613
 9516TIP3    H250040   0.106   4.867  13.672 -0.5367  0.4636  0.0157
 9517TIP3   OH250041   1.813   4.443   1.381  0.0352 -0.4700  0.2722
 9517TIP3    H150042   1.827   4.460   1.474 -0.1477  1.6470 -0.0467
 9517TIP3    H250043   1.897   4.408   1.351  0.8157  0.8732  0.8126
 9518TIP3   OH250044   5.899   1.817  16.592 -0.0494 -0.5166 -0.0258
 9518TIP3    H150045   5.846   1.887  16.630 -0.5354  0.0319 -1.6794
 9518TIP3    H250046   5.963   1.797  16.661  0.9595  2.4582  0.0416
 9519TIP3   OH250047   5.221   3.845  11.434  0.0963 -0.2412 -0.1644
 9519TIP3    H150048   5.228   3.851  11.339  1.5119 -1.7251 -0.2076
 9519TIP3    H250049   5.232   3.934  11.466 -0.6464  0.3039 -1.3863
 9520TIP3   OH250050   3.100   0.830   0.582 -0.4384 -0.6542  0.2953
 9520TIP3    H150051   3.088   0.918   0.545 -0.3092 -0.3879  0.8675
 9520TIP3    H250052   3.011   0.799   0.599 -0.7390 -2.0621 -3.0495
 9521TIP3   OH250053   5.149   3.273  13.237 -0.3577  0.3221  0.4911
 9521TIP3    H150054   5.185   3.184  13.243  2.2824  1.3831  1.6557
 9521TIP3    H250055   5.150   3.305  13.327  0.2227  2.0678 -0.1073
 9522TIP3   OH250056   1.048   4.519   0.560 -0.5938 -0.2566 -0.0341
 9522TIP3    H150057   0.990   4.452   0.524 -1.7080  0.2489  0.7547
 9522TIP3    H250058   1.003   4.550   0.639  0.3386  0.7670  0.1251
 9523TIP3   OH250059   0.266   4.243  12.363 -0.7353 -0.1237  0.0154
 9523TIP3    H150060   0.308   4.223  12.279 -1.5327  0.2648 -0.5034
 9523TIP3    H250061   0.206   4.170  12.378 -0.2001 -0.4648  0.5351
 9524TIP3   OH250062   1.314   5.951   0.628 -0.2203 -0.5255  0.1742
 9524TIP3    H150063   1.390   5.986   0.674 -0.8094  1.2773 -0.1421
 9524TIP3    H250064   1.242   5.959   0.690 -0.1260 -2.6734  0.6497
 9525TIP3   OH250065   5.904   6.411  12.530  0.4684  0.4315 -0.5345
 9525TIP3    H150066   5.997   6.433  12.528  1.0067 -1.0175  2.7265
 9525TIP3    H250067   5.863   6.472  12.468  3.2810  2.4614 -0.5647
 9526TIP3   OH250068   2.347   5.154   1.830  0.0011  0.3982 -0.2442
 9526TIP3    H150069   2.297   5.235   1.835  1.3324  1.1931  0.7269
 9526TIP3    H250070   2.297   5.092   1.883 -0.2801  0.9926  0.1982
 9527TIP3   OH250071   4.521   6.636  15.750 -0.0924  0.7050 -0.2124
 9527TIP3    H150072   4.454   6.630  15.818  0.7927  0.5195  0.6731
 9527TIP3    H250073   4.484   6.590  15.675 -0.2911 -0.9116  0.8165
 9528TIP3   OH250074   2.444   3.778   4.551 -0.4682 -0.0549  0.3389
 9528TIP3    H150075   2.400   3.758   4.468  0.2913  1.2962 -0.4271
 9528TIP3    H250076   2.397   3.854   4.585  1.5263  1.8088 -0.7925
 9529TIP3   OH250077   0.953   1.362   4.582 -0.3873 -0.0188  0.1051
 9529TIP3    H150078   1.033   1.409   4.558 -0.5363 -0.3172 -1.0006
 9529TIP3    H250079   0.929   1.400   4.667 -0.1823  1.5136 -0.4788
 9530TIP3   OH250080   3.780   4.481  12.566  0.6779 -0.6232 -0.4340
 9530TIP3    H150081   3.705   4.528  12.602  0.3305 -1.8172  0.4901
 9530TIP3    H250082   3.811   4.536  12.494 -0.6790  0.2073 -0.4184
 9531TIP3   OH250083   4.631   1.713   3.978 -0.9645 -0.1829  0.5066
 9531TIP3    H150084   4.708   1.698   4.033  0.9279 -1.4683 -2.2276
 9531TIP3    H250085   4.615   1.628   3.935 -2.2157  0.7448 -0.9911
 9532TIP3   OH250086   4.672   5.784   0.473  0.3158 -0.0218 -0.4080
 9532TIP3    H150087   4.662   5.852   0.540  0.3704 -0.5275  0.1252
 9532TIP3    H250088   4.590   5.735   0.476  1.6132 -2.3266  1.8987
 9533TIP3   OH250089   2.213   0.381  13.765  0.1224 -0.0646 -0.3745
 9533TIP3    H150090   2.234   0.313  13.701  0.2542 -0.1040 -0.2905
 9533TIP3    H250091   2.120   0.399  13.752 -0.1826 -1.0534  0.3551
 9534TIP3   OH250092   0.710   0.365   5.180 -0.1179  0.3987 -0.1720
 9534TIP3    H150093   0.709   0.324   5.267  2.3563  1.3469  0.3965
 9534TIP3    H250094   0.777   0.316   5.131  0.6159  1.6997 -0.5208
 9535TIP3   OH250095   0.853   2.695  10.605  0.0053  0.2748  0.5253
 9535TIP3    H150096   0.895   2.777  10.632  0.7082  0.2103 -0.3163
 9535TIP3    H250097   0.926   2.634  10.594 -0.4888 -0.3823  0.8546
 9536TIP3   OH250098   5.262   3.681  14.696  0.4988  0.9768  0.2262
 9536TIP3    H150099   5.188   3.664  14.638  1.3160  1.4895 -1.0188
 9536TIP3    H250100   5.240   3.762  14.742 -0.9467 -0.3612  2.0250
 9537TIP3   OH250101   4.808   0.190  13.237  0.0893 -0.2309 -0.0925
 9537TIP3    H150102   4.823   0.172  13.330  0.7634  0.4030 -0.0711
 9537TIP3    H250103   4.895   0.190  13.198 -0.0115  1.3072 -0.3893
 9538TIP3   OH250104   0.149   0.368   2.697  0.3885 -0.6032 -0.7865
 9538TIP3    H150105   0.165   0.275   2.711 -3.2977 -1.1740  0.7231
 9538TIP3    H250106   0.179   0.410   2.778  2.3559 -0.3078 -1.5932
 9539TIP3   OH250107   4.203   0.275   4.888 -0.0479 -0.3904  0.7177
 9539TIP3    H150108   4.280   0.332   4.887  1.0655 -1.7950  1.9268
 9539TIP3    H250109   4.174   0.274   4.979 -0.1517 -1.5838  0.6935
 9540TIP3   OH250110   1.425   2.354   3.901 -0.0998  0.0479 -0.4904
 9540TIP3    H150111   1.389   2.323   3.984  1.0883  1.6094  0.6610
 9540TIP3    H250112   1.385   2.440   3.888  0.6306  0.3317 -0.9007
 9541TIP3   OH250113   2.355   4.202   2.399 -0.0959 -0.0174 -0.0759
 9541TIP3    H150114   2.319   4.118   2.425 -1.1546  0.3840 -0.2140
 9541TIP3    H250115   2.401   4.233   2.477 -1.7089  0.3484  0.7677
 9542TIP3   OH250116   0.080   3.401   1.788 -0.4760  0.2185 -0.3756
 9542TIP3    H150117   0.112   3.318   1.754  0.9281 -0.2545  1.8514
 9542TIP3    H250118  -0.008   3.382   1.820  0.2626 -0.7700  1.1628
 9543TIP3   OH250119   6.751   5.510  16.586 -0.3098  0.0580 -0.6043
 9543TIP3    H150120   6.744   5.584  16.525  1.5948 -0.4882 -1.5886
 9543TIP3    H250121   6.844   5.508  16.610 -0.6737 -0.9346  0.8279
 9544TIP3   OH250122   6.167   1.688  15.453  0.1306 -0.0584 -0.3771
 9544TIP3    H150123   6.096   1.741  15.416 -0.0632 -1.5942 -2.3667
 9544TIP3    H250124   6.132   1.655  15.536  0.2504  2.8016  0.9269
 9545TIP3   OH250125   4.305   0.579  16.799  0.7431 -0.5238 -0.5131
 9545TIP3    H150126   4.244   0.517  16.840  1.2326  0.6639  2.1708
 9545TIP3    H250127   4.249   0.652  16.771  0.6083 -0.6019 -0.4465
 9546TIP3   OH250128   5.863   2.884   4.646  0.0246 -0.4764  0.8172
 9546TIP3    H150129   5.775   2.904   4.680  0.1004  0.8538  0.2708
 9546TIP3    H250130   5.846   2.838   4.564 -0.1416 -1.9291  1.6176
 9547TIP3   OH250131   5.006   0.217   5.788  0.2842 -0.2507  0.3253
 9547TIP3    H150132   5.022   0.260   5.872  1.6442  0.0463 -0.0715
 9547TIP3    H250133   4.961   0.136   5.812 -0.5254  0.4354  1.2270
 9548TIP3   OH250134   2.351   4.850  16.760 -0.0688 -0.0135  0.3309
 9548TIP3    H150135   2.310   4.916  16.703 -0.4284 -0.0036  0.5965
 9548TIP3    H250136   2.339   4.767  16.713  0.2587  0.0863  0.0629
 9549TIP3   OH250137   5.012   5.451  11.777 -0.7013 -0.2658  0.5726
 9549TIP3    H150138   4.991   5.406  11.859 -3.3398  0.4292  0.3785
 9549TIP3    H250139   4.993   5.543  11.795  0.6548  0.2118 -0.2596
 9550TIP3   OH250140   2.653   2.319   4.442 -0.1380 -0.0436  0.4863
 9550TIP3    H150141   2.567   2.340   4.478 -0.8737 -0.5797 -0.9001
 9550TIP3    H250142   2.691   2.403   4.419 -1.0642  0.0992 -0.5828
 9551TIP3   OH250143   4.571   5.997  15.153  0.0123  0.2079  0.5731
 9551TIP3    H150144   4.488   6.037  15.125 -0.3624 -0.2100  1.0728
 9551TIP3    H250145   4.627   6.001  15.075 -0.6593  0.0113  0.0712
 9552TIP3   OH250146   4.891   3.205  11.213 -0.4072 -0.3732  0.6099
 9552TIP3    H150147   4.940   3.186  11.293 -1.7362  2.3479  2.2096
 9552TIP3    H250148   4.819   3.141  11.213  0.1773 -1.0488  1.0132
 9553TIP3   OH250149   1.129   4.008  15.934 -0.1340 -0.2876 -0.2696
 9553TIP3    H150150   1.122   4.019  15.839  1.3647 -0.1634 -0.3784
 9553TIP3    H250151   1.038   4.002  15.964 -0.6030 -1.3391 -1.8179
 9554TIP3   OH250152   3.307   3.067   3.497  0.0812 -0.3603  0.8026
 9554TIP3    H150153   3.400   3.046   3.498 -0.0337 -1.0965 -0.7808
 9554TIP3    H250154   3.273   3.022   3.420 -1.4368  0.5569  0.8931
 9555TIP3   OH250155   0.612   2.306   0.574  0.8668  0.2289  0.2944
 9555TIP3    H150156   0.705   2.305   0.553  0.3532  1.0176 -2.5892
 9555TIP3    H250157   0.579   2.222   0.541  0.5460 -0.0765  1.3556
 9556TIP3   OH250158   2.993   1.904   5.265  0.2357  0.2040 -0.2835
 9556TIP3    H150159   2.938   1.844   5.316 -0.6128 -0.0239 -1.4252
 9556TIP3    H250160   3.026   1.966   5.329 -0.8192 -0.0660  0.5555
 9557TIP3   OH250161   1.955   1.425  16.072  0.3042 -0.0546  0.2562
 9557TIP3    H150162   2.024   1.492  16.065  1.4133 -1.0927  0.8482
 9557TIP3    H250163   1.889   1.465  16.128  0.5224  0.8734 -0.1235
 9558TIP3   OH250164   1.200   2.762   5.536  0.0480 -0.5294  0.7100
 9558TIP3    H150165   1.151   2.839   5.507  1.3068 -0.3324 -1.0830
 9558TIP3    H250166   1.144   2.688   5.514 -0.4177 -0.2108  0.8062
 9559TIP3   OH250167   5.769   0.055   1.889  0.1527 -0.8979  0.3671
 9559TIP3    H150168   5.698   0.076   1.829 -0.4751 -0.8111  1.1135
 9559TIP3    H250169   5.737   0.087   1.974  1.5395  0.1492  0.5279
 9560TIP3   OH250170   5.101   3.036  16.322 -0.2840 -0.0216  0.2675
 9560TIP3    H150171   5.168   2.968  16.314 -0.9644 -0.5183 -1.5143
 9560TIP3    H250172   5.147   3.118  16.303 -0.3862 -0.4823 -2.2155
 9561TIP3   OH250173   2.012   1.338   0.622  0.2606  0.1901 -0.2996
 9561TIP3    H150174   1.945   1.403   0.600  0.8903  1.1902  0.5967
 9561TIP3    H250175   1.978   1.295   0.701  0.7413  0.8269  0.2635
 9562TIP3   OH250176   3.179   1.102  14.914 -0.1576  0.3269 -0.6439
 9562TIP3    H150177   3.182   1.015  14.875 -0.4068 -0.0196  0.0772
 9562TIP3    H250178   3.179   1.163  14.840 -1.5285 -0.3194 -1.2004
 9563TIP3   OH250179   5.974   6.716   4.673  0.1505 -0.2176  0.2708
 9563TIP3    H150180   5.903   6.778   4.692 -0.8714 -0.9845 -0.9487
 9563TIP3    H250181   5.961   6.645   4.736  1.0244  0.5407  1.3386
 9564TIP3   OH250182   3.457   1.422   5.986 -0.0308  0.5330  0.1826
 9564TIP3    H150183   3.425   1.422   6.077 -2.3424  0.3591 -0.5633
 9564TIP3    H250184   3.492   1.334   5.973  0.9428  0.7583  1.0609
 9565TIP3   OH250185   5.084   3.956   0.012 -0.5227 -0.1632 -0.6810
 9565TIP3    H150186   5.023   3.882   0.015 -1.1871  0.3615 -0.7755
 9565TIP3    H250187   5.171   3.917   0.018 -0.9126 -0.8071  1.5530
 9566TIP3   OH250188   0.062   3.440  16.188 -0.4221  0.1669 -0.5349
 9566TIP3    H150189   0.063   3.433  16.093 -0.7126  0.1298 -0.5334
 9566TIP3    H250190   0.091   3.354  16.219 -1.7753 -0.3109 -0.5609
 9567TIP3   OH250191   3.208   5.912   2.269  0.0674  0.4859 -0.6190
 9567TIP3    H150192   3.202   5.974   2.197 -2.5139  2.0076  0.7842
 9567TIP3    H250193   3.276   5.948   2.326  1.4241 -0.2090 -1.7341
 9568TIP3   OH250194   3.695   3.240  15.554  0.3293 -0.4583 -0.2114
 9568TIP3    H150195   3.763   3.301  15.523 -0.5004 -0.3089 -1.8124
 9568TIP3    H250196   3.679   3.182  15.480 -0.9796 -0.7737  0.2950
 9569TIP3   OH250197   0.410   3.929   5.830 -0.1848  0.0120 -0.0319
 9569TIP3    H150198   0.467   3.910   5.755  1.2813  0.5130  0.9010
 9569TIP3    H250199   0.471   3.947   5.901 -1.5397 -0.5175  1.3117
 9570TIP3   OH250200   0.542   2.976  14.767  0.3355  0.0307  0.4503
 9570TIP3    H150201   0.560   3.071  14.768  0.2663  0.0422  0.5686
 9570TIP3    H250202   0.546   2.953  14.674  1.0155  0.0237  0.4749
 9571TIP3   OH250203   1.634   6.511  10.879  0.0796  0.4800 -0.1635
 9571TIP3    H150204   1.706   6.511  10.816 -0.8970  1.0580 -1.3061
 9571TIP3    H250205   1.559   6.475  10.831 -0.4796  0.1335  0.9250
 9572TIP3   OH250206   1.464   1.151   3.194  0.3795  0.5478  0.3270
 9572TIP3    H150207   1.462   1.098   3.114  1.0353 -0.6982  1.1229
 9572TIP3    H250208   1.550   1.135   3.233  0.0444  1.0767  1.3311
 9573TIP3   OH250209   0.833   6.729  16.792 -0.5433 -0.0496 -0.3397
 9573TIP3    H150210   0.752   6.712  16.743  0.1010  1.0636 -1.8919
 9573TIP3    H250211   0.822   6.818  16.826 -0.5415 -0.4252  0.6855
 9574TIP3   OH250212   3.058   5.691  11.927  0.2099 -0.1081 -1.0574
 9574TIP3    H150213   2.987   5.749  11.954  1.0831  1.1337 -1.3372
 9574TIP3    H250214   3.038   5.607  11.969 -1.7224  0.0190 -1.5861
 9575TIP3   OH250215   0.474   0.996  13.203 -0.2612 -0.2298 -0.4299
 9575TIP3    H150216   0.466   0.902  13.214  0.5716 -0.0194  3.2046
 9575TIP3    H250217   0.561   1.017  13.236  0.0499  1.7462 -2.2763
 9576TIP3   OH250218   3.754   0.549  12.861  0.1779  0.1485  0.2589
 9576TIP3    H150219   3.689   0.543  12.791 -0.3593  0.8850  0.6687
 9576TIP3    H250220   3.720   0.494  12.931  0.0284  0.4731  0.4446
 9577TIP3   OH250221   6.210   4.726  17.066 -0.2181  0.0797  0.1321
 9577TIP3    H150222   6.144   4.747  17.132 -0.8423  0.7352 -0.6744
 9577TIP3    H250223   6.267   4.803  17.065 -0.1209  0.0058  0.0161
 9578TIP3   OH250224   4.734   4.300   2.227  0.1585  0.4553 -0.7635
 9578TIP3    H150225   4.811   4.280   2.280 -0.4086 -1.5961 -0.6033
 9578TIP3    H250226   4.753   4.385   2.188  0.9918  1.6377  1.9712
 9579TIP3   OH250227   1.805   1.283   1.193  0.2011  0.5246  0.3277
 9579TIP3    H150228   1.805   1.369   1.153 -0.3921  0.3498 -0.0664
 9579TIP3    H250229   1.870   1.289   1.263  0.7423  1.0416 -0.2059
 9580TIP3   OH250230   6.675   1.202  11.299  0.3781 -0.1128 -1.4036
 9580TIP3    H150231   6.617   1.160  11.235 -0.5502  1.6078 -1.7639
 9580TIP3    H250232   6.691   1.289  11.263  3.1585 -0.4638 -1.2507
 9581TIP3   OH250233   4.390   1.642   4.433 -0.2383 -0.6347 -0.0225
 9581TIP3    H150234   4.297   1.624   4.422 -0.3699  0.6078 -1.1390
 9581TIP3    H250235   4.395   1.693   4.513 -0.2615 -2.3414  1.1288
 9582TIP3   OH250236   0.560   3.505   3.268  0.1012  0.1409 -0.1549
 9582TIP3    H150237   0.591   3.452   3.341 -1.6318 -1.3303 -0.4052
 9582TIP3    H250238   0.465   3.502   3.275 -0.0824  3.2335 -0.2428
 9583TIP3   OH250239   1.203   4.704   4.575 -0.0842  0.0658 -0.2055
 9583TIP3    H150240   1.262   4.745   4.639  0.1106  1.9908 -1.5479
 9583TIP3    H250241   1.259   4.686   4.500 -0.7372 -0.2648 -0.6170
 9584TIP3   OH250242   1.232   6.231   3.500  0.2173 -0.4832 -0.2231
 9584TIP3    H150243   1.324   6.245   3.478  0.8721 -1.9734  1.3518
 9584TIP3    H250244   1.231   6.222   3.596 -1.2598 -2.4365 -0.3627
 9585TIP3   OH250245   1.057   5.681   0.355  0.2000  0.5487 -0.0805
 9585TIP3    H150246   1.015   5.722   0.279  2.2870  0.7728 -1.2098
 9585TIP3    H250247   1.053   5.747   0.424 -1.1677  0.5868 -0.1734
 9586TIP3   OH250248   5.739   2.021  15.610 -0.0690  0.0082  0.2880
 9586TIP3    H150249   5.726   2.092  15.673 -0.1269  0.0022  0.2830
 9586TIP3    H250250   5.658   1.970  15.614 -0.1246  0.0821  0.1148
 9587TIP3   OH250251   5.890   0.585   5.556  0.3857 -0.2131  0.4672
 9587TIP3    H150252   5.884   0.604   5.463 -0.8235 -1.7681  0.1916
 9587TIP3    H250253   5.928   0.664   5.595 -0.4930  1.0299 -1.1281
 9588TIP3   OH250254   6.477   5.927  13.670 -0.0805  0.6040 -0.1287
 9588TIP3    H150255   6.387   5.908  13.694 -0.1852  1.0655 -0.1366
 9588TIP3    H250256   6.526   5.849  13.696 -0.4766  0.3619 -0.1003
 9589TIP3   OH250257   1.311   0.549   2.527 -0.6314 -0.2770 -0.6782
 9589TIP3    H150258   1.401   0.516   2.531 -0.5763 -0.1506  4.2977
 9589TIP3    H250259   1.313   0.616   2.458  2.6564 -1.2101 -1.6618
 9590TIP3   OH250260   4.508   6.103   1.208 -0.0008 -0.1295 -0.3516
 9590TIP3    H150261   4.444   6.173   1.195 -1.3665 -1.5386 -1.4203
 9590TIP3    H250262   4.460   6.032   1.249  0.7652 -1.3353 -1.4409
 9591TIP3   OH250263   1.659   5.753  16.046 -0.4600 -0.8654  0.0401
 9591TIP3    H150264   1.691   5.796  16.125 -1.9128 -1.4277  0.9698
 9591TIP3    H250265   1.725   5.772  15.980  1.5750 -1.6388  1.7427
 9592TIP3   OH250266   1.699   5.264   2.550 -0.3785  0.1570  0.5914
 9592TIP3    H150267   1.736   5.176   2.547 -0.5701  0.0598  1.0206
 9592TIP3    H250268   1.640   5.263   2.626  0.3288  0.9318  1.1719
 9593TIP3   OH250269   4.186   3.430   1.677  0.6206  0.1047  0.5397
 9593TIP3    H150270   4.165   3.411   1.768  1.3807 -1.3393  0.4329
 9593TIP3    H250271   4.140   3.363   1.627  2.7428 -1.0873  0.0939
 9594TIP3   OH250272   1.509   3.501  14.238 -0.2296 -0.0217  0.2699
 9594TIP3    H150273   1.443   3.434  14.254 -1.7767  1.3563 -0.0925
 9594TIP3    H250274   1.553   3.474  14.158 -0.1383 -1.1018  0.6699
 9595TIP3   OH250275   6.659   6.302  12.745  0.1916 -0.1144 -0.7718
 9595TIP3    H150276   6.624   6.384  12.782 -1.0384 -0.7128 -0.5400
 9595TIP3    H250277   6.605   6.286  12.668  0.2514 -0.8270 -0.6751
 9596TIP3   OH250278   4.994   4.762   2.181 -0.5746  0.5996  0.3814
 9596TIP3    H150279   4.983   4.849   2.141 -0.7017  0.4324  0.0538
 9596TIP3    H250280   5.068   4.724   2.136 -0.5395  0.5210  0.5045
 9597TIP3   OH250281   4.589   3.295   4.314  0.4067 -0.1634 -0.1529
 9597TIP3    H150282   4.519   3.274   4.253  1.7085 -1.5260 -1.2407
 9597TIP3    H250283   4.628   3.375   4.278 -0.0896  0.1629  0.0252
 9598TIP3   OH250284   2.321   3.795   4.183  0.7449  0.0764  0.5659
 9598TIP3    H150285   2.252   3.825   4.242 -0.3457 -1.3232  0.0880
 9598TIP3    H250286   2.286   3.813   4.095  0.8788 -0.7969  0.3180
 9599TIP3   OH250287   0.754   4.329   2.193  0.0111 -0.3417 -0.0596
 9599TIP3    H150288   0.770   4.345   2.286 -0.6432  1.8708 -0.2622
 9599TIP3    H250289   0.666   4.293   2.189  0.4954 -1.6373  0.2184
 9600TIP3   OH250290   4.026   1.347  15.459 -0.2716 -0.3806 -0.4364
 9600TIP3    H150291   4.097   1.410  15.470 -1.4676  1.2390 -1.5103
 9600TIP3    H250292   3.992   1.364  15.371 -2.7714 -0.2198  0.4714
 9601TIP3   OH250293   2.487   4.626   2.564  0.0205  0.1486  0.6620
 9601TIP3    H150294   2.433   4.638   2.486  0.4370 -1.0759  0.1583
 9601TIP3    H250295   2.501   4.714   2.597 -1.0079  0.6070 -0.0671
 9602TIP3   OH250296   1.428   2.396  11.772  0.2441 -0.7208 -0.3935
 9602TIP3    H150297   1.342   2.404  11.814 -0.0549  1.0198 -1.2665
 9602TIP3    H250298   1.489   2.434  11.836  0.5288 -2.5771  0.5271
 9603TIP3   OH250299   3.502   4.314   0.138 -0.0891  0.8225 -0.1590
 9603TIP3    H150300   3.419   4.268   0.122  0.0833 -0.5780  2.3868
 9603TIP3    H250301   3.567   4.266   0.087 -0.6407  1.1741 -1.2120
 9604TIP3   OH250302   4.370   2.507  11.918 -0.1024 -0.1866  0.1464
 9604TIP3    H150303   4.361   2.600  11.897  0.1740 -0.5348 -1.6564
 9604TIP3    H250304   4.452   2.501  11.967 -1.0819  0.7475  2.0039
 9605TIP3   OH250305   4.735   5.431   3.394 -0.0330  1.0205 -1.0312
 9605TIP3    H150306   4.642   5.418   3.415  0.3146 -1.1182 -0.5436
 9605TIP3    H250307   4.782   5.389   3.466  1.2661 -0.1461 -2.4756
 9606TIP3   OH250308   5.180   4.412   5.620 -0.1481  0.0471 -0.3543
 9606TIP3    H150309   5.152   4.453   5.701  0.2964 -0.2929 -0.0211
 9606TIP3    H250310   5.205   4.323   5.645 -0.7563 -0.3195 -1.0015
 9607TIP3   OH250311   1.809   1.532   4.558 -0.0004 -0.4352 -0.7611
 9607TIP3    H150312   1.857   1.571   4.485 -0.1468  2.3160  0.5158
 9607TIP3    H250313   1.852   1.566   4.636 -0.5770 -2.3975  0.4666
 9608TIP3   OH250314   4.887   1.830   5.903 -0.0237 -0.3926 -0.0452
 9608TIP3    H150315   4.930   1.848   5.987  0.4142 -1.0888 -0.1104
 9608TIP3    H250316   4.797   1.861   5.915 -0.0032 -0.6076  0.7316
 9609TIP3   OH250317   2.352   0.601   1.367  0.1337 -0.4355 -0.2385
 9609TIP3    H150318   2.413   0.528   1.372  0.1925 -0.3182  0.9521
 9609TIP3    H250319   2.371   0.655   1.444 -1.7897 -0.6588  0.4618
 9610TIP3   OH250320   1.260   5.061   0.514 -0.0670  0.3822  0.3072
 9610TIP3    H150321   1.242   4.967   0.508  1.8071  0.0507 -1.2019
 9610TIP3    H250322   1.331   5.067   0.578  0.1397  0.7096  0.0497
 9611TIP3   OH250323   6.343   3.637   4.394 -0.1718 -0.7104 -0.0693
 9611TIP3    H150324   6.320   3.724   4.362  0.8102 -0.2092  0.5493
 9611TIP3    H250325   6.392   3.653   4.474 -0.9742 -1.8753  0.6973
 9612TIP3   OH250326   3.702   3.178   2.820 -0.2489  0.2644  0.3006
 9612TIP3    H150327   3.641   3.231   2.872  0.7787  0.2785  1.5395
 9612TIP3    H250328   3.774   3.160   2.880  1.0136  0.3281 -1.1591
 9613TIP3   OH250329   2.574   1.730   3.746  0.4860 -0.3330  0.0169
 9613TIP3    H150330   2.611   1.810   3.784  1.5425  0.0730 -1.7591
 9613TIP3    H250331   2.633   1.661   3.775 -0.5384 -0.5339  1.7170
 9614TIP3   OH250332   1.186   2.997  10.952 -0.2589 -0.0156  0.1907
 9614TIP3    H150333   1.140   3.030  11.030  1.9272  0.3939  1.3715
 9614TIP3    H250334   1.123   2.936  10.912 -1.8786  0.6272  1.6196
 9615TIP3   OH250335   6.809   0.566   5.007 -0.3260 -0.4636  0.5533
 9615TIP3    H150336   6.840   0.491   4.957 -2.0723 -0.7162 -0.2226
 9615TIP3    H250337   6.795   0.532   5.096  2.2429 -0.1467  1.1580
 9616TIP3   OH250338   0.136   0.626  12.017  0.1784 -0.4785 -0.5668
 9616TIP3    H150339   0.137   0.535  12.048 -0.1067 -0.5135 -0.6612
 9616TIP3    H250340   0.066   0.629  11.952  1.3339 -0.6124 -1.8494
 9617TIP3   OH250341   4.785   6.694   4.739  0.3712  0.1180 -0.2204
 9617TIP3    H150342   4.714   6.755   4.759 -3.3955 -2.7604 -3.3260
 9617TIP3    H250343   4.820   6.723   4.655 -1.5308 -1.7983 -1.7835
 9618TIP3   OH250344   2.014   2.512   2.506  0.0720  0.4963  0.8849
 9618TIP3    H150345   1.982   2.456   2.435  0.8843 -0.6895  1.4188
 9618TIP3    H250346   2.029   2.597   2.464 -1.1554  0.3378  0.0412
 9619TIP3   OH250347   6.151   4.593  13.308  0.4777  0.0497  0.0467
 9619TIP3    H150348   6.126   4.677  13.268 -0.9883  0.1980  1.1923
 9619TIP3    H250349   6.246   4.598  13.316  0.4328  1.5640 -0.0523
 9620TIP3   OH250350   0.030   6.231   0.329 -0.3733 -0.5019 -0.3188
 9620TIP3    H150351   0.052   6.170   0.400 -0.2413 -0.1772 -0.0730
 9620TIP3    H250352   0.114   6.269   0.304 -0.5071 -0.1077 -0.1758
 9621TIP3   OH250353   4.790   6.753  16.749 -0.1165  0.0529  0.7857
 9621TIP3    H150354   4.796   6.696  16.672  0.6404  0.0713  0.8269
 9621TIP3    H250355   4.846   6.711  16.815 -2.3827 -1.1397  2.0986
 9622TIP3   OH250356   0.026   4.923   3.513  1.1089  0.2378 -0.6509
 9622TIP3    H150357   0.081   4.994   3.482  1.7386  0.0715  0.0521
 9622TIP3    H250358   0.082   4.846   3.511  1.0510  0.1433  0.4447
 9623TIP3   OH250359   4.157   3.085  14.129 -0.2321  0.1806 -0.0415
 9623TIP3    H150360   4.124   3.062  14.215 -0.1244  0.2930  0.0290
 9623TIP3    H250361   4.233   3.028  14.116 -1.5946 -1.5133 -1.0250
 9624TIP3   OH250362   3.571   2.923  11.152  0.3752  0.1177  0.1952
 9624TIP3    H150363   3.579   2.929  11.248  0.2103 -0.3854  0.2469
 9624TIP3    H250364   3.480   2.947  11.134  0.8077  1.7137  0.0095
 9625TIP3   OH250365   6.437   4.911   2.832  0.2424 -0.3597 -0.1279
 9625TIP3    H150366   6.368   4.851   2.804 -1.1964  1.0295  0.2998
 9625TIP3    H250367   6.440   4.979   2.764  1.1510 -0.3691 -0.1119
 9626TIP3   OH250368   3.114   4.518   5.141 -0.1720 -0.1551 -0.2157
 9626TIP3    H150369   3.092   4.541   5.231  0.2166  1.1413 -0.4403
 9626TIP3    H250370   3.047   4.561   5.087  0.7334  0.7189 -0.6650
 9627TIP3   OH250371   1.101   6.455   4.643  0.0263  0.3812 -0.3288
 9627TIP3    H150372   1.027   6.411   4.603  0.8259  0.1217 -1.5578
 9627TIP3    H250373   1.079   6.548   4.637 -0.8134  0.2598  0.5823
 9628TIP3   OH250374   3.667   1.901   0.750  0.3759  0.1680  0.6501
 9628TIP3    H150375   3.595   1.950   0.790  0.6034 -0.2506  1.6218
 9628TIP3    H250376   3.632   1.868   0.668 -1.2679 -1.7769  2.0187
 9629TIP3   OH250377   1.697   6.553   0.634  0.4947  0.1064  0.3707
 9629TIP3    H150378   1.789   6.577   0.637  0.5117  0.1733 -0.5392
 9629TIP3    H250379   1.693   6.476   0.578 -0.1201  0.6990 -0.4282
 9630TIP3   OH250380   1.065   2.408  14.243  0.2697 -0.3456  0.4163
 9630TIP3    H150381   1.073   2.389  14.149  0.8472 -0.4543  0.4825
 9630TIP3    H250382   1.093   2.328  14.286  2.9892  0.6217  0.6997
 9631TIP3   OH250383   3.348   5.315  14.616  0.2889 -0.0862  0.3756
 9631TIP3    H150384   3.413   5.373  14.656 -0.5158  0.4746  0.8918
 9631TIP3    H250385   3.360   5.232  14.662 -0.1160  0.3406  1.2756
 9632TIP3   OH250386   6.202   5.389   4.977  0.3065 -0.1000  0.0670
 9632TIP3    H150387   6.223   5.424   5.064 -0.0737 -0.6958  0.4043
 9632TIP3    H250388   6.238   5.454   4.916 -1.6053  1.6478  0.6546
 9633TIP3   OH250389   6.159   4.579   3.790  0.3079  0.5730 -0.2539
 9633TIP3    H150390   6.191   4.508   3.735 -0.3960  0.3337 -0.3705
 9633TIP3    H250391   6.131   4.647   3.728 -0.0799  0.4818 -0.1850
 9634TIP3   OH250392   3.954   5.610   1.080  0.7813  0.5889  0.6666
 9634TIP3    H150393   3.912   5.526   1.065  0.6397  0.8561 -0.5788
 9634TIP3    H250394   4.038   5.604   1.035  0.9864  0.9355  0.9947
 9635TIP3   OH250395   5.902   3.549  16.579 -0.8930 -0.0805  0.0633
 9635TIP3    H150396   5.892   3.456  16.558 -0.2027 -0.2421  0.4201
 9635TIP3    H250397   5.899   3.593  16.495  2.2237 -0.7527 -0.5095
 9636TIP3   OH250398   4.781   5.994  11.244  0.5467 -0.0846  0.0152
 9636TIP3    H150399   4.747   6.083  11.259 -0.4558 -0.8225  2.8119
 9636TIP3    H250400   4.845   6.005  11.174  1.5960  3.1556  1.2640
 9637TIP3   OH250401   5.465   0.210   3.708  0.4777 -0.4224 -0.3240
 9637TIP3    H150402   5.387   0.210   3.764  0.7090 -0.1107  0.0058
 9637TIP3    H250403   5.533   0.168   3.761  0.5242 -0.7281 -0.6249
 9638TIP3   OH250404   6.058   6.184   1.432  0.8602 -0.7273 -0.2143
 9638TIP3    H150405   6.023   6.150   1.515 -1.4615 -1.9585 -1.5776
 9638TIP3    H250406   5.996   6.251   1.406  0.3196 -1.8331 -1.9390
 9639TIP3   OH250407   5.877   4.483  17.034  0.2860  0.6935  0.2824
 9639TIP3    H150408   5.873   4.578  17.027 -0.0788  0.7416  1.0568
 9639TIP3    H250409   5.935   4.456  16.963 -0.0739  1.4449 -0.3016
 9640TIP3   OH250410   1.890   0.708  16.650  0.8185  0.2222  0.0944
 9640TIP3    H150411   1.845   0.672  16.726  0.1456  0.8155 -0.0017
 9640TIP3    H250412   1.827   0.771  16.613  1.4789  0.5873 -0.4346
 9641TIP3   OH250413   4.176   4.317  16.745  0.2603  0.1368 -0.0421
 9641TIP3    H150414   4.172   4.413  16.743  0.5316  0.1695  0.7674
 9641TIP3    H250415   4.261   4.297  16.707  0.3085  0.2203  0.0212
 9642TIP3   OH250416   2.949   4.740   6.502 -0.1527  0.2764 -0.3352
 9642TIP3    H150417   2.927   4.735   6.409 -2.7069  1.5476  0.1123
 9642TIP3    H250418   2.941   4.833   6.523 -1.0906 -0.1615  1.4545
 9643TIP3   OH250419   1.628   6.808   2.359 -0.6505  0.1938 -0.1541
 9643TIP3    H150420   1.550   6.829   2.307 -0.3797  0.3411 -0.5086
 9643TIP3    H250421   1.594   6.762   2.436 -0.9411 -1.6302 -1.2959
 9644TIP3   OH250422   2.482   5.744  12.125 -0.0328 -0.4091 -0.3448
 9644TIP3    H150423   2.512   5.807  12.190  0.6194 -2.2862  1.2750
 9644TIP3    H250424   2.386   5.755  12.124 -0.1581 -0.9842  1.6909
 9645TIP3   OH250425   1.617   3.645   4.928 -0.0426  0.6705 -0.0703
 9645TIP3    H150426   1.636   3.576   4.864 -0.6496  0.9575 -0.5799
 9645TIP3    H250427   1.651   3.612   5.011 -1.3113 -0.7583 -0.0702
 9646TIP3   OH250428   2.330   5.579   5.969  0.0058  0.2123  0.4773
 9646TIP3    H150429   2.369   5.507   6.019 -0.6656 -1.4997 -1.3144
 9646TIP3    H250430   2.285   5.535   5.896 -1.9021  2.3487  0.2621
 9647TIP3   OH250431   6.118   3.200   5.277 -0.0256 -0.1625 -0.2776
 9647TIP3    H150432   6.086   3.121   5.233  0.2122 -0.8925  0.8181
 9647TIP3    H250433   6.193   3.228   5.226  0.8875 -1.5993  0.2172
 9648TIP3   OH250434   5.273   3.684   3.721 -0.2208 -0.6784 -0.1623
 9648TIP3    H150435   5.353   3.666   3.671 -1.3243 -0.3182 -2.1696
 9648TIP3    H250436   5.251   3.774   3.699 -2.3189 -1.4180 -1.4238
 9649TIP3   OH250437   1.241   2.754  13.869 -0.5487 -0.1937  0.1026
 9649TIP3    H150438   1.288   2.788  13.793  0.0580 -1.5839 -0.1720
 9649TIP3    H250439   1.149   2.757  13.843 -0.3416 -0.7387 -0.7431
 9650TIP3   OH250440   1.215   1.124   5.103  0.0003  0.7716  0.0894
 9650TIP3    H150441   1.204   1.031   5.123  1.8333  0.0644 -1.7757
 9650TIP3    H250442   1.185   1.133   5.013  1.4629  1.6024 -0.3434
 9651TIP3   OH250443   0.883   1.354   2.770  0.3970  0.1236  0.0402
 9651TIP3    H150444   0.919   1.443   2.761  2.2046 -0.6460 -0.7710
 9651TIP3    H250445   0.798   1.367   2.812  0.9464  2.1706  0.6322
 9652TIP3   OH250446   4.380   5.440   1.892 -0.8949 -0.1626 -0.2005
 9652TIP3    H150447   4.313   5.472   1.953  0.1081 -0.9642  1.3817
 9652TIP3    H250448   4.462   5.442   1.942  0.1409  0.0221 -1.8254
 9653TIP3   OH250449   5.524   3.367   2.000  0.1714 -0.3792 -0.1572
 9653TIP3    H150450   5.497   3.277   1.984  1.5662 -0.6960 -0.9942
 9653TIP3    H250451   5.620   3.363   2.002  0.3442  1.2843 -1.7772
 9654TIP3   OH250452   0.357   1.589  12.230 -0.3145  0.3243 -0.1103
 9654TIP3    H150453   0.437   1.539  12.215 -0.5399 -0.1259  0.1488
 9654TIP3    H250454   0.379   1.648  12.302 -0.4404 -0.3473  0.4913
 9655TIP3   OH250455   3.547   5.860   1.594  0.7666 -0.2377 -0.0070
 9655TIP3    H150456   3.598   5.928   1.549  0.2967  0.8570  1.0479
 9655TIP3    H250457   3.527   5.796   1.526 -0.8388  1.8713 -1.6551
 9656TIP3   OH250458   1.695   3.465  17.278 -0.5083 -0.1015  0.1092
 9656TIP3    H150459   1.698   3.548  17.232  0.8520  0.3259  0.9141
 9656TIP3    H250460   1.751   3.407  17.226  1.4028  0.5086  1.3760
 9657TIP3   OH250461   0.125   0.813   0.344 -0.1388  0.4411 -0.1035
 9657TIP3    H150462   0.206   0.822   0.294 -0.5949  1.1228 -0.7486
 9657TIP3    H250463   0.125   0.888   0.404 -1.3552  1.8153 -1.7028
 9658TIP3   OH250464   3.241   2.322  17.184  0.2020 -0.0016  0.2440
 9658TIP3    H150465   3.192   2.242  17.199  0.0338 -0.0292 -0.4284
 9658TIP3    H250466   3.231   2.340  17.091  0.1753  0.8412  0.3963
 9659TIP3   OH250467   5.978   3.462   2.255  0.1251  0.2181  0.1370
 9659TIP3    H150468   6.059   3.497   2.292 -0.7449 -0.4595  2.9816
 9659TIP3    H250469   5.931   3.538   2.223  1.4262  0.7359 -0.5972
 9660TIP3   OH250470   5.395   3.351   5.852  0.0665 -0.1447 -0.2100
 9660TIP3    H150471   5.316   3.298   5.851  0.3281 -0.5789  0.5165
 9660TIP3    H250472   5.450   3.310   5.920 -0.8264  2.6442  2.3944
 9661TIP3   OH250473   4.563   4.368  16.151  0.2027  0.1672 -0.7108
 9661TIP3    H150474   4.557   4.317  16.071  2.4406 -2.1057  0.4239
 9661TIP3    H250475   4.650   4.407  16.149 -0.0460  0.8083  0.2010
 9662TIP3   OH250476   3.505   0.135   5.088 -0.4580  0.2718 -0.4207
 9662TIP3    H150477   3.593   0.123   5.052 -0.9707 -1.4497 -1.1916
 9662TIP3    H250478   3.520   0.174   5.175  0.9753  1.1983 -1.0449
 9663TIP3   OH250479   2.963   4.703   3.538  0.1875 -0.0706  0.5739
 9663TIP3    H150480   2.938   4.617   3.505 -1.8414  0.7602 -0.1977
 9663TIP3    H250481   2.977   4.689   3.632  2.1322 -1.6539  0.1305
 9664TIP3   OH250482   2.029   1.862   4.429  0.5186 -0.2896  0.2861
 9664TIP3    H150483   1.956   1.863   4.491  1.5163 -1.2916  1.5378
 9664TIP3    H250484   2.037   1.770   4.404  0.6039 -0.0030 -0.7711
 9665TIP3   OH250485   5.386   2.132   0.695 -0.2264 -0.1717 -0.3573
 9665TIP3    H150486   5.410   2.146   0.787  1.5719 -1.8273 -0.5131
 9665TIP3    H250487   5.308   2.077   0.699 -0.6944  0.5103  0.1629
 9666TIP3   OH250488   0.943   1.867   3.872  0.3240  0.4429  0.5483
 9666TIP3    H150489   0.872   1.833   3.926  0.6722 -1.1700  0.0449
 9666TIP3    H250490   0.929   1.828   3.786  2.6192 -1.2165  0.8060
 9667TIP3   OH250491   4.038   0.966  15.669 -0.1962  0.1953 -0.0768
 9667TIP3    H150492   4.102   1.003  15.729  0.4192  1.1426 -1.2656
 9667TIP3    H250493   4.033   1.028  15.597 -1.8593 -0.2675 -0.4222
 9668TIP3   OH250494   0.550   0.985  11.381  0.3658  0.6492  0.5236
 9668TIP3    H150495   0.505   0.902  11.362  1.8160  0.0831 -0.6261
 9668TIP3    H250496   0.484   1.038  11.426 -1.1220 -0.5010 -0.2052
 9669TIP3   OH250497   3.788   0.958   1.384  0.4533  0.1095 -0.4337
 9669TIP3    H150498   3.848   1.007   1.328  0.1294  0.2415 -0.6656
 9669TIP3    H250499   3.701   0.981   1.353  0.2669  0.2028  0.1372
 9670TIP3   OH250500   6.666   5.965   4.943  0.1093  0.0988 -0.1569
 9670TIP3    H150501   6.735   6.028   4.965 -0.9648  0.8316  1.2883
 9670TIP3    H250502   6.703   5.880   4.968  0.1131  0.5938  1.7001
 9671TIP3   OH250503   4.642   2.654   1.311 -0.0274 -0.1436  0.2470
 9671TIP3    H150504   4.669   2.658   1.220 -0.0873 -0.1463  0.2292
 9671TIP3    H250505   4.700   2.589   1.351 -1.1071 -1.3921 -0.1652
 9672TIP3   OH250506   3.118   5.206   2.806 -0.2502  0.0729 -0.6216
 9672TIP3    H150507   3.085   5.139   2.745 -0.2391  1.6421 -2.4498
 9672TIP3    H250508   3.046   5.269   2.812  0.6005  1.0935 -0.8413
 9673TIP3   OH250509   2.488   1.862   2.312 -0.5030 -0.4886  0.2849
 9673TIP3    H150510   2.443   1.792   2.360  0.6936 -2.1073 -0.8572
 9673TIP3    H250511   2.570   1.874   2.360 -0.7980  0.3194  0.6056
 9674TIP3   OH250512   6.263   4.966  13.753 -0.5298 -0.6954 -0.1672
 9674TIP3    H150513   6.263   4.988  13.659  0.7193 -0.0032 -0.0252
 9674TIP3    H250514   6.270   4.870  13.755  2.2976 -0.5785 -0.8207
 9675TIP3   OH250515   0.894   2.774  13.295  0.6218  0.4193 -0.3431
 9675TIP3    H150516   0.907   2.764  13.389 -1.5468  0.7081  0.0442
 9675TIP3    H250517   0.921   2.690  13.258  0.3830 -0.1246  0.6885
 9676TIP3   OH250518   0.689   5.269   1.156  0.7821  0.2855 -0.8278
 9676TIP3    H150519   0.692   5.361   1.185  0.1139  0.4129 -1.1279
 9676TIP3    H250520   0.732   5.220   1.226  0.9686  0.8109 -0.5701
 9677TIP3   OH250521   6.259   1.422  14.332  0.4584  0.3093  0.1411
 9677TIP3    H150522   6.295   1.335  14.351  2.0297  0.9576  0.3377
 9677TIP3    H250523   6.227   1.415  14.242  0.0068 -0.6332  0.3604
 9678TIP3   OH250524   6.152   0.062   4.954 -0.1691  0.2062 -0.3596
 9678TIP3    H150525   6.174  -0.025   4.987  2.8349  0.1906 -2.0948
 9678TIP3    H250526   6.225   0.117   4.981 -1.8733  2.2395  0.4711
 9679TIP3   OH250527   4.596   5.039  13.686  0.5350  0.0261  0.2930
 9679TIP3    H150528   4.556   4.954  13.702 -0.6006 -0.0269 -2.3158
 9679TIP3    H250529   4.675   5.020  13.637  0.6144  0.4409  0.2547
 9680TIP3   OH250530   3.852   5.738  16.312 -0.4394  0.5507 -0.7489
 9680TIP3    H150531   3.831   5.831  16.322 -2.0079  0.2264 -0.7755
 9680TIP3    H250532   3.800   5.709  16.237 -0.4023 -0.4661 -0.4001
 9681TIP3   OH250533   0.051   0.093  12.552 -0.1696  0.1501 -0.1639
 9681TIP3    H150534   0.136   0.077  12.591  0.5004  0.7345 -1.3172
 9681TIP3    H250535  -0.010   0.093  12.626  0.8947  0.2178  0.7422
 9682TIP3   OH250536   4.759   4.869   2.013 -0.1832 -0.0264  0.2603
 9682TIP3    H150537   4.736   4.908   2.097 -0.3164 -0.4154  0.4054
 9682TIP3    H250538   4.803   4.940   1.965 -1.0831  0.5377  0.2284
 9683TIP3   OH250539   2.005   3.623   6.528  0.0237  0.3866  0.1993
 9683TIP3    H150540   2.001   3.586   6.440  0.8879  1.9424 -0.5291
 9683TIP3    H250541   2.092   3.663   6.534  0.1120  0.0480  1.8831
 9684TIP3   OH250542   1.799   0.086  13.719  0.0513 -0.2664  0.2387
 9684TIP3    H150543   1.756   0.014  13.766  0.9216 -0.1651  1.2316
 9684TIP3    H250544   1.891   0.060  13.715 -0.1887 -1.0201 -2.8469
 9685TIP3   OH250545   1.404   4.256   2.603  0.6455 -0.5873  0.6309
 9685TIP3    H150546   1.499   4.266   2.608  0.4286  1.3736  1.4191
 9685TIP3    H250547   1.373   4.276   2.691 -0.4882 -1.6318  0.4948
 9686TIP3   OH250548   6.783   6.530   0.036  0.1814  0.0954 -0.2436
 9686TIP3    H150549   6.724   6.468   0.079  0.6313 -0.6089 -0.6247
 9686TIP3    H250550   6.737   6.553  -0.045  1.3379 -2.1587 -1.6454
 9687TIP3   OH250551   5.744   2.685  12.178 -0.4656 -0.8114 -0.1235
 9687TIP3    H150552   5.710   2.705  12.265  0.1142  0.3354 -0.1425
 9687TIP3    H250553   5.725   2.592  12.166 -0.2291 -1.0849  1.3689
 9688TIP3   OH250554   5.465   0.590   4.299 -0.2216 -0.3339  0.2134
 9688TIP3    H150555   5.553   0.626   4.292 -0.4738  0.3384  0.3744
 9688TIP3    H250556   5.478   0.496   4.309  0.4366 -0.3604 -0.7959
 9689TIP3   OH250557   5.867   4.467  11.142 -0.5825 -0.2243  0.2670
 9689TIP3    H150558   5.925   4.427  11.077 -0.7275 -1.9415  1.1341
 9689TIP3    H250559   5.916   4.542  11.175  0.2373 -0.3846 -0.5353
 9690TIP3   OH250560   4.509   3.227   3.765 -0.7856 -0.3598  0.5230
 9690TIP3    H150561   4.530   3.288   3.835 -2.3309  1.2188 -0.3069
 9690TIP3    H250562   4.425   3.257   3.731 -1.6259 -2.9525  0.0369
 9691TIP3   OH250563   1.968   5.250   4.060 -0.8394  0.1836  0.2412
 9691TIP3    H150564   1.914   5.309   4.008  0.6358  1.3098 -0.1110
 9691TIP3    H250565   1.954   5.277   4.150 -0.7067  0.6097  0.1347
 9692TIP3   OH250566   5.915   2.275   5.029  0.2933 -0.0099  0.3393
 9692TIP3    H150567   5.946   2.335   5.097  0.7628  0.4260 -0.2465
 9692TIP3    H250568   5.969   2.197   5.038 -1.5594 -1.1734  2.3409
 9693TIP3   OH250569   4.405   1.043   4.920 -0.3338 -0.3483  1.1570
 9693TIP3    H150570   4.353   1.122   4.938  0.6997  0.1709  1.9608
 9693TIP3    H250571   4.397   0.990   4.999  1.7167  0.5317  2.0315
 9694TIP3   OH250572   3.936   1.890   1.740 -0.1614  0.1513 -0.3719
 9694TIP3    H150573   3.946   1.844   1.823  0.3791  2.3839  0.8949
 9694TIP3    H250574   3.850   1.931   1.745  0.0826  0.7182 -0.6772
 9695TIP3   OH250575   2.708   6.422  11.890 -0.0974  0.2109 -0.0683
 9695TIP3    H150576   2.707   6.511  11.856 -0.3836  0.0353 -0.5342
 9695TIP3    H250577   2.778   6.422  11.955  1.2293  0.2945 -1.4211
 9696TIP3   OH250578   4.027   0.269  14.928  0.8504 -0.2079  0.1666
 9696TIP3    H150579   3.971   0.295  14.855  0.4630 -1.1955  0.0920
 9696TIP3    H250580   3.977   0.291  15.006 -0.4895 -2.7120  0.1046
 9697TIP3   OH250581   4.543   2.346   0.267 -0.4180 -0.6917  0.2684
 9697TIP3    H150582   4.561   2.436   0.240 -2.4771 -0.5586 -0.9458
 9697TIP3    H250583   4.595   2.333   0.346  2.6885  0.3547 -1.4265
 9698TIP3   OH250584   0.431   0.719  13.182  0.1361  0.3912 -0.6661
 9698TIP3    H150585   0.512   0.674  13.157 -0.3848 -0.5598 -0.6665
 9698TIP3    H250586   0.373   0.708  13.107 -0.4116  0.0337 -0.1970
 9699TIP3   OH250587   4.077   1.386   4.140  0.0701  0.6053 -0.1413
 9699TIP3    H150588   4.124   1.463   4.108 -2.3538  2.1685 -0.1872
 9699TIP3    H250589   4.058   1.405   4.232  0.5015 -0.4981  0.1894
 9700TIP3   OH250590   1.941   3.669  14.667 -1.0459 -0.4644  0.5859
 9700TIP3    H150591   1.846   3.660  14.680 -0.9453 -0.8358  1.0813
 9700TIP3    H250592   1.971   3.717  14.744 -0.6430 -1.4947  1.0834
 9701TIP3   OH250593   5.553   3.851  11.570 -0.5439 -0.4333  0.4194
 9701TIP3    H150594   5.480   3.880  11.625 -1.0718 -0.5356 -0.2102
 9701TIP3    H250595   5.616   3.923  11.574 -2.3162  1.4709 -2.0209
 9702TIP3   OH250596   4.839   3.480   3.013  0.5899  0.6481  0.3471
 9702TIP3    H150597   4.820   3.415   3.080 -0.9713 -0.0497 -0.7059
 9702TIP3    H250598   4.842   3.563   3.060 -1.5716  0.3224  1.1763
 9703TIP3   OH250599   5.689   4.314  16.618 -0.0555  0.0189 -0.5895
 9703TIP3    H150600   5.699   4.284  16.708 -0.5583 -0.8486 -0.8193
 9703TIP3    H250601   5.698   4.235  16.565 -0.7348  0.3740 -1.2422
 9704TIP3   OH250602   0.230   4.078  11.206 -0.1297 -0.3487  0.4973
 9704TIP3    H150603   0.139   4.067  11.179 -0.9658 -1.5862  3.3844
 9704TIP3    H250604   0.261   3.988  11.221  0.6879  0.1522  2.0055
 9705TIP3   OH250605   3.387   2.405  13.336 -0.1488 -0.4790 -0.1524
 9705TIP3    H150606   3.434   2.458  13.401  0.5264 -0.0720 -0.9580
 9705TIP3    H250607   3.390   2.316  13.370  0.9346 -0.4037 -0.0349
 9706TIP3   OH250608   1.184   4.792  14.844 -0.4712 -0.1226  0.2747
 9706TIP3    H150609   1.260   4.745  14.810 -0.6065  0.8218 -1.4727
 9706TIP3    H250610   1.165   4.750  14.928  1.0891 -1.3131  0.0809
 9707TIP3   OH250611   3.629   6.468  15.234 -0.3653  0.3490  0.0443
 9707TIP3    H150612   3.692   6.503  15.298 -0.1137  0.1686 -0.1049
 9707TIP3    H250613   3.544   6.488  15.272 -0.2778 -2.4312  1.9553
 9708TIP3   OH250614   0.017   2.139   0.967 -0.2958 -0.5699 -0.2621
 9708TIP3    H150615   0.106   2.172   0.977 -0.6768  0.1359  0.9686
 9708TIP3    H250616   0.002   2.140   0.872  0.8214 -0.2483 -0.4571
 9709TIP3   OH250617   1.602   2.181   2.586 -0.5274  0.0490  0.4348
 9709TIP3    H150618   1.650   2.263   2.590 -1.3435  0.6626 -1.2842
 9709TIP3    H250619   1.521   2.198   2.633 -1.4410  0.8413 -1.3032
 9710TIP3   OH250620   5.409   3.066  12.336  0.2162 -0.3688  0.2323
 9710TIP3    H150621   5.371   3.153  12.344  4.1694  1.4908  1.2751
 9710TIP3    H250622   5.399   3.044  12.243 -0.7179  1.2437 -0.0847
 9711TIP3   OH250623   0.960   3.420  14.507 -0.3017  0.0318  0.2248
 9711TIP3    H150624   0.890   3.355  14.498 -0.9796  0.6393  0.9061
 9711TIP3    H250625   0.940   3.485  14.440 -0.8579  0.6020  0.9271
 9712TIP3   OH250626   3.061   3.982   1.606 -0.2771  0.6310 -0.2278
 9712TIP3    H150627   2.986   3.929   1.632  0.5347 -1.2430 -1.4968
 9712TIP3    H250628   3.036   4.019   1.522  0.2397 -0.0632 -0.6912
 9713TIP3   OH250629   2.240   3.703  12.378  0.1396 -0.5000  0.4951
 9713TIP3    H150630   2.162   3.697  12.322  0.6350 -0.3246 -0.2352
 9713TIP3    H250631   2.220   3.775  12.438  0.0409  0.0439 -0.1796
 9714TIP3   OH250632   3.493   6.142  13.652  0.1374  0.1564 -0.2315
 9714TIP3    H150633   3.500   6.058  13.605 -0.3788  0.0710 -0.1635
 9714TIP3    H250634   3.545   6.203  13.600 -0.6917  0.1393 -1.1076
 9715TIP3   OH250635   0.380   6.357  14.579  0.0799 -0.1450  0.1718
 9715TIP3    H150636   0.357   6.414  14.506  0.1169 -0.2718  0.0603
 9715TIP3    H250637   0.351   6.270  14.552  0.3760 -0.2455  0.1783
 9716TIP3   OH250638   2.417   1.558   0.520 -0.0740 -0.2602  0.3007
 9716TIP3    H150639   2.365   1.548   0.441  0.3979  1.6835 -0.3229
 9716TIP3    H250640   2.478   1.629   0.500  1.3848 -1.0339  1.7402
 9717TIP3   OH250641   3.633   4.766   5.238  0.2062 -0.1399  1.0984
 9717TIP3    H150642   3.591   4.843   5.276  0.8427  1.6253 -1.4874
 9717TIP3    H250643   3.560   4.714   5.203 -0.1434  0.1345  1.4119
 9718TIP3   OH250644   2.214   6.618   0.179  0.4280 -0.9443 -0.1245
 9718TIP3    H150645   2.164   6.552   0.131 -1.3669  0.3079 -0.1066
 9718TIP3    H250646   2.277   6.569   0.230 -0.4290 -2.5979 -0.5948
 9719TIP3   OH250647   2.869   3.844   1.337 -0.0504  0.3742 -0.2475
 9719TIP3    H150648   2.794   3.891   1.298  0.5421  1.3156 -0.2907
 9719TIP3    H250649   2.938   3.851   1.272 -0.0613 -0.9294 -0.4197
 9720TIP3   OH250650   6.342   4.257   1.262  0.6320 -0.4081  0.2415
 9720TIP3    H150651   6.355   4.165   1.239  0.4508 -0.3698 -0.0171
 9720TIP3    H250652   6.384   4.266   1.348 -0.7103 -1.1134  1.0109
 9721TIP3   OH250653   1.652   2.161  12.018 -0.2782 -0.0972  0.5948
 9721TIP3    H150654   1.720   2.228  12.010 -1.5020  1.2607  1.2311
 9721TIP3    H250655   1.587   2.199  12.075 -0.8922 -1.9723  1.2268
 9722TIP3   OH250656   2.031   3.370   2.404  1.0302  0.0030 -0.3326
 9722TIP3    H150657   2.083   3.420   2.467  1.7410  1.2958 -1.9054
 9722TIP3    H250658   2.096   3.331   2.345  0.3082  0.9026 -1.7835
 9723TIP3   OH250659   2.645   3.740  11.820 -0.1895  0.8561  0.2479
 9723TIP3    H150660   2.664   3.830  11.795  0.2346 -0.0155 -3.0672
 9723TIP3    H250661   2.550   3.738  11.833 -0.3794  1.5199 -0.9360
 9724TIP3   OH250662   2.180   6.469   1.181  0.2466 -0.0275  0.7157
 9724TIP3    H150663   2.119   6.537   1.209 -0.3437 -0.3571  0.2683
 9724TIP3    H250664   2.134   6.425   1.109  0.6654 -0.8252  0.9267
 9725TIP3   OH250665   2.061   2.818  11.791 -0.2363 -0.3218  0.1479
 9725TIP3    H150666   1.995   2.749  11.784  0.0687 -0.5234 -0.8169
 9725TIP3    H250667   2.022   2.893  11.747  1.0504 -1.1174 -2.5129
 9726TIP3   OH250668   4.379   5.795   0.141 -0.2266 -0.7467 -0.1559
 9726TIP3    H150669   4.284   5.799   0.130  0.0470  0.5516 -2.9880
 9726TIP3    H250670   4.405   5.716   0.093  0.1937 -0.6521 -0.0869
 9727TIP3   OH250671   1.281   0.269   2.214  0.4476 -0.3769  0.0627
 9727TIP3    H150672   1.340   0.194   2.210  0.8454 -0.0890  0.3809
 9727TIP3    H250673   1.273   0.298   2.123  1.6997  0.2527  0.1210
 9728TIP3   OH250674   3.876   0.267  14.015  0.5795  0.0829 -0.4762
 9728TIP3    H150675   3.873   0.347  13.962  0.7581  0.0475 -0.5394
 9728TIP3    H250676   3.853   0.297  14.103  1.2909  0.3185 -0.3639
 9729TIP3   OH250677   0.731   1.862   5.107  0.2117  0.2391  0.1901
 9729TIP3    H150678   0.682   1.926   5.055 -0.1020 -1.1607 -1.3304
 9729TIP3    H250679   0.703   1.777   5.073  1.1307 -0.6980  1.6693
 9730TIP3   OH250680   2.118   0.092  11.189  0.3924  0.5954 -0.0887
 9730TIP3    H150681   2.061   0.071  11.262  0.4589  1.5695  0.2511
 9730TIP3    H250682   2.207   0.091  11.226  0.3796  1.7051  0.0037
 9731TIP3   OH250683   4.226   0.284  15.279 -0.3419 -0.1155 -0.3357
 9731TIP3    H150684   4.146   0.232  15.269 -0.3865 -0.1275  0.0580
 9731TIP3    H250685   4.243   0.283  15.373 -1.1354  1.7566 -0.1225
 9732TIP3   OH250686   6.326   6.472   3.871 -0.0848 -0.1317 -0.0181
 9732TIP3    H150687   6.242   6.505   3.838 -0.4773 -0.6185  0.4665
 9732TIP3    H250688   6.329   6.501   3.962 -0.5290 -1.5647  0.4799
 9733TIP3   OH250689   3.390   5.492   4.946 -0.1691 -0.1225 -0.0462
 9733TIP3    H150690   3.373   5.566   5.004  1.9912  0.7871 -0.4838
 9733TIP3    H250691   3.308   5.443   4.945 -1.0247  1.1609  1.8391
 9734TIP3   OH250692   2.494   5.544   0.202  0.2992 -0.0449  0.2873
 9734TIP3    H150693   2.438   5.607   0.156 -0.2461 -1.4903 -1.1074
 9734TIP3    H250694   2.543   5.500   0.133  1.5134 -0.3819  1.3233
 9735TIP3   OH250695   0.681   2.827  15.386 -0.0816 -0.5903 -0.0896
 9735TIP3    H150696   0.771   2.799  15.367  0.2997  0.3916  0.2384
 9735TIP3    H250697   0.648   2.861  15.303  0.6137  1.0707  0.2818
 9736TIP3   OH250698   3.411   4.424   1.802  0.3720  0.3771  0.1164
 9736TIP3    H150699   3.401   4.415   1.708  1.0041 -1.4476  0.1976
 9736TIP3    H250700   3.321   4.427   1.836  0.1463  0.3898 -0.4727
 9737TIP3   OH250701   5.257   2.071  12.304  0.3906  0.8714  0.0226
 9737TIP3    H150702   5.296   2.151  12.267 -0.5248  0.9672 -0.7784
 9737TIP3    H250703   5.163   2.081  12.288  0.2563 -0.3218 -0.0059
 9738TIP3   OH250704   6.735   3.040  10.850 -0.0040 -0.1472 -0.2466
 9738TIP3    H150705   6.782   2.966  10.809  0.3027  0.8981 -1.8799
 9738TIP3    H250706   6.801   3.109  10.855 -0.3221  0.0769  1.1756
 9739TIP3   OH250707   6.002   0.587   2.942 -0.4979  0.1703  0.3368
 9739TIP3    H150708   5.950   0.581   3.022  0.4587  0.2375  0.9703
 9739TIP3    H250709   5.951   0.645   2.885 -0.6770  0.9632  1.2900
 9740TIP3   OH250710   4.667   5.022  13.182  0.2495  0.0514  0.0307
 9740TIP3    H150711   4.641   5.061  13.266  0.5146 -1.9418  1.1029
 9740TIP3    H250712   4.611   5.064  13.117  0.1911  1.8202  1.1584
 9741TIP3   OH250713   3.592   2.313   4.623 -0.8111  0.4014  0.3648
 9741TIP3    H150714   3.518   2.322   4.564  0.5247  1.1045 -1.3046
 9741TIP3    H250715   3.626   2.225   4.606 -0.4623  0.5821  0.0950
 9742TIP3   OH250716   3.201   4.053   3.950  0.6003  0.4107  0.2527
 9742TIP3    H150717   3.275   4.000   3.977  1.1098  1.6144  1.3441
 9742TIP3    H250718   3.137   4.043   4.020  1.7122  3.1302  1.8112
 9743TIP3   OH250719   4.693   4.542  17.080 -0.8991 -0.0794 -0.0121
 9743TIP3    H150720   4.654   4.611  17.134 -1.5189 -0.0266 -0.5233
 9743TIP3    H250721   4.640   4.465  17.097  0.3752 -0.7246  1.3080
 9744TIP3   OH250722   0.897   1.601  11.108  0.3880  0.4599  0.0158
 9744TIP3    H150723   0.867   1.666  11.045  2.1637  0.5449 -0.7857
 9744TIP3    H250724   0.890   1.518  11.061  1.7107  0.5223 -0.3071
 9745TIP3   OH250725   4.267   4.962   5.809  0.8645 -0.9231 -0.0389
 9745TIP3    H150726   4.254   4.872   5.838  2.1767 -1.1088  0.0267
 9745TIP3    H250727   4.333   4.956   5.739 -0.3389 -0.1967 -1.2793
 9746TIP3   OH250728   4.703   1.994  10.983 -0.4003 -0.4805 -0.4342
 9746TIP3    H150729   4.720   2.060  11.050  1.6791  0.2300 -1.5451
 9746TIP3    H250730   4.740   1.913  11.019 -0.9337 -0.5306  0.0102
 9747TIP3   OH250731   6.444   2.142   6.199  0.1415  0.4300  0.4976
 9747TIP3    H150732   6.503   2.121   6.272  0.1162 -1.9067 -0.0708
 9747TIP3    H250733   6.363   2.095   6.220 -1.4941  3.2827  1.0848
 9748TIP3   OH250734   5.729   3.422  15.656 -0.2905 -0.8731  0.9295
 9748TIP3    H150735   5.816   3.416  15.618 -1.3810 -0.4524 -1.8565
 9748TIP3    H250736   5.683   3.345  15.623 -0.8860 -1.3811  2.7953
 9749TIP3   OH250737   2.942   6.610  14.786 -0.4323 -0.7989  0.3523
 9749TIP3    H150738   2.949   6.552  14.862 -4.0872  2.4271  3.6253
 9749TIP3    H250739   2.858   6.586  14.745 -0.1876 -0.2110 -0.5224
 9750TIP3   OH250740   6.744   3.768  12.305 -0.1636  0.1951  0.9622
 9750TIP3    H150741   6.717   3.831  12.238 -1.4134 -1.0156  0.2565
 9750TIP3    H250742   6.800   3.706  12.257  0.2266  0.1981  1.4119
 9751TIP3   OH250743   2.964   2.311   4.527  0.4213  0.3351 -0.1873
 9751TIP3    H150744   2.905   2.374   4.486  3.2306  2.2656 -1.6057
 9751TIP3    H250745   3.006   2.267   4.453 -1.1970 -3.1641  0.7474
 9752TIP3   OH250746   0.448   2.309  12.955 -0.3034  0.5063 -0.3623
 9752TIP3    H150747   0.536   2.347  12.960 -0.2649  0.4566 -0.6502
 9752TIP3    H250748   0.390   2.380  12.982 -0.1770  0.5508 -0.2065
 9753TIP3   OH250749   1.977   1.743  13.695 -0.0187 -0.2493  0.3993
 9753TIP3    H150750   1.990   1.813  13.758 -0.6327 -1.0324  1.4189
 9753TIP3    H250751   1.955   1.666  13.747 -3.1324 -0.3363 -0.8194
 9754TIP3   OH250752   4.858   1.447  15.625 -0.5417  0.3620  0.2132
 9754TIP3    H150753   4.892   1.514  15.684 -1.2975  0.2297  0.8114
 9754TIP3    H250754   4.767   1.471  15.609 -0.7417 -0.3508  0.2100
 9755TIP3   OH250755   6.545   2.131   0.868  0.1283  0.4312  0.1178
 9755TIP3    H150756   6.612   2.117   0.802 -0.3390 -0.2487 -0.2309
 9755TIP3    H250757   6.547   2.225   0.885  2.1840  0.2358  1.2244
 9756TIP3   OH250758   4.559   0.173   2.133 -0.1104  0.4849 -0.4246
 9756TIP3    H150759   4.613   0.100   2.164 -0.6125  0.5246  0.5901
 9756TIP3    H250760   4.490   0.131   2.081 -0.0028  0.2911 -0.4114
 9757TIP3   OH250761   4.604   6.157  13.627 -0.3555  0.3099  0.2308
 9757TIP3    H150762   4.642   6.204  13.701  0.6418 -0.2774  0.1047
 9757TIP3    H250763   4.679   6.135  13.571 -0.8560 -1.0020  0.0455
 9758TIP3   OH250764   1.478   3.019   3.156 -0.0616 -0.8662  0.4861
 9758TIP3    H150765   1.522   2.957   3.214  1.4665 -2.0420 -1.7930
 9758TIP3    H250766   1.446   2.965   3.084 -1.1155  0.6646 -0.2392
 9759TIP3   OH250767   3.994   6.460   6.425 -0.1923  0.1983 -0.0599
 9759TIP3    H150768   3.927   6.403   6.464 -1.6488  1.4451 -0.6426
 9759TIP3    H250769   3.984   6.544   6.470  1.1452  0.3593 -0.0205
 9760TIP3   OH250770   3.926   5.966   4.224  0.6126  0.0476 -0.0742
 9760TIP3    H150771   4.005   5.921   4.193  1.7592  1.1910  1.1046
 9760TIP3    H250772   3.910   6.034   4.158  0.6803 -0.1142 -0.2579
 9761TIP3   OH250773   5.899   2.404   1.568  0.3236  0.2106  0.5051
 9761TIP3    H150774   5.838   2.411   1.641  0.1619 -0.2666  0.4183
 9761TIP3    H250775   5.978   2.364   1.605 -0.0146 -0.6973  0.2818
 9762TIP3   OH250776   5.502   4.674   5.157 -0.6666  0.8884  0.3605
 9762TIP3    H150777   5.574   4.684   5.094 -0.0345  1.3635  1.1337
 9762TIP3    H250778   5.544   4.640   5.236 -1.5472 -0.2827  0.3490
 9763TIP3   OH250779   3.269   4.891  11.644 -0.1336  0.2205 -0.3371
 9763TIP3    H150780   3.336   4.958  11.659  0.2735  0.1443 -1.7075
 9763TIP3    H250781   3.202   4.909  11.710  0.1623  1.7125 -0.4161
 9764TIP3   OH250782   2.767   0.654   0.637  0.1597  0.6868  0.3217
 9764TIP3    H150783   2.809   0.736   0.663  1.7572 -0.6760  2.2788
 9764TIP3    H250784   2.714   0.629   0.712  3.0332 -2.1478  1.6515
 9765TIP3   OH250785   0.324   3.287   2.772  0.9179 -0.0298  0.1658
 9765TIP3    H150786   0.366   3.256   2.692  1.1674 -0.1168  0.3300
 9765TIP3    H250787   0.339   3.382   2.772 -2.9416  0.8014 -2.2169
 9766TIP3   OH250788   0.985   1.375  14.032  0.2136 -0.7496 -0.0825
 9766TIP3    H150789   0.903   1.423  14.029  1.0105  0.9273  2.0413
 9766TIP3    H250790   1.051   1.437  14.001  0.7605 -2.0163 -1.6008
 9767TIP3   OH250791   0.885   0.797   2.849 -0.1930  0.1045  0.3128
 9767TIP3    H150792   0.932   0.719   2.818  0.1260  0.5738 -0.4149
 9767TIP3    H250793   0.841   0.831   2.771 -3.6856 -1.5767  1.3209
 9768TIP3   OH250794   0.708   1.326   6.251 -0.8081 -0.1147 -0.3573
 9768TIP3    H150795   0.666   1.245   6.221  0.3622 -1.2426  0.8570
 9768TIP3    H250796   0.736   1.306   6.340  0.3149  1.3286 -0.3526
 9769TIP3   OH250797   2.191   0.169  14.216 -0.0568 -0.4384  0.0182
 9769TIP3    H150798   2.166   0.088  14.261 -1.7357 -0.1736 -0.3607
 9769TIP3    H250799   2.159   0.239  14.273 -0.1478 -0.0670 -0.4869
 9770TIP3   OH250800   6.095   0.226  13.884 -0.1649 -0.0580  0.6348
 9770TIP3    H150801   6.014   0.260  13.922  0.3956  0.4426  1.4208
 9770TIP3    H250802   6.070   0.144  13.843 -0.7737 -0.7482  2.3090
 9771TIP3   OH250803   0.942   2.988  15.921 -0.5773 -0.2226  0.2365
 9771TIP3    H150804   0.954   2.935  16.000 -0.8268  0.3997  0.6991
 9771TIP3    H250805   0.875   3.052  15.945 -1.3410 -0.6101 -0.7719
 9772TIP3   OH250806   5.098   0.667   4.021 -0.3602 -0.0214 -0.7754
 9772TIP3    H150807   5.016   0.668   3.973 -1.1734 -0.1768  0.5779
 9772TIP3    H250808   5.140   0.750   3.997 -0.6182 -0.2035 -1.9216
 9773TIP3   OH250809   1.257   0.851   4.572  0.5595  0.5979 -0.2164
 9773TIP3    H150810   1.284   0.932   4.529 -0.0102 -0.2703 -2.3702
 9773TIP3    H250811   1.340   0.808   4.596  0.8594  1.9585  1.3479
 9774TIP3   OH250812   5.664   6.336   2.099 -0.0616 -0.2511 -0.2408
 9774TIP3    H150813   5.612   6.256   2.108  1.2197 -0.9569  1.4093
 9774TIP3    H250814   5.615   6.402   2.148  0.0807 -0.6585  0.4599
 9775TIP3   OH250815   3.189   5.669  15.742 -0.8441 -0.0992 -0.5415
 9775TIP3    H150816   3.210   5.661  15.648 -1.8611 -0.7653 -0.7332
 9775TIP3    H250817   3.275   5.667  15.785 -0.3960 -0.7459 -1.4047
 9776TIP3   OH250818   4.263   3.614   1.100  0.4039 -0.0513  0.0945
 9776TIP3    H150819   4.325   3.613   1.027  2.0335 -0.1347  1.4147
 9776TIP3    H250820   4.273   3.528   1.140 -0.0630  0.1983  0.7558
 9777TIP3   OH250821   2.431   1.213   2.689 -0.2833  0.1276  0.2370
 9777TIP3    H150822   2.380   1.184   2.614  1.2010  1.4351 -1.3843
 9777TIP3    H250823   2.367   1.227   2.758 -1.9515  0.5744 -1.3252
 9778TIP3   OH250824   3.382   4.996   4.420  0.0877  0.1002 -0.0316
 9778TIP3    H150825   3.313   5.020   4.358 -0.2185 -0.6752  0.0036
 9778TIP3    H250826   3.402   4.905   4.400  0.8866  0.2207  0.1684
 9779TIP3   OH250827   4.885   5.306   5.025 -0.4440 -0.8468 -0.2076
 9779TIP3    H150828   4.948   5.366   5.067 -0.1864  0.3548 -2.2083
 9779TIP3    H250829   4.903   5.221   5.066  1.4143 -0.2235  0.4071
 9780TIP3   OH250830   1.291   1.957  14.434  0.5084  0.0224  0.4576
 9780TIP3    H150831   1.369   1.902  14.426 -0.9029 -1.8558 -1.4177
 9780TIP3    H250832   1.218   1.895  14.438 -1.0483  1.7352 -0.0219
 9781TIP3   OH250833   2.210   1.097  12.560 -0.0393  0.1576 -0.1005
 9781TIP3    H150834   2.196   1.154  12.635  1.8951  0.2747  0.2186
 9781TIP3    H250835   2.145   1.028  12.570  0.8623 -0.4234  2.3080
 9782TIP3   OH250836   6.196   6.466   0.205 -0.7549 -0.9275 -0.6025
 9782TIP3    H150837   6.157   6.424   0.281  0.4434  0.4536  0.8585
 9782TIP3    H250838   6.137   6.539   0.184  0.5013  0.6816  1.1162
 9783TIP3   OH250839   0.673   4.462  17.150 -0.0380 -0.4020  0.9652
 9783TIP3    H150840   0.630   4.425  17.073  2.3991 -0.5461 -0.4275
 9783TIP3    H250841   0.706   4.386  17.198 -1.4513 -0.3065  2.1671
 9784TIP3   OH250842   1.411   5.603  15.437  0.2760 -0.1461  0.1769
 9784TIP3    H150843   1.320   5.612  15.463  0.5230 -0.3266  1.1311
 9784TIP3    H250844   1.450   5.688  15.458  0.6893 -0.5985  1.2994
 9785TIP3   OH250845   5.476   2.307   4.640 -0.1107 -0.1280  0.1232
 9785TIP3    H150846   5.511   2.310   4.729 -1.8791 -0.3409  0.8630
 9785TIP3    H250847   5.549   2.335   4.585  0.9173  0.3628  1.6612
 9786TIP3   OH250848   5.164   4.594  11.249  0.6508  0.4813  0.9338
 9786TIP3    H150849   5.143   4.612  11.158  1.2083  0.0530  0.7128
 9786TIP3    H250850   5.224   4.665  11.274  2.6479 -0.8236  0.1388
 9787TIP3   OH250851   0.194   3.311  15.713 -0.3313  0.0333 -0.1274
 9787TIP3    H150852   0.251   3.273  15.780 -1.1083 -0.2229  0.3949
 9787TIP3    H250853   0.197   3.248  15.641  0.1594  0.0915 -0.1592
 9788TIP3   OH250854   3.904   1.639   1.639  0.3310 -0.1077  0.1283
 9788TIP3    H150855   3.931   1.730   1.656  0.0132 -0.1382  0.8615
 9788TIP3    H250856   3.981   1.587   1.663  0.6461 -0.0172 -0.6548
 9789TIP3   OH250857   1.331   5.434  13.385 -0.2735 -0.5948  0.2578
 9789TIP3    H150858   1.354   5.348  13.417  0.0929 -0.4839  0.2934
 9789TIP3    H250859   1.412   5.468  13.346  0.2066  0.6329  2.2025
 9790TIP3   OH250860   4.348   1.753   0.869  0.7549  0.3271  0.2602
 9790TIP3    H150861   4.407   1.677   0.870  3.2955  2.1319 -0.7082
 9790TIP3    H250862   4.301   1.745   0.786  0.6491 -0.4367  0.3878
 9791TIP3   OH250863   3.114   6.657   3.620  0.3353  0.3823 -0.4041
 9791TIP3    H150864   3.079   6.731   3.670  0.6896  0.3268 -0.0648
 9791TIP3    H250865   3.190   6.692   3.574  0.6375  0.1802 -0.0666
 9792TIP3   OH250866   2.113   2.870   3.587  0.0993 -0.5257  0.4402
 9792TIP3    H150867   2.148   2.955   3.615  0.0969 -0.0617 -0.8817
 9792TIP3    H250868   2.181   2.834   3.529 -0.7391 -0.5063 -0.5880
 9793TIP3   OH250869   0.460   4.630  12.608  0.1718 -0.0506 -0.1321
 9793TIP3    H150870   0.417   4.560  12.657  1.6738 -0.7673  0.2248
 9793TIP3    H250871   0.466   4.597  12.519  0.1665 -0.0517 -0.1324
 9794TIP3   OH250872   0.752   1.350   1.093 -0.1709  0.1654 -0.4864
 9794TIP3    H150873   0.806   1.380   1.020 -1.4815  2.0895 -0.7476
 9794TIP3    H250874   0.714   1.430   1.130  0.5277 -0.7032  2.4349
 9795TIP3   OH250875   2.449   4.584   0.291 -0.1180  0.7803  0.3253
 9795TIP3    H150876   2.422   4.580   0.383 -1.9030  0.4425 -0.1659
 9795TIP3    H250877   2.455   4.492   0.264 -0.4436  0.8781 -0.1017
 9796TIP3   OH250878   0.114   2.647  11.841 -0.1296 -0.0662 -0.0390
 9796TIP3    H150879   0.107   2.641  11.936  1.4362  1.4743  0.2374
 9796TIP3    H250880   0.038   2.699  11.815 -2.0689 -2.6903 -0.0310
 9797TIP3   OH250881   5.889   4.703   2.047  0.1449 -0.2066  0.3744
 9797TIP3    H150882   5.905   4.631   1.985 -0.0909  0.1539 -0.1169
 9797TIP3    H250883   5.929   4.674   2.129  1.2137 -0.3265 -0.1758
 9798TIP3   OH250884   5.840   4.346   0.188  0.0531  0.1630  0.0669
 9798TIP3    H150885   5.899   4.354   0.263 -1.0590  0.3658  0.9613
 9798TIP3    H250886   5.887   4.386   0.115  1.2325 -0.1890  0.6042
 9799TIP3   OH250887   2.016   5.977  12.516 -0.3112  0.1478  0.0702
 9799TIP3    H150888   1.932   6.018  12.539  0.0850  0.2467  1.4005
 9799TIP3    H250889   2.069   5.984  12.595  0.6653 -0.6807 -0.4856
 9800TIP3   OH250890   6.635   2.253  12.441  0.0648 -0.1205  0.1748
 9800TIP3    H150891   6.673   2.207  12.516 -1.6381 -1.1311  0.4941
 9800TIP3    H250892   6.633   2.187  12.371 -4.1825 -1.3831  1.1940
 9801TIP3   OH250893   2.802   0.410   5.809  0.1707  0.1782  0.3772
 9801TIP3    H150894   2.760   0.327   5.832 -0.4465  0.4695  0.3002
 9801TIP3    H250895   2.830   0.446   5.893  0.7188 -0.2478  0.3863
 9802TIP3   OH250896   6.772   3.299   1.277  0.1250 -0.4857  0.6846
 9802TIP3    H150897   6.857   3.337   1.300 -0.0476  0.2127  0.2007
 9802TIP3    H250898   6.724   3.371   1.237 -0.7948 -0.8038  1.1846
 9803TIP3   OH250899   1.281   2.137   0.723 -0.0683 -0.1285  0.2152
 9803TIP3    H150900   1.270   2.232   0.721  0.3092 -0.0926 -0.9790
 9803TIP3    H250901   1.209   2.105   0.777 -0.1700  0.8372  0.6563
 9804TIP3   OH250902   6.637   3.704  13.351  0.9607 -0.2874  0.5825
 9804TIP3    H150903   6.680   3.788  13.335 -2.8897  1.8953  0.5134
 9804TIP3    H250904   6.626   3.702  13.446 -0.2066  0.0187  0.4623
 9805TIP3   OH250905   2.446   6.497   1.159  0.2631 -0.1125 -0.4386
 9805TIP3    H150906   2.351   6.499   1.173 -0.1646 -0.7950 -2.7947
 9805TIP3    H250907   2.459   6.431   1.091  2.3819  0.3470 -0.5478
 9806TIP3   OH250908   4.139   3.735  14.437  0.2763  0.2502  0.3787
 9806TIP3    H150909   4.217   3.736  14.382  0.4832 -1.9960  0.5398
 9806TIP3    H250910   4.082   3.668  14.398 -1.4588  1.6007  0.4541
 9807TIP3   OH250911   6.429   1.585   1.603 -0.2183  0.1045 -0.0249
 9807TIP3    H150912   6.424   1.520   1.533 -2.5926 -0.8348  0.9069
 9807TIP3    H250913   6.421   1.669   1.558  0.7556 -0.3121 -1.0490
 9808TIP3   OH250914   3.988   1.742   0.475 -0.0495 -0.1188  0.1387
 9808TIP3    H150915   3.945   1.671   0.427 -1.2741 -0.4593  1.6494
 9808TIP3    H250916   3.934   1.819   0.458  1.0925  0.4317 -1.2301
 9809TIP3   OH250917   0.814   6.794   1.938  0.3348 -0.1853  0.2148
 9809TIP3    H150918   0.739   6.785   1.879 -0.9587  2.3873  1.3167
 9809TIP3    H250919   0.879   6.844   1.887 -0.1129  0.5950  0.4000
 9810TIP3   OH250920   5.653   1.595  16.043 -0.0931 -0.4665 -0.6271
 9810TIP3    H150921   5.665   1.596  16.138 -1.0875  0.7851 -0.4756
 9810TIP3    H250922   5.738   1.620  16.008  0.1880 -0.5931 -0.0452
 9811TIP3   OH250923   1.224   5.300   4.275 -0.0048  0.0042  0.3965
 9811TIP3    H150924   1.306   5.273   4.235  0.4081  0.5124  0.8826
 9811TIP3    H250925   1.239   5.291   4.369 -0.5256  0.0427  0.4875
 9812TIP3   OH250926   0.279   4.763  15.008  0.0834 -0.0307 -0.0087
 9812TIP3    H150927   0.295   4.857  15.021  1.2412 -0.3028  0.6911
 9812TIP3    H250928   0.366   4.724  15.007 -0.4287 -1.2802  1.1880
 9813TIP3   OH250929   3.472   4.510   6.796  0.2940  0.5161 -0.4508
 9813TIP3    H150930   3.402   4.574   6.784 -0.4568 -0.3568 -0.8218
 9813TIP3    H250931   3.522   4.513   6.714 -1.0290 -0.8870 -1.3494
 9814TIP3   OH250932   2.965   1.772   5.051 -0.2000 -0.2068 -0.5048
 9814TIP3    H150933   3.000   1.692   5.089 -0.5635 -0.4090 -0.5979
 9814TIP3    H250934   2.957   1.833   5.125  0.1129 -0.2429 -0.4426
 9815TIP3   OH250935   6.655   2.317  15.451  0.2737  0.4528 -0.2033
 9815TIP3    H150936   6.724   2.369  15.493 -0.0383  0.6738  0.0371
 9815TIP3    H250937   6.603   2.381  15.402  1.3996  0.0505 -2.0228
 9816TIP3   OH250938   0.329   6.592  12.776  0.2625  0.8748 -0.1105
 9816TIP3    H150939   0.246   6.576  12.731  0.9685  0.0759 -1.1919
 9816TIP3    H250940   0.358   6.505  12.804 -0.6385  1.4224  2.8967
 9817TIP3   OH250941   5.318   4.620  15.715 -0.0056 -0.1398  0.0400
 9817TIP3    H150942   5.386   4.555  15.699  0.1339 -0.5574  2.0160
 9817TIP3    H250943   5.237   4.569  15.718  0.0331 -0.1709  1.0030
 9818TIP3   OH250944   3.143   3.782   2.273  0.6773  0.0233  0.5490
 9818TIP3    H150945   3.108   3.785   2.362 -0.6194  1.4751  0.0392
 9818TIP3    H250946   3.229   3.824   2.280 -0.2899  2.0738  0.7923
 9819TIP3   OH250947   2.383   1.966  17.074  0.0956 -0.2762 -0.0110
 9819TIP3    H150948   2.293   1.971  17.043  0.1165  1.5745  0.1354
 9819TIP3    H250949   2.377   1.982  17.168  0.8842  4.6594 -0.5711
 9820TIP3   OH250950   0.826   2.624  15.629  0.3858  0.2382  0.3029
 9820TIP3    H150951   0.811   2.719  15.630  0.5982  0.3877 -2.3612
 9820TIP3    H250952   0.865   2.605  15.714  0.7958  2.6157  0.7239
 9821TIP3   OH250953   2.043   1.591  10.693  0.3608 -0.3647  0.8639
 9821TIP3    H150954   2.027   1.635  10.609  0.1261 -1.0941  0.5176
 9821TIP3    H250955   2.119   1.636  10.730 -1.1962  1.8654  1.6042
 9822TIP3   OH250956   1.711   5.472  16.442  0.0943 -0.0882 -0.0920
 9822TIP3    H150957   1.789   5.501  16.489 -0.7628  1.0756  0.6613
 9822TIP3    H250958   1.698   5.382  16.472  0.5348  0.0723  0.6039
 9823TIP3   OH250959   3.131   4.395   4.229 -0.2919  0.1007 -0.2925
 9823TIP3    H150960   3.148   4.377   4.136  1.3712 -2.2246  0.3758
 9823TIP3    H250961   3.173   4.480   4.245  1.2875 -0.4574 -1.2175
 9824TIP3   OH250962   3.421   3.651   1.924 -0.4583 -0.2177 -1.0680
 9824TIP3    H150963   3.441   3.603   2.005 -1.5131 -1.4696 -1.5289
 9824TIP3    H250964   3.336   3.618   1.897 -0.5273  0.8551 -2.2186
 9825TIP3   OH250965   3.124   2.330  13.930 -0.7581  0.7462 -0.2272
 9825TIP3    H150966   3.092   2.407  13.882 -0.3652  1.7589  1.0797
 9825TIP3    H250967   3.206   2.359  13.970 -1.2317  0.0711  1.3215
 9826TIP3   OH250968   1.098   3.344  16.597  0.0788  0.5094 -0.1349
 9826TIP3    H150969   1.141   3.428  16.610  0.2876  0.2211  1.1238
 9826TIP3    H250970   1.079   3.312  16.685 -2.2506  0.3614 -0.6094
 9827TIP3   OH250971   3.661   1.673  15.271  0.4761 -0.6578  0.1885
 9827TIP3    H150972   3.607   1.598  15.246 -0.2310 -0.7200  1.7442
 9827TIP3    H250973   3.737   1.668  15.213  0.0015 -2.0389 -0.3666
 9828TIP3   OH250974   2.507   0.431   0.430  0.1906 -0.2004  0.9663
 9828TIP3    H150975   2.577   0.365   0.433  0.1845 -0.2963 -0.4892
 9828TIP3    H250976   2.468   0.429   0.517  1.4468 -0.7582  1.5337
 9829TIP3   OH250977   2.203   6.198   3.129  0.2496 -0.1959 -0.2302
 9829TIP3    H150978   2.200   6.146   3.048  0.4854  1.2421 -1.1908
 9829TIP3    H250979   2.156   6.278   3.108 -0.8654 -0.3576  1.5092
 9830TIP3   OH250980   2.917   0.055   3.143 -0.6511 -0.1549  0.2003
 9830TIP3    H150981   2.838   0.001   3.132 -1.2887  0.6701  0.6050
 9830TIP3    H250982   2.900   0.133   3.090 -0.3470  0.2827  0.7444
 9831TIP3   OH250983   0.007   2.262   6.304 -0.4975 -0.5733 -0.2496
 9831TIP3    H150984  -0.054   2.331   6.278  0.2977  0.7513  1.1611
 9831TIP3    H250985  -0.048   2.192   6.338 -1.3507 -0.8804 -2.1351
 9832TIP3   OH250986   5.377   1.343   0.891  0.1370  0.0974 -0.2523
 9832TIP3    H150987   5.406   1.282   0.823 -0.1643 -0.4020  0.0528
 9832TIP3    H250988   5.430   1.421   0.878  2.0059 -0.9405  0.5711
 9833TIP3   OH250989   4.779   6.393   4.552  0.1843 -0.1999  0.2609
 9833TIP3    H150990   4.752   6.403   4.461  0.8045 -0.1923  0.0769
 9833TIP3    H250991   4.723   6.454   4.600 -1.7096 -1.7905  0.1983
 9834TIP3   OH250992   2.575   2.911  12.846 -0.2632 -0.1745  0.5118
 9834TIP3    H150993   2.662   2.942  12.822 -0.7040  0.6402 -0.0954
 9834TIP3    H250994   2.536   2.984  12.895 -1.1072  0.0365 -0.4366
 9835TIP3   OH250995   1.181   0.099  12.661  0.2536  0.3662 -0.4900
 9835TIP3    H150996   1.171   0.008  12.635 -0.6926  0.4758 -0.5653
 9835TIP3    H250997   1.152   0.149  12.585 -0.1924  0.7153 -0.0988
 9836TIP3   OH250998   4.276   5.501   5.970 -0.5793  0.1279 -0.2264
 9836TIP3    H150999   4.268   5.513   5.875 -1.7173 -1.5681 -0.3991
 9836TIP3    H251000   4.273   5.590   6.006 -0.7550  0.7626 -1.7300
 9837TIP3   OH251001   0.344   4.898   3.500 -0.2383  0.0252 -0.2004
 9837TIP3    H151002   0.371   4.983   3.466  1.3155 -0.1978  0.3937
 9837TIP3    H251003   0.351   4.838   3.426  1.7510 -0.1810  0.1090
 9838TIP3   OH251004   2.229   0.733   4.455 -0.4173  0.3160 -0.3001
 9838TIP3    H151005   2.162   0.725   4.523  0.5150 -0.0752  0.5929
 9838TIP3    H251006   2.184   0.778   4.383 -1.7737 -0.3580  0.0812
 9839TIP3   OH251007   6.620   4.761   2.603  0.2096  0.4391 -0.0691
 9839TIP3    H151008   6.699   4.814   2.597 -0.0845  0.9337  0.2837
 9839TIP3    H251009   6.571   4.801   2.676 -0.7648  0.6839 -0.8411
 9840TIP3   OH251010   3.418   1.231  10.513  0.1338  0.5010 -0.3033
 9840TIP3    H151011   3.380   1.226  10.600 -1.9778 -1.2766 -1.2066
 9840TIP3    H251012   3.378   1.308  10.473  0.4193  0.8091  0.0042
 9841TIP3   OH251013   1.945   0.119  12.930  0.4701 -0.1443 -0.3591
 9841TIP3    H151014   1.917   0.116  12.838 -0.1292  1.3003 -0.2404
 9841TIP3    H251015   2.014   0.185  12.932  0.0165  0.3205  0.3400
 9842TIP3   OH251016   2.186   4.976  13.016  0.0918  0.5595 -0.4331
 9842TIP3    H151017   2.259   4.998  13.075  1.2128  0.3105 -1.6733
 9842TIP3    H251018   2.158   5.060  12.980 -0.9934  0.7866  0.8389
 9843TIP3   OH251019   5.692   1.498  13.994  0.7358  0.0996 -0.1106
 9843TIP3    H151020   5.741   1.498  14.076 -0.0880 -0.6229  0.4041
 9843TIP3    H251021   5.621   1.560  14.008 -1.2472 -2.2376  0.9304
 9844TIP3   OH251022   2.175   5.544   4.248  0.0859  0.1871 -0.0889
 9844TIP3    H151023   2.084   5.550   4.218  0.1178  0.8811 -0.0641
 9844TIP3    H251024   2.192   5.450   4.253 -1.3754 -0.0365  2.1821
 9845TIP3   OH251025   2.577   2.641  15.851 -0.1299  0.2467  0.2015
 9845TIP3    H151026   2.564   2.554  15.813 -0.4124 -0.3107  1.5044
 9845TIP3    H251027   2.668   2.640  15.881 -0.4265 -0.0123  1.1509
 9846TIP3   OH251028   2.431   6.224   3.938  0.3085 -0.8427  0.6840
 9846TIP3    H151029   2.382   6.142   3.944  0.3614 -0.8046  2.1081
 9846TIP3    H251030   2.428   6.260   4.027  1.8102 -0.1839  0.4944
 9847TIP3   OH251031   2.867   2.672   1.381 -0.3819 -0.5329 -0.0103
 9847TIP3    H151032   2.932   2.689   1.312  0.2960 -2.4002  0.1161
 9847TIP3    H251033   2.786   2.656   1.333 -0.5406  0.7503 -0.2173
 9848TIP3   OH251034   1.815   1.591  15.357  0.2190  0.0723  0.1274
 9848TIP3    H151035   1.781   1.638  15.281 -1.9260 -2.3243 -0.5411
 9848TIP3    H251036   1.832   1.503  15.325  0.8491 -0.5560  2.0589
 9849TIP3   OH251037   3.160   3.098  11.700  0.2486 -0.3853 -0.7461
 9849TIP3    H151038   3.069   3.100  11.729  0.0923 -0.1474 -1.2472
 9849TIP3    H251039   3.199   3.178  11.737  0.0114 -0.0066 -1.3027
 9850TIP3   OH251040   4.517   0.100   0.805 -0.3861  0.1962  0.2086
 9850TIP3    H151041   4.463   0.049   0.745 -0.0252  0.0791 -0.0204
 9850TIP3    H251042   4.460   0.116   0.881 -0.9125  0.5324 -0.2505
 9851TIP3   OH251043   6.505   0.375   1.750 -0.0094 -0.0495  0.1814
 9851TIP3    H151044   6.437   0.416   1.696  0.4802  4.0713  2.3192
 9851TIP3    H251045   6.587   0.404   1.710  0.3849 -0.1059  0.9432
 9852TIP3   OH251046   0.481   0.248   5.634 -0.6371 -0.0116  0.3809
 9852TIP3    H151047   0.454   0.338   5.617  0.0598 -0.1690 -1.9717
 9852TIP3    H251048   0.400   0.201   5.650 -1.1808  0.6935 -0.2438
 9853TIP3   OH251049   0.764   5.631   0.879  0.2366  0.3079  0.5056
 9853TIP3    H151050   0.767   5.609   0.972 -0.4267  2.2582  1.0374
 9853TIP3    H251051   0.708   5.708   0.874 -0.3998 -0.2211 -1.6322
 9854TIP3   OH251052   1.349   3.198  11.875 -0.2543  0.3513 -0.0090
 9854TIP3    H151053   1.418   3.215  11.940  0.2266 -3.0847  0.5575
 9854TIP3    H251054   1.396   3.183  11.793 -0.7877  3.3353 -0.9932
 9855TIP3   OH251055   6.200   6.128  12.116 -0.0701  0.5603 -0.0942
 9855TIP3    H151056   6.143   6.088  12.051 -0.3919  0.6841  0.1086
 9855TIP3    H251057   6.288   6.105  12.088 -0.2577 -1.2677  0.6264
 9856TIP3   OH251058   5.697   4.381  15.346 -0.4395 -0.1260 -0.0988
 9856TIP3    H151059   5.758   4.424  15.406 -0.0153 -0.5062 -0.2536
 9856TIP3    H251060   5.706   4.430  15.264  1.1421 -1.3739 -0.7371
 9857TIP3   OH251061   6.532   5.099   4.977 -0.0353  0.5983  0.7606
 9857TIP3    H151062   6.571   5.018   5.009  1.5157  0.4914 -1.1592
 9857TIP3    H251063   6.478   5.131   5.049  0.3715 -1.4414  2.0364
 9858TIP3   OH251064   4.922   0.719  10.497  0.3753  0.0981 -0.1689
 9858TIP3    H151065   4.899   0.701  10.406 -1.3354  3.1726 -0.4797
 9858TIP3    H251066   5.011   0.752  10.494 -0.8765  3.8683 -1.4531
 9859TIP3   OH251067   4.781   3.320   0.701  0.0447 -0.2944  0.2086
 9859TIP3    H151068   4.782   3.415   0.713  0.5031 -0.5154  2.1354
 9859TIP3    H251069   4.693   3.302   0.667 -0.6370  0.6617  1.3655
 9860TIP3   OH251070   6.617   2.477   0.059  0.1086  0.0401 -0.0705
 9860TIP3    H151071   6.684   2.460   0.125  0.9844 -0.7552 -1.1279
 9860TIP3    H251072   6.603   2.393   0.016  0.7093  0.8463 -1.9347
 9861TIP3   OH251073   1.427   4.627   4.400 -0.4676 -0.0949 -0.4294
 9861TIP3    H151074   1.385   4.660   4.320  0.5206 -0.3987 -1.0812
 9861TIP3    H251075   1.519   4.650   4.390 -0.3971  0.2494  0.8368
 9862TIP3   OH251076   2.424   3.143  12.920 -0.0303 -0.3684 -0.1581
 9862TIP3    H151077   2.380   3.139  13.005  0.7819 -0.0949  0.2892
 9862TIP3    H251078   2.354   3.164  12.857 -0.4240  0.7949  0.6328
 9863TIP3   OH251079   2.381   4.093   4.438  0.0657  0.4009 -0.1535
 9863TIP3    H151080   2.367   4.078   4.532 -0.9470 -0.7469 -0.4580
 9863TIP3    H251081   2.369   4.187   4.427  0.3405  0.5750  0.8877
 9864TIP3   OH251082   2.925   4.589  15.638  0.2090  0.5285 -0.2861
 9864TIP3    H151083   2.869   4.587  15.716  1.8655  0.6273  0.9751
 9864TIP3    H251084   2.984   4.663  15.654  0.5199  0.5976 -1.6912
 9865TIP3   OH251085   5.389   4.954  10.466  0.2160 -0.1660  0.0272
 9865TIP3    H151086   5.306   4.981  10.504 -0.1379 -0.8913 -0.2134
 9865TIP3    H251087   5.451   5.021  10.494 -0.2066 -0.2456  1.1983
 9866TIP3   OH251088   2.315   2.182   5.949  0.0413 -0.3425  0.6168
 9866TIP3    H151089   2.259   2.106   5.964  1.3856 -0.8002  4.3356
 9866TIP3    H251090   2.272   2.253   5.998  0.0600  0.7132 -0.8213
 9867TIP3   OH251091   5.708   3.797   3.385 -0.0728  0.0888 -0.3851
 9867TIP3    H151092   5.657   3.798   3.304  0.3077 -0.8690 -0.6587
 9867TIP3    H251093   5.731   3.705   3.397 -1.4955 -0.0606  1.6938
 9868TIP3   OH251094   3.101   2.086   0.009 -0.8762  0.0245 -0.3322
 9868TIP3    H151095   3.020   2.135   0.024  0.5678  2.4330  0.0765
 9868TIP3    H251096   3.082   2.031  -0.067 -3.2726 -0.4336  0.5182
 9869TIP3   OH251097   4.164   5.222  15.046  0.3631 -0.1949  0.1777
 9869TIP3    H151098   4.153   5.271  14.965  0.6908 -1.4126 -0.6350
 9869TIP3    H251099   4.077   5.192  15.069 -0.0012  1.5107  1.2064
 9870TIP3   OH251100   4.088   5.164  12.557 -0.2946  0.0913  0.3349
 9870TIP3    H151101   4.002   5.127  12.537 -0.8246 -0.5335  3.3060
 9870TIP3    H251102   4.140   5.089  12.585  0.5730  0.7421  0.4948
 9871TIP3   OH251103   5.762   6.765  14.819  0.0385  0.0629  0.2308
 9871TIP3    H151104   5.709   6.685  14.824 -0.1372  0.2430  1.6401
 9871TIP3    H251105   5.766   6.797  14.909  0.2918  1.5310 -0.2692
 9872TIP3   OH251106   4.122   0.145   4.117 -0.0693 -0.0983  0.2967
 9872TIP3    H151107   4.107   0.228   4.162 -0.2303  1.0415 -1.7698
 9872TIP3    H251108   4.216   0.130   4.126  0.0862  0.6972  0.0261
 9873TIP3   OH251109   5.780   0.574   3.131  0.2326  0.0690  0.2518
 9873TIP3    H151110   5.728   0.640   3.177  0.6728  0.3021  0.4174
 9873TIP3    H251111   5.842   0.542   3.196  0.3344 -0.1671  0.0397
 9874TIP3   OH251112   4.639   1.117   2.712 -0.3488  0.1288 -0.0618
 9874TIP3    H151113   4.549   1.104   2.742 -0.5684  1.5712 -0.0560
 9874TIP3    H251114   4.683   1.160   2.785  0.7445 -1.7538  0.4649
 9875TIP3   OH251115   1.029   5.473  12.356 -0.3308 -0.0305 -0.1059
 9875TIP3    H151116   1.053   5.565  12.368 -0.0387  0.2331 -2.3047
 9875TIP3    H251117   1.100   5.424  12.396  0.7316  0.7289 -0.9936
 9876TIP3   OH251118   5.737   3.887  16.825 -0.2669 -0.4999 -0.1130
 9876TIP3    H151119   5.739   3.981  16.842 -0.9677 -0.5924  0.5033
 9876TIP3    H251120   5.817   3.871  16.774 -1.5040  0.9096 -2.7413
 9877TIP3   OH251121   4.156   0.995   5.602 -0.1277  0.6380  0.1627
 9877TIP3    H151122   4.174   0.925   5.664 -2.3019 -0.7399 -0.6509
 9877TIP3    H251123   4.140   1.072   5.657  0.7211  0.1398  1.1487
 9878TIP3   OH251124   0.805   2.640  11.625 -0.1358 -0.0460  0.0183
 9878TIP3    H151125   0.886   2.634  11.676 -0.8022  0.7364  1.2178
 9878TIP3    H251126   0.738   2.664  11.689 -0.8785  1.7285 -1.3194
 9879TIP3   OH251127   0.903   5.338  15.651 -0.1105 -0.8162  0.0998
 9879TIP3    H151128   0.976   5.399  15.643  0.4457 -1.5709 -0.7282
 9879TIP3    H251129   0.945   5.253  15.668 -0.7979 -1.2298 -0.2370
 9880TIP3   OH251130   4.132   3.680  17.227 -0.1564  0.1515 -0.1497
 9880TIP3    H151131   4.171   3.602  17.186 -1.1127  0.3308 -1.4701
 9880TIP3    H251132   4.066   3.645  17.286  0.0856 -0.0677 -0.0076
 9881TIP3   OH251133   2.567   5.697   3.298  0.5682 -0.5693  0.1926
 9881TIP3    H151134   2.585   5.755   3.224  1.7737  0.2654  1.1027
 9881TIP3    H251135   2.608   5.740   3.373 -1.4606 -0.8966  1.5635
 9882TIP3   OH251136   4.629   1.335   2.076 -0.5913  0.0536 -0.3431
 9882TIP3    H151137   4.584   1.414   2.108  2.0107  1.2396  0.6857
 9882TIP3    H251138   4.719   1.345   2.106  0.3937 -2.2087 -2.2177
 9883TIP3   OH251139   2.715   3.175   3.810 -0.1417  0.2636  0.1334
 9883TIP3    H151140   2.775   3.150   3.741 -1.0874 -0.8079 -0.3333
 9883TIP3    H251141   2.637   3.207   3.764 -0.3596  0.5902  0.7080
 9884TIP3   OH251142   5.334   2.716  13.760  0.6814  0.5626  0.1306
 9884TIP3    H151143   5.253   2.671  13.785  0.1295  1.7853  0.6302
 9884TIP3    H251144   5.310   2.769  13.684  1.0378  0.8538  0.2201
 9885TIP3   OH251145   2.334   0.349   2.282  0.5787 -0.4300  0.0201
 9885TIP3    H151146   2.305   0.333   2.372  0.9426  1.7564  0.5753
 9885TIP3    H251147   2.254   0.364   2.233  0.4560 -0.2521  0.2747
 9886TIP3   OH251148   2.573   4.388  13.331 -0.0921 -0.2898 -0.6305
 9886TIP3    H151149   2.478   4.394  13.325 -0.2532  0.1501  1.6399
 9886TIP3    H251150   2.594   4.300  13.300 -1.6214 -1.6946  2.0631
 9887TIP3   OH251151   2.138   1.781  14.604  0.3235  0.5538  0.4175
 9887TIP3    H151152   2.130   1.779  14.509  1.3051 -0.0677  0.3337
 9887TIP3    H251153   2.083   1.854  14.631  0.1540  0.8335 -0.6421
 9888TIP3   OH251154   3.317   2.331   1.933  0.3832  0.5147 -0.5558
 9888TIP3    H151155   3.333   2.381   2.013 -0.0841  0.1578 -0.2294
 9888TIP3    H251156   3.404   2.308   1.901  0.5710 -0.7325  0.7551
 9889TIP3   OH251157   0.210   1.857   6.015  0.0031  0.6270  0.3806
 9889TIP3    H151158   0.306   1.857   6.010  0.1062 -1.0397  1.5145
 9889TIP3    H251159   0.190   1.923   6.081  0.4681  0.0760  1.0884
 9890TIP3   OH251160   2.142   2.164  14.413 -0.1394 -0.6949 -0.2086
 9890TIP3    H151161   2.230   2.131  14.393  0.7510 -0.7202  3.1449
 9890TIP3    H251162   2.083   2.096  14.381  1.3265 -2.6426  1.0384
 9891TIP3   OH251163   2.779   4.214  11.372  0.0972  0.2884 -0.2264
 9891TIP3    H151164   2.752   4.154  11.303  1.6827  0.0503 -0.6739
 9891TIP3    H251165   2.826   4.284  11.326 -0.9970  1.4654  0.3722
 9892TIP3   OH251166   1.241   2.371   0.595  0.1273 -0.1821  0.3725
 9892TIP3    H151167   1.166   2.322   0.562  0.6917  0.4420 -2.0642
 9892TIP3    H251168   1.204   2.454   0.626 -0.0370  1.6495 -4.0479
 9893TIP3   OH251169   4.335   2.413  10.620 -0.1069 -0.2183 -0.2170
 9893TIP3    H151170   4.353   2.452  10.706 -0.1517 -2.2186  0.7471
 9893TIP3    H251171   4.242   2.393  10.622  0.3428 -2.4937  0.2814
 9894TIP3   OH251172   5.228   2.168   4.640 -0.4846  0.0820  0.0905
 9894TIP3    H151173   5.173   2.244   4.656  0.5592  0.5118  1.8405
 9894TIP3    H251174   5.316   2.203   4.628 -0.1422 -0.7808 -0.0193
 9895TIP3   OH251175   6.444   6.613   4.541 -0.5353  0.3274  0.2295
 9895TIP3    H151176   6.516   6.586   4.485 -0.4196 -0.4040  0.7222
 9895TIP3    H251177   6.482   6.621   4.628 -1.0419 -0.0566  0.4911
 9896TIP3   OH251178   4.039   0.021   5.275 -0.3006 -0.6702  0.2798
 9896TIP3    H151179   4.050  -0.073   5.263 -3.2201 -1.3986  2.3191
 9896TIP3    H251180   3.988   0.030   5.355 -1.1604  2.6183 -0.4695
 9897TIP3   OH251181   3.608   0.289  17.039  0.0568 -0.3222 -0.1388
 9897TIP3    H151182   3.676   0.228  17.011  0.4989  0.2557 -0.3665
 9897TIP3    H251183   3.526   0.245  17.019  0.3647 -0.5025 -1.0958
 9898TIP3   OH251184   5.234   4.344   4.813  0.9247  0.3377 -0.0767
 9898TIP3    H151185   5.196   4.428   4.839  1.2605  0.0165  1.6172
 9898TIP3    H251186   5.328   4.362   4.803  1.0098  0.1789  0.3673
 9899TIP3   OH251187   5.017   2.057  13.941  0.2175 -0.5216 -0.1960
 9899TIP3    H151188   4.949   2.004  13.983  0.0576 -0.0912  0.0923
 9899TIP3    H251189   4.969   2.119  13.886  0.0740  2.3710  2.8677
 9900TIP3   OH251190   0.473   0.832  13.962 -0.3211  0.0105  0.0251
 9900TIP3    H151191   0.530   0.884  14.019 -0.8859  1.2108 -0.4597
 9900TIP3    H251192   0.532   0.796  13.895  0.1159 -0.1883  0.5128
 9901TIP3   OH251193   3.685   2.702   4.156  0.5860 -0.1062  0.4142
 9901TIP3    H151194   3.592   2.693   4.175  0.5007  0.1947  0.1561
 9901TIP3    H251195   3.688   2.746   4.071  0.9497  2.1039  1.4930
 9902TIP3   OH251196   0.657   1.669  16.388  0.2779  0.2657 -0.4539
 9902TIP3    H151197   0.633   1.583  16.425 -0.8194  0.1015 -1.4700
 9902TIP3    H251198   0.740   1.691  16.431 -0.2373 -0.5355  1.0577
 9903TIP3   OH251199   4.874   5.773   6.658 -0.0155  0.3829 -0.2889
 9903TIP3    H151200   4.880   5.842   6.724  1.2947 -0.8199  0.9413
 9903TIP3    H251201   4.873   5.691   6.709 -1.1896 -0.5337 -1.7020
 9904TIP3   OH251202   5.123   2.056   2.963 -0.0198 -0.1318  0.0622
 9904TIP3    H151203   5.201   2.099   2.926  0.4637 -0.8698  0.2114
 9904TIP3    H251204   5.065   2.129   2.987  0.2932  0.4009 -0.7592
 9905TIP3   OH251205   2.984   4.692   1.786  0.0884  0.2551 -0.3313
 9905TIP3    H151206   2.908   4.746   1.809 -0.5462 -0.3462 -0.9649
 9905TIP3    H251207   2.946   4.614   1.746  1.0187 -0.4092  0.0713
 9906TIP3   OH251208   2.139   3.077   4.298  0.5063 -0.0241 -0.7318
 9906TIP3    H151209   2.221   3.028   4.305 -0.4151 -2.0092 -2.5762
 9906TIP3    H251210   2.104   3.080   4.387  1.7740 -0.6173 -0.1976
 9907TIP3   OH251211   4.757   4.175  12.130 -0.0301  0.4247 -0.1111
 9907TIP3    H151212   4.731   4.131  12.050 -2.6542  0.8751  0.4107
 9907TIP3    H251213   4.847   4.145  12.146 -0.1751 -1.2556 -2.0721
 9908TIP3   OH251214   4.477   6.681   3.214  0.4600 -0.2377 -0.2827
 9908TIP3    H151215   4.408   6.632   3.169  0.5934 -1.4542  0.7769
 9908TIP3    H251216   4.558   6.638   3.188  0.6658  0.0359 -0.1029
 9909TIP3   OH251217   5.981   3.107  16.677 -0.2809  0.1351 -0.1057
 9909TIP3    H151218   5.950   3.113  16.767  2.2522 -0.1938  0.8893
 9909TIP3    H251219   6.034   3.186  16.665  1.3294 -0.9401 -0.4275
 9910TIP3   OH251220   3.007   5.858   5.883  0.5219  0.3110  0.3493
 9910TIP3    H151221   3.086   5.902   5.850  0.8057  1.7674  2.7448
 9910TIP3    H251222   3.026   5.842   5.975 -1.2948 -1.0292  0.5342
 9911TIP3   OH251223   1.857   5.222   0.008 -0.1896 -0.0405  0.3708
 9911TIP3    H151224   1.949   5.245   0.018  0.4647 -1.1734 -2.3610
 9911TIP3    H251225   1.857   5.130  -0.016 -2.0863 -0.1431  0.5400
 9912TIP3   OH251226   5.054   2.448  11.787  0.3234  0.2794  0.3174
 9912TIP3    H151227   5.020   2.405  11.865  0.0531  1.8887  1.1284
 9912TIP3    H251228   4.977   2.488  11.746  0.2127 -1.7127 -1.6104
 9913TIP3   OH251229   0.342   1.932  14.805 -0.4065  0.3438  0.1597
 9913TIP3    H151230   0.299   1.846  14.811  1.3623 -0.5670  0.6680
 9913TIP3    H251231   0.322   1.974  14.889 -0.2771 -0.1072  0.4255
 9914TIP3   OH251232   0.644   1.310  12.428  0.4239  0.0328  1.0068
 9914TIP3    H151233   0.593   1.320  12.509 -1.8042  1.3076 -0.4561
 9914TIP3    H251234   0.610   1.377  12.370  0.9987 -1.7352 -1.5130
 9915TIP3   OH251235   5.301   4.621  15.247 -0.5504  0.4498 -0.2527
 9915TIP3    H151236   5.275   4.621  15.155 -1.5061  0.3892  0.0059
 9915TIP3    H251237   5.229   4.666  15.292  0.1088  0.8713  0.4150
 9916TIP3   OH251238   3.661   0.086   0.435  0.6319  0.2907 -0.1915
 9916TIP3    H151239   3.639  -0.005   0.453  1.2327 -0.2973 -2.0751
 9916TIP3    H251240   3.577   0.130   0.424  0.3369 -0.4213 -0.8614
 9917TIP3   OH251241   1.531   5.502   3.141  0.3452  0.4512  0.1323
 9917TIP3    H151242   1.467   5.482   3.073 -1.3599  1.4632  1.3465
 9917TIP3    H251243   1.576   5.581   3.109  1.1996 -0.3884 -0.8266
 9918TIP3   OH251244   4.355   5.987   2.053  0.2555 -0.3991 -0.3602
 9918TIP3    H151245   4.284   5.976   2.116  2.5074  0.7828  2.5949
 9918TIP3    H251246   4.343   5.915   1.992 -2.4310 -1.2671  0.9999
 9919TIP3   OH251247   6.467   5.595   5.585 -1.0830 -0.0725 -0.1621
 9919TIP3    H151248   6.470   5.520   5.644 -1.8529  0.0508  0.0531
 9919TIP3    H251249   6.555   5.602   5.550 -1.4442 -2.2631 -1.6929
 9920TIP3   OH251250   1.681   2.799   5.829 -0.1647 -0.1132  0.6231
 9920TIP3    H151251   1.652   2.717   5.868 -0.5778 -1.0928 -1.6282
 9920TIP3    H251252   1.601   2.851   5.819 -0.3479 -0.5797 -0.4810
 9921TIP3   OH251253   6.117   3.853  15.932 -0.2136 -0.4253  0.7805
 9921TIP3    H151254   6.111   3.930  15.874  0.6715 -0.1427  1.0580
 9921TIP3    H251255   6.152   3.784  15.876  2.9626  0.4698  1.5075
 9922TIP3   OH251256   2.038   0.611   3.366  0.0926  0.1586 -0.1237
 9922TIP3    H151257   1.953   0.639   3.402  0.2786  1.0927 -0.3864
 9922TIP3    H251258   2.068   0.686   3.315  0.3077 -0.7807 -1.4046
 9923TIP3   OH251259   3.724   2.696   1.540 -0.3886  0.2420  0.4548
 9923TIP3    H151260   3.680   2.743   1.470 -2.1016 -0.5383  0.9652
 9923TIP3    H251261   3.655   2.649   1.585  1.1392 -2.1834  0.4472
 9924TIP3   OH251262   3.257   5.421   6.073 -0.2732 -0.1700 -0.5996
 9924TIP3    H151263   3.242   5.446   5.982 -0.1355 -1.0789 -0.8856
 9924TIP3    H251264   3.266   5.326   6.070 -0.5000 -0.2330  0.3979
 9925TIP3   OH251265   0.321   3.021   1.157  0.6093  0.0029 -0.2792
 9925TIP3    H151266   0.250   3.018   1.221  0.2031  0.5223 -0.6907
 9925TIP3    H251267   0.327   2.932   1.123 -0.7643  0.2262 -1.2037
 9926TIP3   OH251268   0.483   5.210  10.752 -0.1896 -0.1644 -0.5826
 9926TIP3    H151269   0.539   5.286  10.765 -0.6440  0.0490  0.2424
 9926TIP3    H251270   0.484   5.194  10.658  1.4176 -0.2983 -0.5726
 9927TIP3   OH251271   4.932   1.100  15.254  0.3814 -0.8216 -0.2995
 9927TIP3    H151272   5.002   1.051  15.213 -0.9237 -3.1852  0.1277
 9927TIP3    H251273   4.852   1.072  15.209 -0.6555 -0.6760  1.3482
 9928TIP3   OH251274   3.292   0.491  12.085 -0.5654  0.5925  0.3948
 9928TIP3    H151275   3.267   0.441  12.162 -1.3180  2.8472  1.6958
 9928TIP3    H251276   3.346   0.562  12.119  1.5170  0.0543 -1.5321
 9929TIP3   OH251277   5.992   6.323   2.872  0.2406 -0.4475 -0.4232
 9929TIP3    H151278   6.083   6.316   2.901 -0.0525  1.7750  1.2976
 9929TIP3    H251279   5.991   6.400   2.814 -0.4141 -0.9293 -1.0682
 9930TIP3   OH251280   6.658   0.791   0.846  0.0337 -0.0669  0.3075
 9930TIP3    H151281   6.675   0.731   0.919 -1.1595 -0.5257  0.2385
 9930TIP3    H251282   6.620   0.735   0.778 -2.4868  0.9507  0.7698
 9931TIP3   OH251283   3.363   6.008   2.479 -0.3281  0.1774 -0.0995
 9931TIP3    H151284   3.335   5.965   2.560  0.8537 -1.7384 -0.6370
 9931TIP3    H251285   3.455   6.030   2.494 -0.0812 -0.2498 -0.9296
 9932TIP3   OH251286   4.913   1.447  11.828  0.1704 -0.3440  0.2225
 9932TIP3    H151287   4.881   1.418  11.913 -0.9590  1.7549  0.5892
 9932TIP3    H251288   4.835   1.445  11.772  0.6740 -0.6682 -0.4682
 9933TIP3   OH251289   1.533   4.279  15.941 -0.4877  0.4941 -0.1709
 9933TIP3    H151290   1.543   4.298  16.034 -3.0284  0.1664  0.2429
 9933TIP3    H251291   1.584   4.347  15.897  2.2217 -0.4045  1.4192
 9934TIP3   OH251292   4.690   3.400   3.238 -0.3190  0.0486  0.1662
 9934TIP3    H151293   4.606   3.445   3.247  0.8202  2.2936  0.4569
 9934TIP3    H251294   4.731   3.410   3.324  0.0287 -1.5325  0.2087
 9935TIP3   OH251295   1.987   3.164  13.490  0.0873 -0.0969 -0.5092
 9935TIP3    H151296   2.008   3.172  13.583 -1.1971  0.1286 -0.2134
 9935TIP3    H251297   2.030   3.083  13.462 -0.3083 -0.6868  0.5273
 9936TIP3   OH251298   0.586   4.326  14.288  0.1531 -0.0585  0.1454
 9936TIP3    H151299   0.677   4.330  14.315  0.4447  0.3585 -0.8777
 9936TIP3    H251300   0.555   4.242  14.322  0.9078 -0.1924  0.5135
 9937TIP3   OH251301   5.648   2.148  15.829 -0.3291  0.3136 -0.2021
 9937TIP3    H151302   5.649   2.235  15.869  1.0112  0.2275  0.0171
 9937TIP3    H251303   5.646   2.088  15.904 -0.7081  0.1563 -0.3380
 9938TIP3   OH251304   5.922   6.543  15.668 -0.3976  0.0730 -0.0588
 9938TIP3    H151305   5.963   6.590  15.596 -1.9998  0.7256 -0.6103
 9938TIP3    H251306   5.829   6.537  15.643 -0.3280 -3.2847  0.0447
 9939TIP3   OH251307   0.745   0.912  12.522 -0.0836 -0.3408 -0.3006
 9939TIP3    H151308   0.740   0.817  12.524  0.6108 -0.3795 -0.0847
 9939TIP3    H251309   0.690   0.938  12.448 -1.7545 -0.7954  0.7318
 9940TIP3   OH251310   0.272   0.369  10.833  0.1082  0.3051  0.1982
 9940TIP3    H151311   0.219   0.448  10.825  0.5974  0.6171 -0.0139
 9940TIP3    H251312   0.208   0.297  10.832 -0.2498  0.5848 -1.5589
 9941TIP3   OH251313   6.037   6.498  11.220 -0.4813 -0.3887 -0.2714
 9941TIP3    H151314   6.119   6.547  11.232 -1.5945  1.2841  0.9818
 9941TIP3    H251315   6.059   6.430  11.158  1.4882  0.9761 -1.1759
 9942TIP3   OH251316   6.815   6.669  13.607 -0.2166 -0.1900  0.6005
 9942TIP3    H151317   6.781   6.580  13.601  0.0793 -0.3248  0.8837
 9942TIP3    H251318   6.813   6.702  13.517  1.3701 -1.1209  0.1882
 9943TIP3   OH251319   4.891   4.376   4.204  0.0423  0.0269 -0.5285
 9943TIP3    H151320   4.803   4.347   4.178 -0.1169  1.3606 -1.5893
 9943TIP3    H251321   4.876   4.435   4.278  0.3203 -1.9724  1.2271
 9944TIP3   OH251322   5.706   6.448   0.509 -0.1268 -0.0428 -0.1048
 9944TIP3    H151323   5.617   6.441   0.543 -0.0978 -1.8837 -0.3194
 9944TIP3    H251324   5.700   6.415   0.419  0.3083  2.2670 -1.0636
 9945TIP3   OH251325   0.653   1.685  13.598  0.1131 -1.3018 -0.3105
 9945TIP3    H151326   0.665   1.697  13.504  0.2773 -1.5333 -0.3225
 9945TIP3    H251327   0.593   1.611  13.605 -1.2538 -0.2210 -0.2471
 9946TIP3   OH251328   6.249   2.307  11.668  0.7871  0.0656  0.1770
 9946TIP3    H151329   6.199   2.309  11.586 -1.0094  0.1324  1.2273
 9946TIP3    H251330   6.325   2.253  11.648 -0.4979 -1.3983 -1.0694
 9947TIP3   OH251331   1.242   0.986  10.467  0.7597  0.2071 -0.6230
 9947TIP3    H151332   1.314   0.934  10.431  1.1404 -0.4040  0.9424
 9947TIP3    H251333   1.211   0.935  10.541 -0.8738  0.7849 -0.8815
 9948TIP3   OH251334   4.069   0.503   3.372  0.7274 -0.1480 -0.4521
 9948TIP3    H151335   4.100   0.433   3.314  0.2497 -0.9952  0.2789
 9948TIP3    H251336   3.995   0.464   3.418 -0.5901  1.3980 -1.1939
 9949TIP3   OH251337   1.452   4.253   1.106 -0.3233  0.1359  0.4254
 9949TIP3    H151338   1.394   4.303   1.049 -0.8167 -1.1931 -0.2963
 9949TIP3    H251339   1.396   4.223   1.177 -0.7330 -1.6994 -0.6132
 9950TIP3   OH251340   4.428   4.936   5.556 -0.1445  0.0354 -0.0726
 9950TIP3    H151341   4.384   4.852   5.562  0.7194 -0.5067 -1.0400
 9950TIP3    H251342   4.514   4.916   5.519 -0.0322  1.3794 -0.6049
 9951TIP3   OH251343   6.402   5.420   1.671 -0.1433 -0.3351 -0.1912
 9951TIP3    H151344   6.476   5.364   1.694 -0.2112 -0.5377 -0.4594
 9951TIP3    H251345   6.382   5.467   1.752  1.2014  0.8042 -0.4996
 9952TIP3   OH251346   4.694   5.365  11.788 -0.0118  0.3275 -0.3582
 9952TIP3    H151347   4.610   5.330  11.815  0.1946  0.1146  0.0317
 9952TIP3    H251348   4.701   5.449  11.835  0.2273  0.0887  0.0395
 9953TIP3   OH251349   0.641   5.738   6.124 -0.0324  0.2253  0.4540
 9953TIP3    H151350   0.652   5.832   6.108  1.1567  0.1848  0.8974
 9953TIP3    H251351   0.547   5.724   6.127 -0.2476  1.2044 -0.7859
 9954TIP3   OH251352   3.506   1.537   2.288 -0.5151  0.1246 -0.4827
 9954TIP3    H151353   3.571   1.496   2.230  1.4735 -0.0069  1.7014
 9954TIP3    H251354   3.555   1.559   2.367 -3.1973 -0.1726  1.3875
 9955TIP3   OH251355   5.842   2.510  14.578 -0.1705 -0.2096  0.0797
 9955TIP3    H151356   5.921   2.482  14.622 -0.4930  0.9842  1.4971
 9955TIP3    H251357   5.771   2.463  14.622 -0.4752  0.8075  0.7169
 9956TIP3   OH251358   2.453   0.927   6.144 -0.4923  0.2778 -0.1931
 9956TIP3    H151359   2.368   0.931   6.187 -0.4030  1.6683 -0.0987
 9956TIP3    H251360   2.453   0.842   6.099 -0.2726 -1.6283  3.1140
 9957TIP3   OH251361   6.539   2.249  17.187  0.0153  0.5781  0.3786
 9957TIP3    H151362   6.515   2.157  17.182  0.0694  0.5291  0.9820
 9957TIP3    H251363   6.456   2.296  17.185 -0.0251  0.5051  0.3425
 9958TIP3   OH251364   5.905   4.253  16.120  0.1242 -0.2558 -0.4976
 9958TIP3    H151365   5.870   4.167  16.095  0.8291 -1.0584  1.1842
 9958TIP3    H251366   5.990   4.234  16.158  0.5118  1.2592 -0.5610
 9959TIP3   OH251367   3.529   0.396   4.176 -0.0785 -0.2549 -0.4036
 9959TIP3    H151368   3.459   0.342   4.140 -0.8766 -0.5066  1.3756
 9959TIP3    H251369   3.552   0.353   4.259  0.6680  1.0199  0.0932
 9960TIP3   OH251370   1.283   6.203   0.473 -0.2260 -0.4798 -0.1893
 9960TIP3    H151371   1.374   6.218   0.447 -0.1367 -0.5331  0.0883
 9960TIP3    H251372   1.277   6.108   0.485  0.4532 -0.2436  2.5770
 9961TIP3   OH251373   4.278   4.471   5.106 -0.4297 -0.4999  0.0540
 9961TIP3    H151374   4.207   4.529   5.133 -0.3661  0.2749 -1.3292
 9961TIP3    H251375   4.354   4.504   5.154 -0.4676  0.3480 -0.4529
 9962TIP3   OH251376   6.153   1.636   2.105 -0.2538  1.0514 -0.1122
 9962TIP3    H151377   6.107   1.561   2.141  2.2611 -0.0901  0.9745
 9962TIP3    H251378   6.244   1.623   2.131  0.3731  4.2577 -0.2669
 9963TIP3   OH251379   5.564   1.862   1.471 -0.5434  0.0949  0.5112
 9963TIP3    H151380   5.590   1.940   1.423 -0.3598  0.4231  1.1351
 9963TIP3    H251381   5.471   1.875   1.489 -1.1516 -0.9492 -1.4726
 9964TIP3   OH251382   5.237   5.433  12.035  0.4423 -0.1317 -0.2751
 9964TIP3    H151383   5.236   5.495  12.108 -1.0123  0.1750 -0.5229
 9964TIP3    H251384   5.145   5.424  12.010  0.7055 -1.8160 -0.7491
 9965TIP3   OH251385   3.334   6.712   2.403 -0.0608 -0.4707 -0.3769
 9965TIP3    H151386   3.263   6.678   2.458 -1.0937  0.5755 -1.0142
 9965TIP3    H251387   3.311   6.683   2.315  1.7532 -2.4125 -0.2851
 9966TIP3   OH251388   6.047   4.758   6.009 -0.3801  0.1688  0.0293
 9966TIP3    H151389   6.108   4.827   5.984  0.3241 -0.7290 -0.8048
 9966TIP3    H251390   6.090   4.714   6.083  1.8752 -2.7573 -2.7273
 9967TIP3   OH251391   1.339   1.121  11.434  0.3534 -0.4494 -0.2323
 9967TIP3    H151392   1.318   1.030  11.413 -0.2313  0.1264 -2.3251
 9967TIP3    H251393   1.421   1.138  11.389  0.7872 -0.0908  0.6618
 9968TIP3   OH251394   2.089   1.259   5.744  0.0410  0.3345 -0.6971
 9968TIP3    H151395   2.116   1.176   5.705 -2.0724 -0.6054 -0.2826
 9968TIP3    H251396   2.100   1.247   5.838  1.3237  1.1755 -0.7067
 9969TIP3   OH251397   1.532   6.053  13.008  0.2731 -0.5746 -0.6448
 9969TIP3    H151398   1.469   6.039  13.079 -1.5266  1.4490 -1.7319
 9969TIP3    H251399   1.514   6.141  12.977  2.5441 -0.5746 -2.1613
 9970TIP3   OH251400   4.375   5.914   4.190 -0.0716 -0.1749 -0.6892
 9970TIP3    H151401   4.418   5.994   4.157 -0.6847 -0.0863 -1.3022
 9970TIP3    H251402   4.342   5.939   4.276  2.9222 -0.8658  0.7958
 9971TIP3   OH251403   3.679   2.082  16.700  1.1334 -0.2224  0.1382
 9971TIP3    H151404   3.645   2.161  16.659  1.4536 -1.0753 -1.9232
 9971TIP3    H251405   3.619   2.013  16.674  1.5641 -0.8793  0.8259
 9972TIP3   OH251406   1.801   3.943  11.813 -0.2142 -0.1748  0.5849
 9972TIP3    H151407   1.865   3.976  11.876  0.6117  0.0471 -0.3406
 9972TIP3    H251408   1.809   4.001  11.738 -1.7006  0.0036  0.5352
 9973TIP3   OH251409   6.242   0.378  12.025  0.0087  0.5002 -0.0556
 9973TIP3    H151410   6.213   0.453  11.974 -1.8406 -0.2509 -0.1889
 9973TIP3    H251411   6.337   0.377  12.014  0.0880  2.7439 -0.1132
 9974TIP3   OH251412   2.196   6.410   0.413 -0.0926 -0.4382  0.1047
 9974TIP3    H151413   2.105   6.384   0.426 -1.0547  1.8563 -1.3625
 9974TIP3    H251414   2.208   6.486   0.470  1.6580 -1.9408  1.9247
 9975TIP3   OH251415   2.317   1.087   2.403 -0.9112 -0.0229  0.1081
 9975TIP3    H151416   2.398   1.116   2.360  0.2152  0.0128  2.1595
 9975TIP3    H251417   2.248   1.132   2.354  0.4510  1.8181 -0.2628
 9976TIP3   OH251418   1.320   6.611  14.687 -0.1728 -0.1216  0.4251
 9976TIP3    H151419   1.265   6.546  14.730 -1.0484  0.2159 -0.1465
 9976TIP3    H251420   1.289   6.695  14.722  0.4161  0.0376  0.5749
 9977TIP3   OH251421   4.334   6.525  16.212  0.1027 -1.0942 -0.2678
 9977TIP3    H151422   4.411   6.554  16.260 -0.3669  0.5813 -0.4594
 9977TIP3    H251423   4.291   6.463  16.271  1.2317 -1.5435  0.1102
 9978TIP3   OH251424   5.038   4.263   3.311 -0.1717  0.4258  0.5834
 9978TIP3    H151425   5.100   4.283   3.381 -0.3565  0.0541  0.8547
 9978TIP3    H251426   4.953   4.291   3.344  0.0571  2.5291 -0.4549
 9979TIP3   OH251427   6.559   5.733  11.978  0.1164  0.0285 -0.3324
 9979TIP3    H151428   6.648   5.699  11.989  0.2190 -0.3688 -2.0172
 9979TIP3    H251429   6.564   5.786  11.898 -0.8568  1.1550  0.3298
 9980TIP3   OH251430   2.747   5.920  14.663  0.4885  0.2732  0.1621
 9980TIP3    H151431   2.653   5.931  14.668  0.6234  1.0008  1.6059
 9980TIP3    H251432   2.760   5.853  14.596 -1.0394  0.1772 -0.0653
 9981TIP3   OH251433   4.353   3.804   3.681  0.0448 -0.5734  0.1957
 9981TIP3    H151434   4.313   3.843   3.759 -0.8464  0.1348 -0.6006
 9981TIP3    H251435   4.423   3.865   3.657 -0.5611 -0.0773 -0.3392
 9982TIP3   OH251436   3.501   2.709   4.676  0.2118  0.2171  0.6480
 9982TIP3    H151437   3.428   2.771   4.674  0.2339  0.2771  1.4193
 9982TIP3    H251438   3.510   2.686   4.768  1.6745  0.8256  0.6770
 9983TIP3   OH251439   0.627   2.528  15.465 -0.2879  0.2430  0.5019
 9983TIP3    H151440   0.701   2.563  15.515 -0.3865  0.0312  0.7940
 9983TIP3    H251441   0.561   2.508  15.531  0.3330 -1.9695  0.5073
 9984TIP3   OH251442   6.533   5.914  16.871 -0.8101  0.2351 -0.8183
 9984TIP3    H151443   6.547   6.005  16.847  0.2342  0.7607  1.5416
 9984TIP3    H251444   6.567   5.864  16.797  0.0351  1.7405 -1.4819
 9985TIP3   OH251445   5.373   1.302   6.019 -0.1495  0.5134  0.1138
 9985TIP3    H151446   5.372   1.246   6.096 -1.6935  0.2416 -0.0691
 9985TIP3    H251447   5.322   1.379   6.044 -2.1430 -0.3164 -1.0985
 9986TIP3   OH251448   1.120   4.028   5.536  0.6544 -0.1922 -0.2165
 9986TIP3    H151449   1.183   4.098   5.551  2.8670 -2.3181  1.1192
 9986TIP3    H251450   1.158   3.977   5.464 -0.8237 -0.2050 -1.0374
 9987TIP3   OH251451   5.007   2.971  17.087  0.2446  0.2878 -0.4675
 9987TIP3    H151452   4.966   3.057  17.084  1.6094  1.0930  1.6542
 9987TIP3    H251453   5.083   2.982  17.143  1.1788 -2.0400 -1.1413
 9988TIP3   OH251454   3.960   4.408   4.914  0.3387 -0.3148  0.0848
 9988TIP3    H151455   3.912   4.432   4.834 -0.7825 -1.7905  0.2780
 9988TIP3    H251456   4.022   4.341   4.885  2.4009  1.5622 -0.1602
 9989TIP3   OH251457   3.618   2.040   3.784  0.8177  0.4880 -0.3587
 9989TIP3    H151458   3.663   1.960   3.760  1.0936  0.2585  0.8565
 9989TIP3    H251459   3.527   2.027   3.755  0.9632 -0.0709 -0.5616
 9990TIP3   OH251460   5.530   1.356   0.058  0.2934  0.5418  0.0441
 9990TIP3    H151461   5.568   1.349  -0.030 -0.1023  2.9520 -0.3860
 9990TIP3    H251462   5.480   1.275   0.068  1.2582 -0.3071 -1.4835
 9991TIP3   OH251463   1.684   5.094   5.468 -0.3326  0.0195  0.3520
 9991TIP3    H151464   1.660   5.125   5.555 -2.1613 -0.2572 -0.0209
 9991TIP3    H251465   1.731   5.012   5.484 -1.9545 -0.8266  1.0688
 9992TIP3   OH251466   1.326   2.373   4.425  0.4399  0.1822  0.0972
 9992TIP3    H151467   1.294   2.283   4.425  2.0506 -0.4235 -0.4958
 9992TIP3    H251468   1.386   2.377   4.499 -0.2557  1.0290  0.6343
 9993TIP3   OH251469   6.572   5.864  14.711 -0.3028  0.5018  0.4345
 9993TIP3    H151470   6.642   5.800  14.720  0.3413  0.8240 -1.7727
 9993TIP3    H251471   6.492   5.812  14.706 -0.1203  0.0701  1.5938
 9994TIP3   OH251472   6.058   4.785   4.669 -0.3765 -0.1591  0.4252
 9994TIP3    H151473   6.057   4.758   4.761 -0.3014 -2.1318 -0.1077
 9994TIP3    H251474   5.993   4.728   4.627 -1.6009  1.7962 -0.4955
 9995TIP3   OH251475   5.494   3.351  12.186 -0.0930  0.6373  0.6022
 9995TIP3    H151476   5.476   3.338  12.093 -1.2916 -2.8768  1.1625
 9995TIP3    H251477   5.411   3.383  12.222  0.1134  1.1643  0.6246
 9996TIP3   OH251478   0.028   3.338  10.781 -0.0218 -0.0267 -0.0855
 9996TIP3    H151479  -0.017   3.280  10.720 -0.1323  0.2315 -0.2505
 9996TIP3    H251480   0.114   3.354  10.740 -0.6470  1.3654 -0.9414
 9997TIP3   OH251481   3.170   1.751  14.168  0.4174 -0.6405  0.0965
 9997TIP3    H151482   3.107   1.821  14.188  2.6556  1.2965  0.7449
 9997TIP3    H251483   3.168   1.694  14.245 -1.8770 -1.7707 -0.6926
 9998TIP3   OH251484   2.537   2.076   2.632  0.1253 -0.1215 -0.0625
 9998TIP3    H151485   2.526   2.171   2.639 -2.2936 -0.3675  0.6347
 9998TIP3    H251486   2.587   2.063   2.552 -1.5289  1.7040 -1.4882
 9999TIP3   OH251487   1.288   3.807  15.521 -0.1182  0.0210 -0.3158
 9999TIP3    H151488   1.302   3.726  15.571 -1.4362 -0.9433 -1.4220
 9999TIP3    H251489   1.208   3.844  15.558  0.6832  1.0536  0.4356
10000TIP3   OH251490   3.737   2.723   3.389 -0.0776  0.2130  0.0782
10000TIP3    H151491   3.790   2.730   3.310  0.4041  0.3417  0.4063
10000TIP3    H251492   3.800   2.719   3.460 -0.4922 -0.6390  0.4100
10001TIP3   OH251493   0.558   5.910  12.105  0.4064 -0.1532 -0.0826
10001TIP3    H151494   0.483   5.913  12.164  1.4311 -0.2818  1.2645
10001TIP3    H251495   0.622   5.970  12.143  1.5366 -1.1081 -0.3986
10002TIP3   OH251496   0.238   5.992  14.091 -0.1090  0.3354  0.3596
10002TIP3    H151497   0.214   6.044  14.014  0.1986  1.0345  0.7222
10002TIP3    H251498   0.157   5.983  14.141 -0.8438 -2.0574 -1.1262
10003TIP3   OH251499   4.291   0.097   5.948  0.4821 -0.1540  0.0115
10003TIP3    H151500   4.314   0.008   5.974  0.0721  0.1322  1.4335
10003TIP3    H251501   4.207   0.088   5.904  0.5666 -0.5026 -0.0832
10004TIP3   OH251502   6.050   1.472  12.718 -0.2845 -0.0940 -0.2197
10004TIP3    H151503   5.999   1.508  12.792 -1.1483 -1.4686 -0.1142
10004TIP3    H251504   6.117   1.538  12.702 -0.2338  0.3717  1.6277
10005TIP3   OH251505   6.282   0.820   1.855 -0.1906  0.1258  0.2285
10005TIP3    H151506   6.211   0.825   1.919 -0.1276 -0.4001  0.3477
10005TIP3    H251507   6.341   0.753   1.890  1.6823  2.2519  1.4286
10006TIP3   OH251508   1.731   3.200   3.260  0.3915 -0.1293 -0.2535
10006TIP3    H151509   1.812   3.149   3.267 -0.0482 -0.7465  0.5917
10006TIP3    H251510   1.684   3.161   3.186  0.8894  0.2717 -0.7840
10007TIP3   OH251511   2.348   1.564   5.057 -0.2996 -0.3224 -0.2653
10007TIP3    H151512   2.281   1.520   5.110 -0.0045  0.4346  0.7654
10007TIP3    H251513   2.332   1.657   5.072 -0.8822 -0.0241 -2.3624
10008TIP3   OH251514   0.934   4.844  15.657 -0.1238 -0.3713 -0.3838
10008TIP3    H151515   0.957   4.752  15.645  0.8932 -0.1525 -0.2673
10008TIP3    H251516   0.848   4.843  15.698  0.0406 -1.2790 -0.0502
10009TIP3   OH251517   2.575   2.539   3.191  0.4152  0.1527 -0.1470
10009TIP3    H151518   2.594   2.575   3.278  0.2274  0.6004 -0.2894
10009TIP3    H251519   2.537   2.452   3.209 -0.9909  0.8193  0.2909
10010TIP3   OH251520   5.714   6.014  11.528  0.3936 -0.1130 -0.2351
10010TIP3    H151521   5.658   6.088  11.550  1.3025  0.2044  1.1907
10010TIP3    H251522   5.778   6.050  11.466  2.2284  1.0060  2.1243
10011TIP3   OH251523   0.484   2.815  14.164 -1.1091  0.1684 -0.3630
10011TIP3    H151524   0.510   2.844  14.077 -1.5333  0.9123 -0.2537
10011TIP3    H251525   0.392   2.841  14.171 -1.1768 -0.2017  0.1763
10012TIP3   OH251526   3.162   1.770  15.308 -0.4338  0.1797  0.1639
10012TIP3    H151527   3.192   1.730  15.227 -0.5013 -0.9739  0.6897
10012TIP3    H251528   3.086   1.718  15.334 -1.8868  1.9723 -0.2373
10013TIP3   OH251529   5.190   4.799   0.306 -0.3531 -0.1028  0.1455
10013TIP3    H151530   5.106   4.840   0.289 -0.6680 -0.6272  0.4067
10013TIP3    H251531   5.188   4.718   0.256 -0.1369 -0.2749  0.4079
10014TIP3   OH251532   5.685   4.563  15.135  0.3023  0.7326 -0.4143
10014TIP3    H151533   5.633   4.572  15.055 -2.4690  2.0077  1.3936
10014TIP3    H251534   5.720   4.651  15.151 -1.1909  1.1008  1.0115
10015TIP3   OH251535   6.496   6.487   3.280 -0.3253 -0.0686  0.2968
10015TIP3    H151536   6.409   6.458   3.254 -0.3060 -0.1093  0.2777
10015TIP3    H251537   6.512   6.442   3.363  0.5729 -1.7887 -0.7609
10016TIP3   OH251538   3.365   0.886   2.824  0.5584  0.0096 -0.2551
10016TIP3    H151539   3.385   0.942   2.898  1.3259 -0.1718 -0.3227
10016TIP3    H251540   3.316   0.942   2.764  2.0330  0.8576 -0.7065
10017TIP3   OH251541   4.029   4.664  15.937  0.1379 -0.1262  0.0154
10017TIP3    H151542   4.044   4.743  15.885 -1.2899  0.7866  0.9276
10017TIP3    H251543   3.975   4.608  15.881  0.4438 -0.1094 -0.3025
10018TIP3   OH251544   5.911   1.209   1.220  0.8152 -0.1154  0.4582
10018TIP3    H151545   5.834   1.261   1.242  0.6978 -0.8812  2.0156
10018TIP3    H251546   5.916   1.213   1.124 -1.9181 -1.1050  0.1772
10019TIP3   OH251547   6.617   3.168   2.838 -0.0309 -0.1577  0.0316
10019TIP3    H151548   6.590   3.200   2.924  0.2950 -3.1315  1.3709
10019TIP3    H251549   6.706   3.135   2.851  0.9295  1.3478 -2.0719
10020TIP3   OH251550   1.116   5.114   2.471 -0.1156  0.0408  0.5421
10020TIP3    H151551   1.142   5.116   2.563 -2.0151 -1.1835  1.1804
10020TIP3    H251552   1.043   5.176   2.465  0.4197  0.6070 -0.3086
10021TIP3   OH251553   2.610   4.950  16.329 -0.2379 -0.5862 -0.1183
10021TIP3    H151554   2.541   4.919  16.270  0.7375 -1.3193 -0.9325
10021TIP3    H251555   2.653   4.869  16.359 -0.7170 -0.2195  1.6227
10022TIP3   OH251556   1.213   2.238  14.806 -0.0326 -0.5534  0.3427
10022TIP3    H151557   1.278   2.256  14.737 -0.8705 -0.2741 -0.3935
10022TIP3    H251558   1.149   2.308  14.796 -0.3845 -0.7641  1.1419
10023TIP3   OH251559   6.798   1.396   1.494 -0.6833 -0.5284 -0.0606
10023TIP3    H151560   6.782   1.426   1.583  0.7857  0.5741 -0.1400
10023TIP3    H251561   6.783   1.301   1.498 -1.5511 -0.3638  1.1205
10024TIP3   OH251562   5.198   2.713   6.411  0.3697  0.4937 -0.1550
10024TIP3    H151563   5.279   2.688   6.367  0.7382  1.9618 -0.3785
10024TIP3    H251564   5.204   2.673   6.498 -0.4073 -2.5215 -1.3434
10025TIP3   OH251565   4.230   0.589  11.013 -0.6037 -0.0699 -0.4939
10025TIP3    H151566   4.151   0.604  10.961 -2.3931  0.8245  2.2709
10025TIP3    H251567   4.270   0.676  11.020 -1.8098  0.3867  1.6345
10026TIP3   OH251568   1.069   3.771   4.494  0.3829 -0.0737 -0.3851
10026TIP3    H151569   1.019   3.847   4.467  0.9365  0.3613 -0.1976
10026TIP3    H251570   1.049   3.704   4.427  0.4163  0.4468 -0.9221
10027TIP3   OH251571   6.433   2.421   5.008 -0.1161  0.3255 -0.0968
10027TIP3    H151572   6.448   2.415   4.913  0.9198 -0.2238  0.0805
10027TIP3    H251573   6.501   2.481   5.039 -0.9094  1.0731  0.2129
10028TIP3   OH251574   2.352   2.782   1.238 -0.2156 -0.0913 -0.1846
10028TIP3    H151575   2.343   2.874   1.262  0.5921  0.5832 -2.2874
10028TIP3    H251576   2.441   2.759   1.264 -0.5750 -0.4444  0.7772
10029TIP3   OH251577   3.805   5.796   4.447 -0.3776  0.1740 -0.7033
10029TIP3    H151578   3.749   5.720   4.461 -0.0757  0.4617  2.7573
10029TIP3    H251579   3.749   5.859   4.403 -1.5246 -0.9540 -0.9138
10030TIP3   OH251580   1.961   4.520  16.693 -0.2297  0.0808  0.1171
10030TIP3    H151581   1.979   4.609  16.722 -1.2066  0.2796  0.1305
10030TIP3    H251582   1.965   4.467  16.773  2.5194 -0.2839 -0.1611
10031TIP3   OH251583   6.262   3.979  13.453  0.3463 -0.2944  0.3500
10031TIP3    H151584   6.315   4.042  13.502  0.9745 -1.3981  1.1383
10031TIP3    H251585   6.304   3.974  13.368  2.2622 -1.9771  1.3190
10032TIP3   OH251586   3.920   5.732   3.279 -0.3073 -0.0710  0.2876
10032TIP3    H151587   4.015   5.747   3.281 -0.1035 -1.1350  2.8268
10032TIP3    H251588   3.906   5.682   3.199  1.4506 -0.6538  0.2925
10033TIP3   OH251589   5.930   3.890   6.346 -0.0297  0.1004 -0.2136
10033TIP3    H151590   5.837   3.914   6.353 -0.4505 -1.0465 -1.5262
10033TIP3    H251591   5.931   3.814   6.288  1.7152 -0.1054  0.0436
10034TIP3   OH251592   3.057   2.465  14.206 -0.2385  0.2662  0.5131
10034TIP3    H151593   3.116   2.467  14.132 -0.5865  0.9720  0.2498
10034TIP3    H251594   3.113   2.448  14.282  0.4486  1.8965  0.3976
10035TIP3   OH251595   3.781   3.247   0.617 -0.4179 -0.5471 -0.3358
10035TIP3    H151596   3.740   3.307   0.679  1.3036  0.0755  0.2633
10035TIP3    H251597   3.808   3.302   0.544 -0.5196 -0.9129 -0.6538
10036TIP3   OH251598   5.383   5.094  10.156  0.1936  0.5211 -0.1866
10036TIP3    H151599   5.426   5.024  10.205  0.3737  0.6993 -0.0900
10036TIP3    H251600   5.454   5.136  10.107 -0.3176 -1.3510 -2.7335
10037TIP3   OH251601   4.829   1.389   5.658 -0.2986  0.0789  0.1309
10037TIP3    H151602   4.903   1.363   5.713 -0.4306  1.5599  1.0501
10037TIP3    H251603   4.867   1.400   5.571  0.1219 -1.2633  0.1240
10038TIP3   OH251604   4.608   4.118   1.945  0.2546  0.6275 -0.0163
10038TIP3    H151605   4.612   4.174   2.022 -1.0570  0.4351  0.2070
10038TIP3    H251606   4.668   4.046   1.964 -1.0712 -0.1509  1.4371
10039TIP3   OH251607   1.167   6.817  14.746 -0.0483 -0.7263 -0.2881
10039TIP3    H151608   1.090   6.806  14.803 -1.7924 -0.1966 -2.3995
10039TIP3    H251609   1.163   6.908  14.717  2.1132 -0.3378  0.4439
10040TIP3   OH251610   1.673   1.908   1.505  0.4233  0.0407  0.7294
10040TIP3    H151611   1.697   1.998   1.483  0.3582  0.4608  2.2471
10040TIP3    H251612   1.601   1.917   1.567  0.4201 -1.0588  0.9008
10041TIP3   OH251613   4.760   2.067   1.955  0.7043  0.3316 -0.1510
10041TIP3    H151614   4.833   2.102   2.007  0.0692  2.0751 -0.3617
10041TIP3    H251615   4.706   2.019   2.018 -0.3647  2.8978  1.0393
10042TIP3   OH251616   5.134   0.835  13.289 -0.0963 -0.0517 -0.6867
10042TIP3    H151617   5.115   0.754  13.337  1.6061  0.3609  0.8108
10042TIP3    H251618   5.103   0.905  13.347 -0.1976  0.4081 -1.2920
10043TIP3   OH251619   2.882   3.382   2.056  0.4164 -0.1556  0.0975
10043TIP3    H151620   2.892   3.293   2.091  0.6824  0.2575  1.1134
10043TIP3    H251621   2.939   3.435   2.112  0.7365  0.5642 -0.8849
10044TIP3   OH251622   3.803   1.333  14.529  0.0315 -0.1250 -0.1580
10044TIP3    H151623   3.848   1.397  14.584 -1.7396  1.1943 -0.1755
10044TIP3    H251624   3.864   1.316  14.457  2.7882 -2.4906  2.4262
10045TIP3   OH251625   0.532   6.413  15.044  0.1251  0.1589 -0.6101
10045TIP3    H151626   0.543   6.439  14.952  1.3329 -0.1261 -0.5514
10045TIP3    H251627   0.489   6.327  15.039 -0.2230  0.3466 -0.8951
10046TIP3   OH251628   6.120   2.542   1.291  0.0356 -0.1621 -0.6127
10046TIP3    H151629   6.186   2.480   1.262  1.3027  0.9394 -0.1976
10046TIP3    H251630   6.069   2.562   1.212 -0.6964 -2.0439 -0.6475
10047TIP3   OH251631   3.050   2.238  16.780 -0.1385  0.1937 -0.2051
10047TIP3    H151632   2.987   2.299  16.820  0.7709  1.1372 -0.1583
10047TIP3    H251633   3.014   2.151  16.799 -1.5725  0.7002 -0.4275
10048TIP3   OH251634   0.215   4.517   4.594 -0.6726 -0.0573  0.7215
10048TIP3    H151635   0.141   4.457   4.602  0.3833 -1.3991  0.7790
10048TIP3    H251636   0.222   4.535   4.500 -2.1130  1.4926  0.8594
10049TIP3   OH251637   6.356   2.038  14.570  0.5340  0.2540 -0.0753
10049TIP3    H151638   6.419   2.067  14.637  0.0364  0.0840  0.4736
10049TIP3    H251639   6.390   1.954  14.541  1.3536  0.8247 -0.8404
10050TIP3   OH251640   3.025   2.505  12.153 -1.2255  0.1575 -0.9842
10050TIP3    H151641   2.981   2.423  12.133 -2.2375  0.6490 -0.8731
10050TIP3    H251642   3.036   2.504  12.248 -1.8899  0.4519 -0.8974
10051TIP3   OH251643   0.280   4.674   0.255  0.6627 -0.3067 -0.1837
10051TIP3    H151644   0.225   4.694   0.331 -0.3924  0.7506 -1.1722
10051TIP3    H251645   0.264   4.582   0.237 -1.2884  0.1091 -0.7927
10052TIP3   OH251646   6.766   0.650  11.827 -0.2348  0.0468  0.2461
10052TIP3    H151647   6.701   0.640  11.758  1.0673 -2.6176 -0.7580
10052TIP3    H251648   6.836   0.703  11.787 -0.5419  0.5495  0.3696
10053TIP3   OH251649   3.251   1.318   1.197  0.0275 -0.7031 -0.0133
10053TIP3    H151650   3.293   1.391   1.151 -2.0054  0.4718 -0.1357
10053TIP3    H251651   3.241   1.349   1.287  0.6757 -1.5290  0.3501
10054TIP3   OH251652   2.455   5.588  11.135 -0.3692 -0.3732 -0.2758
10054TIP3    H151653   2.517   5.586  11.062 -0.5374 -1.2721 -0.4010
10054TIP3    H251654   2.510   5.598  11.213 -0.2233  1.2086 -0.5423
10055TIP3   OH251655   1.181   1.766  15.324  0.0984 -0.4854 -0.0431
10055TIP3    H151656   1.273   1.791  15.314  0.0418  0.7390  2.0376
10055TIP3    H251657   1.181   1.702  15.394 -0.6876 -0.1233  0.2973
10056TIP3   OH251658   2.840   1.564   2.599  0.2681 -0.3853  0.5840
10056TIP3    H151659   2.878   1.566   2.511 -0.4492  1.3118  0.2747
10056TIP3    H251660   2.760   1.511   2.588 -0.2759  0.5249 -0.0113
10057TIP3   OH251661   1.267   4.790  11.213 -0.3205 -0.4697 -0.1854
10057TIP3    H151662   1.235   4.764  11.126  1.1483 -1.9637 -0.3485
10057TIP3    H251663   1.261   4.710  11.265 -0.5479  0.2418  0.9157
10058TIP3   OH251664   2.479   4.923  14.359 -0.5575  0.1051 -0.1702
10058TIP3    H151665   2.471   4.926  14.454  0.2047 -0.4578 -0.0783
10058TIP3    H251666   2.393   4.952  14.327 -0.2927  1.9801  0.6561
10059TIP3   OH251667   6.488   5.698  17.200  0.1285  0.1281  0.0879
10059TIP3    H151668   6.439   5.690  17.281 -1.2945 -2.1670 -0.9037
10059TIP3    H251669   6.430   5.746  17.141 -0.4957 -1.5347 -0.7081
10060TIP3   OH251670   4.391   3.892  13.534 -0.2929  0.3960  0.0499
10060TIP3    H151671   4.385   3.827  13.464  0.6188  0.1267  0.2059
10060TIP3    H251672   4.463   3.949  13.508 -0.4204  0.7302  0.4175
10061TIP3   OH251673   2.423   2.237   3.582 -0.3968  0.6938 -0.2947
10061TIP3    H151674   2.392   2.302   3.645 -1.9651 -0.3064  0.0148
10061TIP3    H251675   2.360   2.166   3.588  0.9953 -0.6529 -0.9860
10062TIP3   OH251676   0.290   6.074  13.313 -0.3666  0.3722  0.0395
10062TIP3    H151677   0.314   5.983  13.332 -0.5185  0.7733  2.4880
10062TIP3    H251678   0.373   6.122  13.317 -0.5304  0.6095  0.6548
10063TIP3   OH251679   4.307   6.656  15.377  0.2054 -0.2728  0.2966
10063TIP3    H151680   4.297   6.724  15.311 -0.5066 -0.0329  0.6443
10063TIP3    H251681   4.235   6.595  15.359  1.1681 -1.2433 -0.3686
10064TIP3   OH251682   5.877   0.406   7.132  0.1316 -0.0953 -0.7558
10064TIP3    H151683   5.812   0.405   7.062  0.6726  1.4802 -1.3447
10064TIP3    H251684   5.954   0.363   7.094 -0.1878 -0.9522 -0.4495
10065TIP3   OH251685   5.164   4.511   0.409  0.2482 -0.0118  0.4451
10065TIP3    H151686   5.074   4.479   0.409  1.3460 -3.5012  0.3989
10065TIP3    H251687   5.182   4.536   0.318  0.6015 -3.7385 -0.6542
10066TIP3   OH251688   6.198   3.800  14.912 -0.1619 -0.2106 -0.2045
10066TIP3    H151689   6.291   3.780  14.897 -0.1275  0.0864 -0.4058
10066TIP3    H251690   6.200   3.880  14.965 -0.3076  0.1492 -0.7389
10067TIP3   OH251691   0.782   3.653  16.492  0.2645  0.2943  0.4018
10067TIP3    H151692   0.726   3.590  16.446 -1.7782  1.1452  1.5652
10067TIP3    H251693   0.781   3.731  16.437  1.6077 -0.1760 -0.3269
10068TIP3   OH251694   6.212   6.739  13.386 -0.1071 -0.5596  0.4451
10068TIP3    H151695   6.176   6.700  13.466  1.2167 -0.2267  1.2422
10068TIP3    H251696   6.298   6.771  13.412  0.8215 -1.3948 -1.3934
10069TIP3   OH251697   3.215   4.962  10.894 -0.5018 -0.0129 -0.0281
10069TIP3    H151698   3.294   5.012  10.915 -1.9486  1.3027  2.9759
10069TIP3    H251699   3.163   5.021  10.840 -0.6720  0.3005  0.4754
10070TIP3   OH251700   1.551   1.795   4.490  0.0459  0.0464  0.4163
10070TIP3    H151701   1.526   1.722   4.546  0.0694  0.7298  1.3603
10070TIP3    H251702   1.630   1.831   4.531  0.7857 -0.1822 -0.7649
10071TIP3   OH251703   3.247   5.044  13.260  0.1333  0.3493  0.1186
10071TIP3    H151704   3.304   5.121  13.259  0.1412  0.3713  1.1033
10071TIP3    H251705   3.290   4.984  13.320  0.7175 -0.9023 -1.4851
10072TIP3   OH251706   6.704   0.730  13.226  0.1110  0.2241 -0.3289
10072TIP3    H151707   6.610   0.728  13.207  0.1239 -1.1521 -0.2891
10072TIP3    H251708   6.745   0.682  13.154  0.5877 -0.9139  0.6766
10073TIP3   OH251709   6.184   4.846   1.421  0.0497 -0.1098  0.0990
10073TIP3    H151710   6.116   4.893   1.470  2.5858  1.3118  2.5345
10073TIP3    H251711   6.151   4.757   1.414 -2.5568  0.7801  0.1239
10074TIP3   OH251712   3.918   1.803   4.903  0.4121 -0.3167 -0.9504
10074TIP3    H151713   3.825   1.795   4.925  0.7467 -1.5882  0.0990
10074TIP3    H251714   3.931   1.897   4.890 -0.8407 -0.0352 -0.3169
10075TIP3   OH251715   4.308   1.765  15.210 -0.0130  0.6512 -0.2765
10075TIP3    H151716   4.237   1.705  15.188 -1.7638  2.6071 -0.3070
10075TIP3    H251717   4.304   1.772  15.306  1.8374 -1.1147 -0.0036
10076TIP3   OH251718   6.470   0.913   3.672  0.1235  0.3360  0.4195
10076TIP3    H151719   6.560   0.880   3.672 -0.4138 -1.2146  0.8630
10076TIP3    H251720   6.447   0.919   3.580  0.8096  1.1797  0.2848
10077TIP3   OH251721   0.232   5.501   6.169 -0.1372 -0.0598  0.8768
10077TIP3    H151722   0.291   5.487   6.243  0.0762 -1.5955  0.4506
10077TIP3    H251723   0.274   5.569   6.117  1.1163 -0.8711  0.7740
10078TIP3   OH251724   3.628   1.533   0.572  0.0105  0.4027 -0.0064
10078TIP3    H151725   3.698   1.519   0.635  1.7946 -0.4385 -2.0831
10078TIP3    H251726   3.671   1.570   0.495 -1.7896 -0.3125 -1.4304
10079TIP3   OH251727   3.612   4.241  17.133  0.1141  0.7178  0.5558
10079TIP3    H151728   3.571   4.166  17.177 -1.5441  0.9855 -0.4309
10079TIP3    H251729   3.548   4.311  17.142 -0.0425  0.9558 -1.6970
10080TIP3   OH251730   5.957   4.122   0.765 -0.4046 -0.2673 -0.1218
10080TIP3    H151731   5.865   4.132   0.741 -0.2611 -0.9554 -0.9892
10080TIP3    H251732   5.955   4.094   0.857 -0.9749  1.8863  0.5889
10081TIP3   OH251733   3.466   0.733  11.386  0.3504 -0.1266  0.8069
10081TIP3    H151734   3.449   0.827  11.392 -3.3766 -0.3299 -2.5888
10081TIP3    H251735   3.465   0.703  11.478 -2.0846  2.6814  1.8728
10082TIP3   OH251736   4.840   2.966  15.655  0.1511 -0.5944 -0.2732
10082TIP3    H151737   4.841   2.880  15.697  2.0218 -1.1299 -1.2905
10082TIP3    H251738   4.747   2.990  15.651 -0.2747 -1.6588  1.7644
10083TIP3   OH251739   3.379   1.605  17.225 -0.8559  0.2561  0.5250
10083TIP3    H151740   3.289   1.629  17.247 -1.2362  0.6446 -1.2937
10083TIP3    H251741   3.376   1.511  17.209 -1.1861  0.4332 -0.5349
10084TIP3   OH251742   5.250   2.083   1.474  0.2080 -0.3252 -0.1535
10084TIP3    H151743   5.297   2.126   1.545 -1.8599  0.5087  0.8026
10084TIP3    H251744   5.265   1.990   1.488  0.5735 -0.1264  0.8537
10085TIP3   OH251745   2.682   4.295  12.049  0.4457  0.8561 -0.6715
10085TIP3    H151746   2.593   4.295  12.014 -1.3541 -0.4996  3.2632
10085TIP3    H251747   2.708   4.203  12.048  0.7738  0.9224  0.4048
10086TIP3   OH251748   4.384   1.342  11.406 -0.6449  0.0856  0.9049
10086TIP3    H151749   4.340   1.411  11.357 -0.4450  0.8481  1.7830
10086TIP3    H251750   4.333   1.263  11.386 -0.5232  0.3460 -0.5742
10087TIP3   OH251751   5.053   2.257   0.544  0.0551  0.1450  0.1109
10087TIP3    H151752   5.008   2.271   0.461  0.5315  0.2632 -0.1327
10087TIP3    H251753   5.005   2.185   0.585 -0.6072  0.5409  0.0483
10088TIP3   OH251754   1.182   1.665  11.747 -0.3799  0.8042  0.1141
10088TIP3    H151755   1.254   1.656  11.810 -0.6985 -0.5776  0.3238
10088TIP3    H251756   1.209   1.736  11.689 -0.1213  2.1997  1.8561
10089TIP3   OH251757   5.497   6.392  10.823 -0.0563 -0.4759  0.4170
10089TIP3    H151758   5.535   6.376  10.910  0.2275  0.4465  0.4768
10089TIP3    H251759   5.492   6.487  10.817 -1.8142 -0.5480  0.1588
10090TIP3   OH251760   3.888   2.865  14.759  0.2817 -0.1020 -0.3528
10090TIP3    H151761   3.863   2.804  14.829  1.2753  0.5449  0.5965
10090TIP3    H251762   3.831   2.842  14.686 -0.1642 -1.3993  0.3669
10091TIP3   OH251763   1.966   6.535   1.002 -0.0093 -0.1143 -0.2679
10091TIP3    H151764   1.878   6.502   0.985 -0.1168 -0.1613  0.3471
10091TIP3    H251765   2.024   6.462   0.981 -0.2205 -0.5870  0.7206
10092TIP3   OH251766   4.003   5.329   1.830  0.0914 -0.8583 -0.2354
10092TIP3    H151767   3.922   5.319   1.879 -0.1833  2.2637  0.1873
10092TIP3    H251768   4.042   5.242   1.830 -1.8298 -1.8529  2.0957
10093TIP3   OH251769   2.214   2.430   3.389  0.1450  0.4301  0.4908
10093TIP3    H151770   2.174   2.365   3.448 -2.0684  1.2686  0.0351
10093TIP3    H251771   2.141   2.486   3.363  1.4811  1.4527 -1.2859
10094TIP3   OH251772   2.023   5.501  17.201  0.0981  0.2949  1.0935
10094TIP3    H151773   2.068   5.585  17.191 -0.3180  0.3984 -0.1090
10094TIP3    H251774   2.082   5.448  17.254  1.9644  0.1898 -0.9458
10095TIP3   OH251775   5.413   2.289  12.222 -0.3983 -0.1997 -0.0052
10095TIP3    H151776   5.473   2.345  12.271 -0.8845 -1.0792  1.6550
10095TIP3    H251777   5.354   2.350  12.177  0.3877  0.6285  0.0675
10096TIP3   OH251778   4.749   0.053  14.156 -0.4931  0.6061 -0.3337
10096TIP3    H151779   4.763   0.052  14.061  2.5706  1.5673 -0.0145
10096TIP3    H251780   4.681   0.119  14.169  0.0078  1.4607 -1.7799
10097TIP3   OH251781   4.698   1.923   1.698 -0.6040 -0.3886  0.3304
10097TIP3    H151782   4.617   1.877   1.719  0.1592 -0.4140  3.9016
10097TIP3    H251783   4.699   1.999   1.757  0.9778  0.8637 -1.1791
10098TIP3   OH251784   2.117   6.317  16.400  0.0503  1.1244 -0.6307
10098TIP3    H151785   2.126   6.307  16.495 -1.0912  0.3355 -0.5909
10098TIP3    H251786   2.023   6.332  16.387  0.0451  0.2359 -1.7134
10099TIP3   OH251787   5.883   3.960  16.055  0.2057  0.5005 -0.1817
10099TIP3    H151788   5.962   3.914  16.028 -0.3901 -0.4106 -0.4549
10099TIP3    H251789   5.832   3.971  15.975 -0.3174  0.3000  0.1108
10100TIP3   OH251790   1.267   3.849   6.368  0.4345  1.0431 -0.1265
10100TIP3    H151791   1.337   3.827   6.307  0.0931  2.0291 -0.9050
10100TIP3    H251792   1.309   3.897   6.438  1.2521 -2.1392  1.7685
10101TIP3   OH251793   0.702   1.996   4.068 -0.4846  0.2331 -0.1099
10101TIP3    H151794   0.670   2.024   3.982 -0.7210  0.6839  0.1173
10101TIP3    H251795   0.766   2.063   4.092 -3.1678  2.3679  1.7502
10102TIP3   OH251796   3.896   5.175  11.428  0.2050  0.5524  0.0200
10102TIP3    H151797   3.868   5.251  11.377 -1.2368  1.9219  2.6046
10102TIP3    H251798   3.982   5.152  11.393 -0.5959  1.4570 -2.8069
10103TIP3   OH251799   0.502   5.496   2.437  0.7032  0.8688 -0.0293
10103TIP3    H151800   0.414   5.478   2.406  1.1241  0.6572 -1.1543
10103TIP3    H251801   0.508   5.592   2.440  0.4431  0.8828  0.0670
10104TIP3   OH251802   3.035   2.398   1.887 -0.3271 -0.2879  0.4539
10104TIP3    H151803   2.982   2.350   1.823 -0.1021 -0.6949  0.5673
10104TIP3    H251804   3.118   2.351   1.889 -0.1353  0.0619  0.6303
10105TIP3   OH251805   4.482   6.398  11.375  0.0906  0.2858 -0.8043
10105TIP3    H151806   4.465   6.479  11.423 -2.4290  0.0649 -1.2330
10105TIP3    H251807   4.449   6.414  11.287  2.9673  0.0286 -2.0430
10106TIP3   OH251808   6.127   3.181  15.985 -0.1901  0.3156  0.1816
10106TIP3    H151809   6.122   3.158  16.078  1.0326  1.7563  0.6478
10106TIP3    H251810   6.159   3.101  15.943 -0.3367 -0.2217  1.0656
10107TIP3   OH251811   3.495   3.435  16.161  0.1653 -0.0242  0.6967
10107TIP3    H151812   3.458   3.522  16.145 -0.4856 -0.0796  1.7431
10107TIP3    H251813   3.542   3.444  16.244 -2.5085 -1.3539  2.5047
10108TIP3   OH251814   1.064   2.749   3.766 -0.4651 -0.4991  0.4168
10108TIP3    H151815   1.109   2.825   3.729 -1.2104 -1.0601 -1.7616
10108TIP3    H251816   1.095   2.746   3.857  1.6980  0.7723 -0.1863
10109TIP3   OH251817   6.738   0.120   3.252  0.2129 -0.2608 -0.2739
10109TIP3    H151818   6.832   0.127   3.271 -0.0213 -1.2655  1.5176
10109TIP3    H251819   6.725   0.027   3.233 -0.3364 -0.0214 -1.1178
10110TIP3   OH251820   1.898   2.890   2.681  0.5235 -0.2037 -0.1836
10110TIP3    H151821   1.960   2.940   2.734  0.4060 -0.6105  0.3517
10110TIP3    H251822   1.902   2.801   2.717 -1.4871  0.0750  0.8793
10111TIP3   OH251823   0.462   5.941  11.471 -0.1137 -0.0315 -0.0715
10111TIP3    H151824   0.493   5.973  11.555 -1.3973 -0.0301  0.4188
10111TIP3    H251825   0.460   6.019  11.415  0.5047  0.0118 -0.0368
10112TIP3   OH251826   1.696   0.568  16.190 -0.0394  0.0143 -0.5452
10112TIP3    H151827   1.736   0.655  16.193  1.4135 -0.6248  1.7465
10112TIP3    H251828   1.606   0.582  16.217  0.3375  0.7838  0.3797
10113TIP3   OH251829   4.235   5.615   1.016  0.1624 -0.1251  0.6176
10113TIP3    H151830   4.212   5.700   1.055 -0.7272  0.3959 -0.9409
10113TIP3    H251831   4.284   5.570   1.084 -1.2328  0.7650  2.3009
10114TIP3   OH251832   1.968   4.162  15.659 -0.5936  0.3809 -0.3615
10114TIP3    H151833   1.950   4.169  15.566  0.3304  0.7125 -0.5190
10114TIP3    H251834   1.884   4.133  15.697 -0.4758 -1.6581 -1.5103
10115TIP3   OH251835   1.280   0.403  13.136  0.3022  0.3665 -0.2490
10115TIP3    H151836   1.212   0.385  13.200  0.9125 -1.1814 -0.0010
10115TIP3    H251837   1.361   0.409  13.187  0.5934  0.5593 -0.7209
10116TIP3   OH251838   6.531   2.695  17.222  0.1743  0.0856  0.2450
10116TIP3    H151839   6.456   2.733  17.267  1.3034  2.2123  0.4299
10116TIP3    H251840   6.554   2.618  17.274 -0.2720  0.8850  1.6610
10117TIP3   OH251841   2.865   3.711  16.032 -0.1968 -0.2122 -0.3922
10117TIP3    H151842   2.849   3.627  16.074  0.0412 -0.1015 -0.0763
10117TIP3    H251843   2.923   3.758  16.092 -0.2679  0.1497 -0.5987
10118TIP3   OH251844   3.117   3.317   4.856 -0.7105  0.0046 -0.4582
10118TIP3    H151845   3.196   3.344   4.903 -0.2604 -1.8371 -0.0807
10118TIP3    H251846   3.051   3.308   4.924 -0.1218 -2.4262 -0.1132
10119TIP3   OH251847   1.118   3.956   1.954 -0.0628 -0.1546  0.3682
10119TIP3    H151848   1.098   4.032   1.899  0.0750  0.2455  0.8526
10119TIP3    H251849   1.134   3.885   1.893 -0.8946  0.0299 -0.0835
10120TIP3   OH251850   4.027   4.635  14.617 -0.2057  0.2200  0.2390
10120TIP3    H151851   4.028   4.650  14.711 -0.3170 -0.6704  0.3892
10120TIP3    H251852   4.016   4.722  14.579  0.2268  0.6320  1.0335
10121TIP3   OH251853   2.938   2.238   0.166  0.4629 -0.5858  0.3712
10121TIP3    H151854   2.843   2.240   0.176  0.4669 -0.9661  0.5006
10121TIP3    H251855   2.969   2.191   0.243  0.6893 -1.2652 -0.1275
10122TIP3   OH251856   0.141   0.076  11.634  0.8627 -0.4915 -0.0858
10122TIP3    H151857   0.118  -0.005  11.678 -0.5953  0.8038  1.6781
10122TIP3    H251858   0.206   0.117  11.691  0.0165  0.5392  0.1751
10123TIP3   OH251859   6.403   4.068  12.713  1.0691  0.4178  0.7870
10123TIP3    H151860   6.335   4.096  12.652  1.0857  1.3840  1.1997
10123TIP3    H251861   6.475   4.131  12.700  1.8094 -0.4558  0.5114
10124TIP3   OH251862   4.536   5.604  13.832  0.4291 -0.0769  0.5136
10124TIP3    H151863   4.580   5.615  13.748 -1.5969  0.4882 -0.5338
10124TIP3    H251864   4.547   5.512  13.853 -1.5818 -0.9818 -1.9381
10125TIP3   OH251865   3.810   0.221   5.787  0.5389  0.1843 -0.4925
10125TIP3    H151866   3.755   0.144   5.777  2.2421 -0.9579 -1.7161
10125TIP3    H251867   3.768   0.288   5.734  0.4810 -0.7753 -1.7197
10126TIP3   OH251868   1.717   5.302  14.987 -0.0836 -0.0795 -0.1608
10126TIP3    H151869   1.760   5.363  15.047 -0.2372 -1.1788  1.1074
10126TIP3    H251870   1.732   5.340  14.900  1.2325  0.8958  0.4516
10127TIP3   OH251871   3.958   4.962  14.189  0.0749  0.3545  0.2170
10127TIP3    H151872   4.040   5.011  14.190  0.1891  0.1791  1.3317
10127TIP3    H251873   3.895   5.020  14.145  0.8537  0.3624 -0.9341
10128TIP3   OH251874   4.093   6.306  15.564  0.2650  0.5340  0.1018
10128TIP3    H151875   4.118   6.216  15.545  1.5954  1.2394 -1.8154
10128TIP3    H251876   4.144   6.330  15.641 -1.7550 -0.9708  2.0300
10129TIP3   OH251877   6.524   3.979   5.034  0.0243  0.6717 -0.1528
10129TIP3    H151878   6.573   3.899   5.015  1.8997  1.5150  0.8276
10129TIP3    H251879   6.487   3.965   5.121 -0.6124  0.4428 -0.4558
10130TIP3   OH251880   6.096   2.798  16.379  0.1564  0.1142  0.2812
10130TIP3    H151881   6.148   2.721  16.357 -0.7676 -0.7769  1.0870
10130TIP3    H251882   6.011   2.763  16.405 -0.0347  1.3305  1.4500
10131TIP3   OH251883   4.576   2.712  12.040  0.1384  0.0376  0.3052
10131TIP3    H151884   4.613   2.628  12.066 -0.6628 -0.2203  0.6382
10131TIP3    H251885   4.489   2.714  12.080  0.3850  1.2969  0.8399
10132TIP3   OH251886   5.273   1.085   5.058 -0.0679 -0.7652  0.3420
10132TIP3    H151887   5.209   1.015   5.069 -2.6297  1.5612  1.4691
10132TIP3    H251888   5.251   1.124   4.973  0.2096 -0.2918  0.4831
10133TIP3   OH251889   5.021   2.589  14.599  0.4202 -0.0498  0.0938
10133TIP3    H151890   4.933   2.597  14.564  0.6317  0.4943 -0.3209
10133TIP3    H251891   5.068   2.664  14.564  0.8938 -0.0201  0.7712
10134TIP3   OH251892   2.508   4.226  10.447  0.5578 -0.4361 -0.2484
10134TIP3    H151893   2.584   4.280  10.428  1.7035 -1.4570  1.2366
10134TIP3    H251894   2.433   4.280  10.420  1.7586  0.6812 -1.5178
10135TIP3   OH251895   6.194   3.372  16.319  0.1305 -0.4377 -0.1550
10135TIP3    H151896   6.146   3.307  16.372  1.1616 -0.8099  0.3511
10135TIP3    H251897   6.174   3.348  16.229  0.1311 -1.1828  0.0315
10136TIP3   OH251898   2.046   0.328   4.837 -0.4085 -0.3324 -0.8124
10136TIP3    H151899   2.117   0.265   4.841 -0.8511 -0.9142 -1.6860
10136TIP3    H251900   2.089   0.413   4.827  0.2006 -0.4341  0.7540
10137TIP3   OH251901   0.734   6.290  14.084 -0.3812 -0.2971 -0.1597
10137TIP3    H151902   0.715   6.240  14.163  0.8546  0.3658  0.5766
10137TIP3    H251903   0.816   6.336  14.103 -0.6555  0.7673 -1.3950
10138TIP3   OH251904   1.892   4.160   2.866 -0.3379 -0.0527 -0.4221
10138TIP3    H151905   1.842   4.103   2.808  1.0940  1.8550 -3.8173
10138TIP3    H251906   1.956   4.103   2.907 -0.8333 -1.3890 -1.4428
10139TIP3   OH251907   1.786   1.815   5.885 -0.1077  0.2290 -0.5443
10139TIP3    H151908   1.871   1.809   5.929  0.2335  0.1410 -1.1959
10139TIP3    H251909   1.744   1.891   5.926 -0.5514 -0.8935  1.1709
10140TIP3   OH251910   0.376   0.193  11.009 -0.1533  0.2265  0.0471
10140TIP3    H151911   0.407   0.164  10.923 -0.4346 -0.2354  0.0985
10140TIP3    H251912   0.328   0.275  10.992  0.3456  0.4806 -0.1453
10141TIP3   OH251913   2.151   3.789  11.004 -0.8884 -0.0764  0.3409
10141TIP3    H151914   2.102   3.834  10.935  1.6725  0.9172 -0.9491
10141TIP3    H251915   2.230   3.756  10.961  1.0648  0.9959  2.8287
10142TIP3   OH251916   4.761   5.170   5.386  0.4122  0.8984 -0.7562
10142TIP3    H151917   4.802   5.231   5.447  0.5807  1.0020 -0.9705
10142TIP3    H251918   4.667   5.179   5.402  0.3470  2.1671 -1.6661
10143TIP3   OH251919   4.971   1.464   6.052  0.1082  0.5606 -0.2994
10143TIP3    H151920   4.883   1.474   6.087  0.0962  1.2061 -0.5094
10143TIP3    H251921   4.990   1.370   6.061 -0.1176  0.6158  0.8945
10144TIP3   OH251922   1.554   3.055  12.201  0.7491  0.5771 -0.4395
10144TIP3    H151923   1.594   2.979  12.157 -0.9420 -1.3514  1.1388
10144TIP3    H251924   1.614   3.076  12.272 -0.3776 -1.6737  1.3144
10145TIP3   OH251925   0.148   4.294  14.770  0.0462 -0.2003  0.0542
10145TIP3    H151926   0.139   4.378  14.725 -0.9321 -0.9878 -1.2862
10145TIP3    H251927   0.156   4.229  14.700  1.2548 -1.2073  1.0593
10146TIP3   OH251928   0.739   2.931   0.996  0.3662 -0.9507 -0.2548
10146TIP3    H151929   0.722   3.019   0.961  1.5957 -0.0572  1.2750
10146TIP3    H251930   0.834   2.925   1.003  0.2401 -1.6466  1.4511
10147TIP3   OH251931   1.416   1.350  14.996 -0.3032  0.6060 -0.2348
10147TIP3    H151932   1.482   1.331  15.062 -0.9122  0.8854  0.4723
10147TIP3    H251933   1.397   1.444  15.006  1.0004  1.1318 -2.1265
10148TIP3   OH251934   0.953   0.200  10.933 -0.2333 -0.6768 -0.1164
10148TIP3    H151935   1.015   0.167  10.868  1.4226  1.3420  0.3231
10148TIP3    H251936   0.905   0.268  10.886  0.0471 -0.1290  0.3805
10149TIP3   OH251937   2.928   0.684   5.898  0.4892 -0.2914  0.2707
10149TIP3    H151938   2.950   0.658   5.809  0.5309 -0.5568  0.3567
10149TIP3    H251939   2.843   0.727   5.890  0.4023 -0.4888  0.1291
10150TIP3   OH251940   6.194   1.475   1.689  0.2491 -0.0417 -0.3850
10150TIP3    H151941   6.253   1.405   1.662  2.5788  0.5404  2.5467
10150TIP3    H251942   6.233   1.555   1.653  0.7103  0.2241  0.6376
10151TIP3   OH251943   2.610   1.022   0.759  0.0424 -0.0218  0.4800
10151TIP3    H151944   2.567   1.034   0.675  0.1493 -1.6102  0.1676
10151TIP3    H251945   2.538   1.020   0.823 -0.1489 -0.1527  0.2626
10152TIP3   OH251946   5.748   3.210  11.448 -0.0432 -0.4968 -0.5639
10152TIP3    H151947   5.697   3.132  11.424 -0.5993 -0.0660 -0.8077
10152TIP3    H251948   5.682   3.278  11.462  0.5078  0.4990 -2.4039
10153TIP3   OH251949   4.492   1.850   3.331 -0.0890  0.1372  0.1160
10153TIP3    H151950   4.444   1.768   3.344 -0.0701 -0.0884 -1.1560
10153TIP3    H251951   4.428   1.910   3.293 -0.0651  0.6831  0.9159
10154TIP3   OH251952   3.470   2.992   1.918  0.3571 -0.4816  0.0403
10154TIP3    H151953   3.525   2.920   1.950  0.3411  0.1432  1.5822
10154TIP3    H251954   3.532   3.053   1.877  0.8652  0.2201  1.7674
10155TIP3   OH251955   4.398   0.274   2.742  0.1326  0.7493 -0.3171
10155TIP3    H151956   4.466   0.260   2.676 -0.4434 -0.5637 -0.6546
10155TIP3    H251957   4.329   0.320   2.695 -0.2599 -0.1484 -0.6388
10156TIP3   OH251958   3.242   1.658   6.154 -0.1056 -0.1107 -0.0151
10156TIP3    H151959   3.148   1.636   6.155 -0.0201 -0.4766  0.8422
10156TIP3    H251960   3.286   1.578   6.183  0.4296  0.2491  0.1795
10157TIP3   OH251961   3.032   6.056  13.354 -0.3835  0.1067 -0.4814
10157TIP3    H151962   2.988   6.006  13.286  0.5168 -0.8968 -0.3586
10157TIP3    H251963   2.975   6.048  13.430 -1.0130  0.5858 -0.8915
10158TIP3   OH251964   0.721   5.954   2.747  0.3090  0.7517 -0.1860
10158TIP3    H151965   0.749   6.044   2.730  1.1141  0.9713  2.0624
10158TIP3    H251966   0.798   5.912   2.786 -0.4565 -0.5691 -0.0393
10159TIP3   OH251967   0.442   3.032   2.812 -0.3168  0.0456 -0.3614
10159TIP3    H151968   0.464   3.069   2.898  0.6278 -1.1411 -0.0628
10159TIP3    H251969   0.398   3.104   2.766 -0.8644  0.7080  1.1071
10160TIP3   OH251970   2.946   2.026   5.671 -0.1184 -0.4396  0.5036
10160TIP3    H151971   2.862   1.981   5.674 -0.8706  0.8925  0.5211
10160TIP3    H251972   2.948   2.079   5.750  0.1746  0.4774 -0.0956
10161TIP3   OH251973   2.735   3.988  15.348  0.4163 -0.5796 -0.1418
10161TIP3    H151974   2.690   4.070  15.328  0.7592 -0.1836  0.6534
10161TIP3    H251975   2.826   4.014  15.363  0.5189 -1.1018  0.1551
10162TIP3   OH251976   6.379   3.735  11.251  0.2438  0.2818  1.0080
10162TIP3    H151977   6.361   3.698  11.337  2.6548 -0.2096  1.3745
10162TIP3    H251978   6.360   3.829  11.262  0.1447  0.1685  1.9452
10163TIP3   OH251979   5.654   4.471   2.190  0.4011  0.1325  0.0921
10163TIP3    H151980   5.651   4.558   2.151 -0.3719  0.0014 -0.1600
10163TIP3    H251981   5.695   4.484   2.275  0.4784  0.7072 -0.0271
10164TIP3   OH251982   3.367   3.125   6.284  0.4097  0.3935 -0.0563
10164TIP3    H151983   3.424   3.201   6.296  1.6209  0.1503 -3.3456
10164TIP3    H251984   3.292   3.158   6.234  0.4877 -0.3875 -0.7077
10165TIP3   OH251985   4.906   5.236  10.935  0.6732  0.0146  0.3897
10165TIP3    H151986   4.852   5.164  10.968  0.9222 -0.2766  0.1701
10165TIP3    H251987   4.977   5.244  10.999  2.1239 -1.6829 -0.8936
10166TIP3   OH251988   3.116   2.144  14.734 -0.3758 -0.4247  0.2943
10166TIP3    H151989   3.206   2.170  14.753  0.1466 -1.4738 -0.6404
10166TIP3    H251990   3.098   2.071  14.793 -0.9590  0.3750  1.1355
10167TIP3   OH251991   6.344   3.550  11.025 -0.5442 -0.5901  0.2672
10167TIP3    H151992   6.268   3.493  11.024 -0.9565 -0.0488 -0.5991
10167TIP3    H251993   6.342   3.591  11.111 -2.3951  0.8997 -0.4009
10168TIP3   OH251994   3.539   1.651   0.912 -0.4409 -0.6842  0.3401
10168TIP3    H151995   3.572   1.562   0.923 -0.6393 -0.6907  0.9515
10168TIP3    H251996   3.555   1.672   0.820 -0.5961 -1.4334  0.1346
10169TIP3   OH251997   0.546   2.761  12.175 -0.0931 -0.4200 -0.1716
10169TIP3    H151998   0.454   2.774  12.152 -0.3378 -0.0245  0.9569
10169TIP3    H251999   0.561   2.668  12.163 -0.8050 -0.5856  0.1627
10170TIP3   OH252000   1.276   0.857  11.346 -0.0801 -0.0524  0.3032
10170TIP3    H152001   1.297   0.781  11.402 -0.4864 -0.2646  0.1705
10170TIP3    H252002   1.181   0.853  11.335 -0.0438  0.1910 -0.1157
10171TIP3   OH252003   1.454   0.588  14.801  0.5703  0.4715  0.1738
10171TIP3    H152004   1.414   0.663  14.757 -0.6265 -0.4797 -0.4054
10171TIP3    H252005   1.473   0.619  14.890 -1.5028  0.9643  0.4885
10172TIP3   OH252006   1.747   4.573  15.121 -0.1637  0.7054 -0.0421
10172TIP3    H152007   1.820   4.633  15.104  0.2063  0.2124 -0.1889
10172TIP3    H252008   1.671   4.617  15.081 -0.0928  1.5608  0.7358
10173TIP3   OH252009   4.677   4.211  13.623  0.2750  0.5573 -0.2246
10173TIP3    H152010   4.607   4.206  13.688 -0.0950  0.2150 -0.6381
10173TIP3    H252011   4.693   4.120  13.599  1.3442  0.5832  0.3635
10174TIP3   OH252012   5.519   2.582   1.287  0.4332 -0.3416  0.6233
10174TIP3    H152013   5.534   2.617   1.375 -0.2355  0.8820  0.2807
10174TIP3    H252014   5.565   2.644   1.229 -0.2470 -0.3753  0.0347
10175TIP3   OH252015   3.359   6.111  15.198 -0.3627 -0.2025 -0.2057
10175TIP3    H152016   3.263   6.108  15.196 -0.3833  0.5779 -0.5312
10175TIP3    H252017   3.385   6.102  15.106 -0.2587  3.0403 -0.6157
10176TIP3   OH252018   6.055   2.746  15.332  0.4149 -0.3196  0.1351
10176TIP3    H152019   6.105   2.710  15.259 -1.1973  1.1844 -1.8226
10176TIP3    H252020   6.042   2.672  15.392  1.9246 -1.5555 -0.9888
10177TIP3   OH252021   3.248   4.469  13.915 -0.9160 -0.7725  0.1881
10177TIP3    H152022   3.178   4.403  13.920 -1.0570 -0.6613 -0.2443
10177TIP3    H252023   3.203   4.551  13.895 -0.6025 -0.8473 -0.9146
10178TIP3   OH252024   6.795   2.639   1.153 -0.5710 -0.3155  0.2244
10178TIP3    H152025   6.784   2.551   1.191  0.2405  0.5052  2.5126
10178TIP3    H252026   6.869   2.630   1.093  0.7626 -0.8473  1.8569
10179TIP3   OH252027   1.539   4.172  13.329  0.3573 -0.0340  0.0513
10179TIP3    H152028   1.546   4.202  13.238 -0.6304  1.6635  0.4966
10179TIP3    H252029   1.628   4.177  13.363  0.8407 -1.2211 -0.9498
10180TIP3   OH252030   3.240   0.216  14.330 -0.3124 -0.5597  0.1067
10180TIP3    H152031   3.279   0.137  14.293  0.8819  0.4805 -0.9689
10180TIP3    H252032   3.155   0.188  14.365 -0.6620 -1.9704 -1.7548
10181TIP3   OH252033   4.847   5.696   4.488  0.1255  0.2763 -0.2513
10181TIP3    H152034   4.841   5.694   4.583  1.4320 -1.0337 -0.1667
10181TIP3    H252035   4.901   5.621   4.465 -0.2469  0.5006 -2.0466
10182TIP3   OH252036   3.563   2.161   2.451  0.3534 -0.3933  0.2644
10182TIP3    H152037   3.630   2.229   2.462 -0.4483  0.5991 -0.7579
10182TIP3    H252038   3.612   2.079   2.447  1.3844  0.1580  1.0232
10183TIP3   OH252039   3.679   6.406   3.374 -0.1264  0.3195 -0.1193
10183TIP3    H152040   3.753   6.352   3.347  0.6173  1.5567 -0.6456
10183TIP3    H252041   3.706   6.443   3.458 -1.1116 -0.9833  0.8215
10184TIP3   OH252042   1.387   5.005   3.028 -0.2674  0.2408  0.6448
10184TIP3    H152043   1.447   4.956   3.085  0.8875 -0.0942 -0.8125
10184TIP3    H252044   1.349   5.072   3.086  2.5919  1.4144  1.3401
10185TIP3   OH252045   5.059   5.521  13.751 -0.1907  0.3761 -1.0222
10185TIP3    H152046   5.110   5.598  13.773 -1.3593  1.5290 -2.1330
10185TIP3    H252047   4.998   5.510  13.823 -0.0350  0.5007 -0.8726
10186TIP3   OH252048   5.255   2.842   4.965  0.0543 -0.2065 -0.0313
10186TIP3    H152049   5.254   2.920   5.020  0.8978  0.0237 -0.3324
10186TIP3    H252050   5.321   2.786   5.005  1.8361  0.6193 -1.6656
10187TIP3   OH252051   4.282   2.417  13.343  0.2382 -0.0199  0.0007
10187TIP3    H152052   4.299   2.456  13.257 -2.3118 -1.6475 -1.3434
10187TIP3    H252053   4.286   2.322  13.327  1.6419 -0.3927  2.1570
10188TIP3   OH252054   4.266   0.326  15.940  0.2052 -0.0293 -0.1329
10188TIP3    H152055   4.348   0.314  15.988 -0.3370 -0.7297  0.6558
10188TIP3    H252056   4.278   0.407  15.891  1.6507 -0.5211 -0.6342
10189TIP3   OH252057   6.513   6.108  12.373  0.1454  0.4550  0.0596
10189TIP3    H152058   6.478   6.043  12.434  2.2234  0.4565  1.3368
10189TIP3    H252059   6.499   6.069  12.286 -1.1610 -0.4002  0.6118
10190TIP3   OH252060   2.544   5.950   3.150 -0.1488  0.1694  0.3405
10190TIP3    H152061   2.558   6.044   3.163 -0.8171  0.3946 -0.4733
10190TIP3    H252062   2.571   5.934   3.060  1.3584 -0.7260  0.9129
10191TIP3   OH252063   2.420   6.599   2.647  0.1623 -0.1016 -0.1806
10191TIP3    H152064   2.337   6.594   2.600  0.3534 -0.1251 -0.5166
10191TIP3    H252065   2.395   6.624   2.736 -0.3810 -1.8584  0.2053
10192TIP3   OH252066   6.287   3.593  16.591  0.3114  0.5999  0.1049
10192TIP3    H152067   6.287   3.511  16.541  0.5005  0.2230  0.6965
10192TIP3    H252068   6.226   3.650  16.545 -0.8542 -0.3388  0.4125
10193TIP3   OH252069   6.382   1.074  12.691 -0.0782 -0.0834 -0.3557
10193TIP3    H152070   6.293   1.037  12.694 -0.3498  0.5789 -0.1151
10193TIP3    H252071   6.393   1.101  12.600 -0.7939  1.4303 -0.0136
10194TIP3   OH252072   5.597   3.565  12.330 -0.0127  0.4773  0.1740
10194TIP3    H152073   5.626   3.474  12.329 -0.7817  0.2249  0.5769
10194TIP3    H252074   5.576   3.585  12.239  0.5237  0.3814  0.0217
10195TIP3   OH252075   3.139   2.167  12.040  0.4716 -0.7549 -0.0400
10195TIP3    H152076   3.079   2.092  12.039 -0.5448  0.0386 -0.7543
10195TIP3    H252077   3.158   2.182  12.132 -0.9871 -0.6122  0.2599
10196TIP3   OH252078   6.481   1.113  14.648 -0.6101 -0.1010 -0.1741
10196TIP3    H152079   6.456   1.021  14.656  0.3660 -0.3335  0.3066
10196TIP3    H252080   6.569   1.110  14.611 -0.6888  0.6535 -0.4314
10197TIP3   OH252081   5.561   1.925  11.232  0.2764 -0.4813 -0.1836
10197TIP3    H152082   5.525   1.990  11.171  0.7793  0.3871  0.4215
10197TIP3    H252083   5.621   1.873  11.179 -2.1389 -2.2628 -1.3357
10198TIP3   OH252084   3.019   0.261   5.984 -0.0980 -0.5681  0.2935
10198TIP3    H152085   3.032   0.191   6.047  0.8370 -0.9735 -0.3285
10198TIP3    H252086   2.937   0.238   5.939  0.3620 -1.4508 -0.1259
10199TIP3   OH252087   4.131   6.082  16.970 -0.4539 -0.4037  0.1033
10199TIP3    H152088   4.048   6.127  16.955 -0.1194  0.4819  0.7887
10199TIP3    H252089   4.116   5.992  16.940 -1.1703  0.1282 -1.2354
10200TIP3   OH252090   5.572   6.654   1.443 -0.2594  0.6598 -0.3823
10200TIP3    H152091   5.617   6.696   1.370  1.0111 -0.7206 -0.4404
10200TIP3    H252092   5.597   6.562   1.438 -2.5284 -0.0569  0.0484
10201TIP3   OH252093   3.239   0.699  16.340  0.3066  0.2156 -0.3305
10201TIP3    H152094   3.243   0.793  16.321 -1.3050  0.4527  0.3669
10201TIP3    H252095   3.241   0.657  16.254  1.1955  0.8618 -0.6439
10202TIP3   OH252096   4.519   1.595   2.416 -0.2165 -0.0826  0.4166
10202TIP3    H152097   4.514   1.524   2.480  2.1609  0.4057  1.2199
10202TIP3    H252098   4.488   1.672   2.463  0.1601  0.0090  0.5101
10203TIP3   OH252099   5.285   6.469   4.192  0.5599 -0.0236 -0.2727
10203TIP3    H152100   5.345   6.406   4.231  1.6628 -0.0378 -1.9290
10203TIP3    H252101   5.233   6.501   4.266 -0.4957 -3.3049  0.5357
10204TIP3   OH252102   2.392   3.212   0.137 -0.0852 -0.3043 -0.2910
10204TIP3    H152103   2.407   3.132   0.187 -1.9290 -0.8785 -0.5498
10204TIP3    H252104   2.337   3.266   0.194 -1.4926 -0.6059 -1.2851
10205TIP3   OH252105   2.372   3.211   5.676  0.3932  0.0118  0.1834
10205TIP3    H152106   2.288   3.236   5.637  0.1021  0.1425  0.8767
10205TIP3    H252107   2.351   3.140   5.737  1.1047 -1.3994 -1.1617
10206TIP3   OH252108   1.488   0.561  13.978 -0.6745  0.0717  0.2708
10206TIP3    H152109   1.440   0.521  14.051  1.9045  0.6947  2.4880
10206TIP3    H252110   1.578   0.568  14.010  0.3944  1.2932 -2.6618
10207TIP3   OH252111   6.667   5.725  12.989  0.3091  0.3642  0.0968
10207TIP3    H152112   6.722   5.723  12.910  0.6360 -1.6646  0.3357
10207TIP3    H252113   6.629   5.638  12.994  2.0947 -0.3670  3.4243
10208TIP3   OH252114   3.096   2.095   5.445  0.5895 -0.0204 -0.1448
10208TIP3    H152115   3.027   2.093   5.511  0.6672 -1.9107 -0.0627
10208TIP3    H252116   3.075   2.170   5.390 -2.0417 -1.0001 -0.6283
10209TIP3   OH252117   1.261   1.825  12.326 -0.5151 -0.3910  0.6988
10209TIP3    H152118   1.316   1.900  12.301  0.0383 -1.0977 -0.2825
10209TIP3    H252119   1.311   1.780  12.394 -0.4787 -0.3033  0.7289
10210TIP3   OH252120   3.928   3.873   3.359 -0.1161  0.2169 -0.0667
10210TIP3    H152121   3.871   3.909   3.290  0.0776 -0.8175 -0.8028
10210TIP3    H252122   3.885   3.791   3.384 -0.0770  0.4887  0.9244
10211TIP3   OH252123   6.305   4.851   0.497 -0.1069  0.1829 -0.0935
10211TIP3    H152124   6.333   4.802   0.575 -2.7062  0.5079  1.1717
10211TIP3    H252125   6.248   4.790   0.450 -0.2097  0.6741 -0.6158
10212TIP3   OH252126   2.806   2.874  11.362  0.0382  0.2747 -0.7916
10212TIP3    H152127   2.764   2.926  11.431 -0.7418 -1.4807  0.1077
10212TIP3    H252128   2.895   2.859  11.394 -0.1073  0.0482 -0.4893
10213TIP3   OH252129   6.315   4.121   4.762 -0.3262 -0.0061 -0.0818
10213TIP3    H152130   6.334   4.214   4.767 -0.7777  0.1391 -0.9064
10213TIP3    H252131   6.227   4.113   4.798  0.2278 -0.3219  1.2885
10214TIP3   OH252132   4.351   5.874   2.749 -0.1746 -0.1973  0.6763
10214TIP3    H152133   4.431   5.887   2.800  0.4572  0.7510 -0.4940
10214TIP3    H252134   4.321   5.962   2.729 -0.7380 -0.5516 -0.0744
10215TIP3   OH252135   5.582   0.532  16.502 -0.5443  0.1728 -0.3605
10215TIP3    H152136   5.627   0.454  16.534  0.3718  1.1440  0.8405
10215TIP3    H252137   5.490   0.508  16.499 -0.4493 -0.5311  1.3690
10216TIP3   OH252138   3.695   3.334  12.958 -0.1740  0.1176  0.1100
10216TIP3    H152139   3.621   3.304  13.011  0.4222  0.9463  1.4736
10216TIP3    H252140   3.762   3.267  12.970 -0.4196 -0.2413 -0.4927
10217TIP3   OH252141   6.643   4.912   3.044  0.3985 -0.0920 -0.0178
10217TIP3    H152142   6.583   4.910   2.970  0.8801 -0.8802 -0.3933
10217TIP3    H252143   6.648   4.822   3.074 -0.5825  0.3608  1.6445
10218TIP3   OH252144   3.577   5.651   3.378  0.5667 -0.8686 -0.0864
10218TIP3    H152145   3.627   5.685   3.304  0.4126  0.6198  0.4651
10218TIP3    H252146   3.492   5.627   3.342  0.6033 -0.4468 -0.4527
10219TIP3   OH252147   6.124   4.051   1.079  0.4139 -0.4429 -0.4322
10219TIP3    H152148   6.035   4.027   1.104  1.0980 -1.7199  0.9615
10219TIP3    H252149   6.145   3.992   1.006  0.7389 -1.4915  0.4729
10220TIP3   OH252150   2.325   1.186  11.625 -0.5750  0.1611  0.0491
10220TIP3    H152151   2.414   1.182  11.662 -0.5859  0.8201  0.1533
10220TIP3    H252152   2.293   1.096  11.632 -0.4655  0.2023  1.3974
10221TIP3   OH252153   1.825   2.465  15.567 -0.0130 -0.6308  0.1881
10221TIP3    H152154   1.750   2.525  15.567  0.0206 -0.5546 -1.1131
10221TIP3    H252155   1.803   2.399  15.633 -0.7407 -0.0355  0.5687
10222TIP3   OH252156   0.418   0.220   4.426 -0.9279  0.1514  0.0744
10222TIP3    H152157   0.368   0.169   4.490  1.3326 -1.8446  0.3667
10222TIP3    H252158   0.462   0.287   4.479  0.0824 -0.8163  0.4960
10223TIP3   OH252159   2.665   2.526   6.186 -0.1544  0.4681 -0.1218
10223TIP3    H152160   2.696   2.617   6.188  2.2611 -0.2787 -1.0017
10223TIP3    H252161   2.742   2.473   6.206 -1.6013 -1.4236  0.8062
10224TIP3   OH252162   6.138   5.856   3.266  0.3313  0.2181  0.0901
10224TIP3    H152163   6.157   5.818   3.351 -0.2084  1.5360  0.8324
10224TIP3    H252164   6.045   5.877   3.269  0.0824 -0.5866 -1.1991
10225TIP3   OH252165   5.036   2.043  15.999 -0.1190  0.1880 -0.4925
10225TIP3    H152166   5.124   2.070  15.972  0.7090 -1.0033  0.8807
10225TIP3    H252167   4.981   2.121  15.984  1.5454  1.6156  0.4624
10226TIP3   OH252168   4.734   0.478  13.291 -0.1073  0.7334  0.2070
10226TIP3    H152169   4.760   0.389  13.315 -1.5407  0.8761  2.4952
10226TIP3    H252170   4.817   0.524  13.281  0.8673 -1.3204 -3.6515
10227TIP3   OH252171   2.801   4.555   6.631  0.0867  0.0611 -0.3726
10227TIP3    H152172   2.865   4.613   6.589 -0.5353 -1.8287 -4.4351
10227TIP3    H252173   2.717   4.579   6.591 -0.7666 -1.2799  0.5281
10228TIP3   OH252174   6.281   5.873   2.180  0.7136  0.1981 -0.1934
10228TIP3    H152175   6.219   5.800   2.184  0.4138  0.4047 -1.0173
10228TIP3    H252176   6.311   5.875   2.089 -0.5395  2.1375 -0.6225
10229TIP3   OH252177   1.963   4.698  15.023  0.3000  0.6833 -0.2722
10229TIP3    H152178   2.053   4.668  15.006 -0.0619  0.0755 -1.2215
10229TIP3    H252179   1.971   4.792  15.037  0.9813  0.7977 -1.3039
10230TIP3   OH252180   4.344   3.586   5.515  0.2746 -0.1551 -0.4052
10230TIP3    H152181   4.258   3.596   5.555 -1.5404  2.0808 -4.2469
10230TIP3    H252182   4.335   3.509   5.458  1.2122 -0.5769  0.0067
10231TIP3   OH252183   4.425   5.355  16.796  0.5034 -0.4030 -0.5338
10231TIP3    H152184   4.344   5.304  16.803 -0.0482  0.2854 -1.5570
10231TIP3    H252185   4.402   5.428  16.738  1.2149  1.1321  1.0426
10232TIP3   OH252186   5.768   5.480  15.837  0.2591  0.4098 -0.2190
10232TIP3    H152187   5.825   5.521  15.902 -0.1724 -1.3570  1.3739
10232TIP3    H252188   5.681   5.513  15.858  0.3903  1.6258 -1.4357
10233TIP3   OH252189   1.120   6.728   4.335 -0.2273  0.5646 -0.8566
10233TIP3    H152190   1.047   6.696   4.282 -0.7377 -1.3230  0.8966
10233TIP3    H252191   1.086   6.807   4.378 -1.6425 -0.8463  0.7239
10234TIP3   OH252192   2.318   0.704  14.375  0.3275 -0.2115  0.5166
10234TIP3    H152193   2.313   0.662  14.461 -0.9780  1.1395  1.1613
10234TIP3    H252194   2.396   0.760  14.381 -0.2957  0.6210  1.2200
10235TIP3   OH252195   4.161   3.829  14.046 -0.3184 -0.3310 -0.1459
10235TIP3    H152196   4.215   3.843  13.968 -1.1519  2.8667 -0.3014
10235TIP3    H252197   4.103   3.756  14.023  0.4877 -0.4560 -1.9122
10236TIP3   OH252198   0.481   2.570   0.548 -0.1307 -0.8347  0.1245
10236TIP3    H152199   0.539   2.495   0.537 -0.5685 -1.3575  1.1971
10236TIP3    H252200   0.400   2.533   0.582 -0.8924 -0.0399 -0.7751
10237TIP3   OH252201   2.983   2.361   6.214  0.1090 -0.2154  0.1081
10237TIP3    H152202   2.977   2.433   6.151 -0.8490 -0.6708 -0.3304
10237TIP3    H252203   3.035   2.397   6.286  1.9234  0.0641 -1.2750
10238TIP3   OH252204   0.591   5.218   0.377  0.0611  0.4566  0.5777
10238TIP3    H152205   0.529   5.158   0.334  2.1520 -1.3412 -0.0767
10238TIP3    H252206   0.677   5.186   0.351  1.3398  1.8136  2.8539
10239TIP3   OH252207   3.296   5.935  16.181  0.0017 -1.0755 -0.6060
10239TIP3    H152208   3.201   5.943  16.173  0.0608 -0.2902 -0.6407
10239TIP3    H252209   3.318   5.987  16.259  0.6506  0.8962 -1.9999
10240TIP3   OH252210   3.281   5.909   0.164 -0.4279 -0.7223 -0.4538
10240TIP3    H152211   3.300   5.951   0.248  3.7372 -1.1027 -1.0173
10240TIP3    H252212   3.324   5.965   0.099 -1.4442 -1.7570 -2.0880
10241TIP3   OH252213   4.319   4.240  17.051  0.3301  0.1642 -0.4901
10241TIP3    H152214   4.245   4.299  17.033 -0.4922 -0.5838  0.3539
10241TIP3    H252215   4.279   4.158  17.078  1.4779 -0.2030  0.1831
10242TIP3   OH252216   3.063   6.458  15.499  0.1527  0.1441 -0.5470
10242TIP3    H152217   2.988   6.401  15.520 -1.0927  1.5108 -1.1316
10242TIP3    H252218   3.068   6.458  15.404  3.7907 -3.4808 -0.6436
10243TIP3   OH252219   2.650   2.993  15.145 -0.3973  0.4152  0.3271
10243TIP3    H152220   2.702   2.969  15.069 -3.2191 -2.1609 -1.0065
10243TIP3    H252221   2.611   3.077  15.122  1.9573  1.7374  0.8169
10244TIP3   OH252222   5.290   5.513   4.468 -0.6224 -0.3857  0.4208
10244TIP3    H152223   5.197   5.526   4.448 -0.0533  0.5358 -1.8698
10244TIP3    H252224   5.330   5.598   4.452  0.5266 -0.5393  2.2218
10245TIP3   OH252225   3.775   5.759   5.777 -0.3049  0.2773  0.0136
10245TIP3    H152226   3.705   5.807   5.821  0.3603  0.2509  1.1180
10245TIP3    H252227   3.798   5.689   5.837 -0.8394 -1.0988 -1.3103
10246TIP3   OH252228   3.945   3.225   2.417  0.1739 -0.1583  0.3331
10246TIP3    H152229   4.004   3.216   2.492  0.5425  1.3774  0.2589
10246TIP3    H252230   3.858   3.205   2.451  0.7290 -2.7860  0.3685
10247TIP3   OH252231   2.206   2.674  16.641  0.4381  0.0766  0.2101
10247TIP3    H152232   2.153   2.716  16.573  1.3101  1.2274  0.2263
10247TIP3    H252233   2.268   2.741  16.669  1.3592 -0.9831  0.7892
10248TIP3   OH252234   0.401   1.244  15.642 -0.2407  0.4661 -0.2102
10248TIP3    H152235   0.390   1.149  15.651 -1.5286  0.7045  0.8897
10248TIP3    H252236   0.469   1.253  15.574  0.8225 -1.2482  0.5423
10249TIP3   OH252237   5.966   3.833  16.432  0.5562 -0.0056  0.4442
10249TIP3    H152238   5.878   3.841  16.393  1.0812 -0.1749 -0.8433
10249TIP3    H252239   6.017   3.789  16.364  1.0637 -2.1175  2.0976
10250TIP3   OH252240   0.598   6.280  10.676 -0.0635 -0.4341 -0.4021
10250TIP3    H152241   0.564   6.259  10.589 -1.8893 -0.8132  0.3587
10250TIP3    H252242   0.616   6.195  10.716 -0.0760 -0.2983 -0.1039
10251TIP3   OH252243   2.072   3.083   5.766  0.4162  0.5079 -0.0816
10251TIP3    H152244   2.071   3.043   5.853  0.4431  1.5416  0.4113
10251TIP3    H252245   1.979   3.095   5.744  0.3184 -1.7100 -1.1626
10252TIP3   OH252246   2.797   5.120  12.520 -0.1411 -0.3466  0.3485
10252TIP3    H152247   2.719   5.067  12.540 -0.1978  0.3456  2.1824
10252TIP3    H252248   2.822   5.093  12.432 -0.3930 -3.1456  1.0060
10253TIP3   OH252249   1.814   0.944   4.358  0.3457 -0.5955 -0.0787
10253TIP3    H152250   1.761   0.979   4.429  0.4626 -2.9593  1.2832
10253TIP3    H252251   1.760   0.876   4.318  0.8737 -0.3505 -1.2491
10254TIP3   OH252252   4.535   1.080  16.091 -0.0220  0.0920  0.4535
10254TIP3    H152253   4.584   1.160  16.108 -0.3829  0.0418  1.8674
10254TIP3    H252254   4.500   1.055  16.177  0.3410 -1.7449  0.1076
10255TIP3   OH252255   3.478   1.882  12.045  0.0962  0.3187  0.0586
10255TIP3    H152256   3.532   1.805  12.065 -1.0842 -0.3761  0.7243
10255TIP3    H252257   3.490   1.940  12.120  1.7863  1.2935 -0.9051
10256TIP3   OH252258   1.894   1.013   2.775 -0.3310 -0.0012  0.0213
10256TIP3    H152259   1.810   0.984   2.809  0.8928 -1.5914  1.9004
10256TIP3    H252260   1.916   1.089   2.827  0.7685 -1.4455  1.7834
10257TIP3   OH252261   5.712   5.785  12.430 -0.1554  0.2031 -0.2807
10257TIP3    H152262   5.716   5.851  12.361 -0.4706  0.4740 -0.0467
10257TIP3    H252263   5.715   5.701  12.384  0.2978  0.3829 -0.5769
10258TIP3   OH252264   5.300   3.847  15.472  0.4455  0.2876 -0.4431
10258TIP3    H152265   5.336   3.759  15.483 -0.9169 -0.2121  0.2947
10258TIP3    H252266   5.288   3.880  15.561 -1.8515  0.0075 -0.5970
10259TIP3   OH252267   1.687   1.558   5.201  0.3378 -0.0524 -0.4130
10259TIP3    H152268   1.702   1.536   5.109  0.8079 -2.1064  0.1036
10259TIP3    H252269   1.768   1.599   5.229 -0.1766  1.5349 -1.1450
10260TIP3   OH252270   5.600   0.866  14.131 -0.6188 -0.2599  0.3485
10260TIP3    H152271   5.612   0.932  14.063 -1.5658  1.3844  1.6826
10260TIP3    H252272   5.510   0.836  14.120 -0.7107 -0.1349  0.7236
10261TIP3   OH252273   1.261   0.703  16.564 -0.0823  0.2324 -0.0835
10261TIP3    H152274   1.254   0.796  16.542 -0.5961  0.2340  0.0712
10261TIP3    H252275   1.237   0.699  16.657 -4.4684 -0.5676 -1.0458
10262TIP3   OH252276   2.260   2.081   4.938  0.2973  0.1496 -0.1403
10262TIP3    H152277   2.192   2.032   4.892  0.6333  0.5263 -1.0500
10262TIP3    H252278   2.211   2.140   4.996 -0.1320 -0.2398 -0.1019
10263TIP3   OH252279   1.465   5.455   3.404 -0.1485  0.0586 -0.3765
10263TIP3    H152280   1.467   5.459   3.308 -1.0303  0.1813 -0.3998
10263TIP3    H252281   1.459   5.362   3.425  0.3297  0.0137 -0.4285
10264TIP3   OH252282   5.913   3.352  13.093 -0.0910  0.1046 -0.7596
10264TIP3    H152283   5.860   3.393  13.161 -1.0020 -0.7619 -0.9110
10264TIP3    H252284   5.995   3.328  13.137  0.2684  1.6103 -0.5624
10265TIP3   OH252285   1.468   0.644  12.798  0.4387  0.3355 -0.1582
10265TIP3    H152286   1.550   0.688  12.822  0.0350  0.8390  0.3359
10265TIP3    H252287   1.414   0.651  12.877  0.0137 -0.2190 -0.3962
10266TIP3   OH252288   0.214   0.174   6.654 -0.2407  0.7456 -0.2826
10266TIP3    H152289   0.171   0.174   6.569 -2.5173 -0.2605  0.7962
10266TIP3    H252290   0.235   0.267   6.670 -1.5033  1.1952 -1.1031
10267TIP3   OH252291   6.332   5.339   4.613 -0.2990 -0.2938 -0.6362
10267TIP3    H152292   6.341   5.326   4.518 -0.8343  3.5302 -1.3568
10267TIP3    H252293   6.412   5.303   4.650 -0.0002 -1.7330 -2.5055
10268TIP3   OH252294   3.134   0.379  12.304 -0.3837  0.1374  0.0351
10268TIP3    H152295   3.078   0.399  12.228  0.0588 -0.4869 -0.4756
10268TIP3    H252296   3.105   0.291  12.331  0.6140 -0.3645 -0.4910
10269TIP3   OH252297   5.385   3.664   1.025  0.5363 -0.1603  0.1944
10269TIP3    H152298   5.422   3.643   0.939 -2.2500  1.1298 -1.4215
10269TIP3    H252299   5.387   3.759   1.030 -1.2596 -0.1160  0.6190
10270TIP3   OH252300   2.667   0.701  14.521 -0.0282  0.1164  0.0078
10270TIP3    H152301   2.600   0.663  14.465  0.3750  1.3100 -1.3270
10270TIP3    H252302   2.698   0.627  14.574 -1.3420 -0.7574 -0.3890
10271TIP3   OH252303   3.606   5.067  11.874  0.7002  0.1097 -0.7310
10271TIP3    H152304   3.694   5.094  11.901  0.9091 -0.3209 -0.9818
10271TIP3    H252305   3.572   5.017  11.948 -0.5392  2.8176  0.6859
10272TIP3   OH252306   3.795   2.152   3.970 -0.2975 -0.9805 -0.1862
10272TIP3    H152307   3.776   2.201   3.890 -0.8441 -0.2371  0.3886
10272TIP3    H252308   3.762   2.063   3.951 -1.3022 -0.5678 -0.4516
10273TIP3   OH252309   5.455   4.983  14.539 -0.1983  0.0674 -0.3490
10273TIP3    H152310   5.538   5.029  14.542  1.1695 -2.2484  0.7330
10273TIP3    H252311   5.388   5.051  14.548  1.6239  1.8740  0.0215
10274TIP3   OH252312   3.221   4.551   4.583  0.4444  0.0581 -0.2429
10274TIP3    H152313   3.236   4.635   4.625  0.4935 -0.4099  0.6868
10274TIP3    H252314   3.151   4.568   4.519 -0.9529  0.3664  1.3120
10275TIP3   OH252315   3.923   2.978  15.443  0.1809  0.7318 -0.3380
10275TIP3    H152316   3.922   3.026  15.526  1.7416 -1.7220  1.2390
10275TIP3    H252317   4.009   2.996  15.406  0.3750  0.0300 -0.2491
10276TIP3   OH252318   2.304   4.124  13.145 -0.0399  0.3257  0.0163
10276TIP3    H152319   2.380   4.100  13.198 -0.3303  0.9248  0.7233
10276TIP3    H252320   2.330   4.104  13.055  1.2492  1.2597  0.1556
10277TIP3   OH252321   6.478   1.369   0.551  0.6487 -0.0098 -0.2194
10277TIP3    H152322   6.503   1.396   0.462 -0.9021 -1.4245 -1.1454
10277TIP3    H252323   6.453   1.451   0.594  0.4616  0.5975 -1.4283
10278TIP3   OH252324   5.101   3.275   6.518 -0.6351  0.6961  0.2603
10278TIP3    H152325   5.059   3.352   6.555 -1.9445  0.1463 -0.0417
10278TIP3    H252326   5.030   3.212   6.504  0.2713 -0.2375 -0.3282
10279TIP3   OH252327   3.569   6.234   4.504  0.6484  0.6729 -0.2499
10279TIP3    H152328   3.641   6.211   4.445 -0.1466  1.3718 -1.5395
10279TIP3    H252329   3.612   6.273   4.580  1.6705  0.4816 -0.7102
10280TIP3   OH252330   4.192   5.324   0.930 -0.4300 -0.2837  0.2639
10280TIP3    H152331   4.120   5.274   0.890  0.8449 -1.3113 -0.8597
10280TIP3    H252332   4.161   5.414   0.930 -1.5955 -0.6515 -0.4586
10281TIP3   OH252333   6.473   4.340  12.922 -0.2945 -0.2915 -0.6915
10281TIP3    H152334   6.389   4.356  12.880 -0.1208 -0.3060 -1.0545
10281TIP3    H252335   6.537   4.352  12.852  0.0557  0.3927 -0.2586
10282TIP3   OH252336   3.058   3.850  15.547  0.5419  0.0818 -0.4790
10282TIP3    H152337   3.134   3.907  15.563  1.3427 -0.9770 -0.3464
10282TIP3    H252338   3.066   3.782  15.614  0.2724 -0.8207 -1.3463
10283TIP3   OH252339   5.138   4.438   0.887  0.0762 -0.2007  0.0830
10283TIP3    H152340   5.203   4.461   0.821  2.6252 -0.8299  2.1960
10283TIP3    H252341   5.118   4.520   0.932 -0.4314 -0.0349 -0.4517
10284TIP3   OH252342   5.714   1.035  12.186 -0.3471 -0.2902 -0.1358
10284TIP3    H152343   5.740   1.114  12.138  1.4463 -0.4072  0.5830
10284TIP3    H252344   5.790   0.978  12.183 -0.7982 -1.0201  1.3603
10285TIP3   OH252345   1.619   6.790   1.587 -0.0343  0.3986  0.3102
10285TIP3    H152346   1.620   6.781   1.492 -0.9238  2.8048 -0.0119
10285TIP3    H252347   1.626   6.885   1.602 -1.4219  0.2219  2.5823
10286TIP3   OH252348   3.558   4.271  14.324 -0.7905  0.7870 -0.4651
10286TIP3    H152349   3.631   4.230  14.277  0.3002  0.1153  1.6639
10286TIP3    H252350   3.544   4.214  14.400 -1.1399  2.8081  1.0731
10287TIP3   OH252351   5.179   5.063  13.067  0.1074 -0.0252 -0.0769
10287TIP3    H152352   5.187   5.154  13.041  1.7202 -0.2763 -0.5799
10287TIP3    H252353   5.085   5.046  13.066 -0.3483  2.0157  1.5111
10288TIP3   OH252354   3.789   1.465   3.969  0.1273 -0.6484 -0.0020
10288TIP3    H152355   3.713   1.416   3.936  0.1655  0.1688 -1.3893
10288TIP3    H252356   3.777   1.467   4.064 -0.9049 -1.6414 -0.0921
10289TIP3   OH252357   4.032   2.076  14.324 -0.1082  0.2343  0.8479
10289TIP3    H152358   4.120   2.070  14.361 -0.6758  1.1993  2.4652
10289TIP3    H252359   4.043   2.129  14.245  0.8260 -0.0607  0.7686
10290TIP3   OH252360   6.240   4.422  14.119  0.2690  0.4571 -0.0532
10290TIP3    H152361   6.219   4.330  14.129  2.3628 -0.0563  0.2296
10290TIP3    H252362   6.209   4.445  14.032  1.1776 -0.9858 -0.7985
10291TIP3   OH252363   6.098   3.414  10.991  0.3179  0.0724  0.1590
10291TIP3    H152364   6.050   3.334  11.013  1.6603 -0.7323  0.3126
10291TIP3    H252365   6.059   3.445  10.910  0.3817 -1.2797 -0.4073
10292TIP3   OH252366   0.894   0.874   1.159 -0.5849  0.4856 -0.4933
10292TIP3    H152367   0.941   0.942   1.207 -0.0194  0.5061 -1.0697
10292TIP3    H252368   0.962   0.815   1.127 -1.1175 -0.9338  0.8429
10293TIP3   OH252369   4.065   2.537  16.438  0.7623 -0.1362 -0.1130
10293TIP3    H152370   3.999   2.482  16.480  0.5873 -1.5353 -2.1129
10293TIP3    H252371   4.109   2.480  16.375  2.0215  1.4721 -0.7734
10294TIP3   OH252372   5.430   4.411   5.510 -0.6797 -0.0837  0.1277
10294TIP3    H152373   5.364   4.378   5.448 -1.9107  0.8569  0.8824
10294TIP3    H252374   5.381   4.471   5.567  1.0704  1.6156 -0.0425
10295TIP3   OH252375   4.441   5.976   4.869  0.2056 -0.1669  0.2032
10295TIP3    H152376   4.466   6.036   4.939  0.5833  0.8702 -0.7863
10295TIP3    H252377   4.353   5.947   4.892 -0.0268  0.8530  0.6422
10296TIP3   OH252378   5.766   6.355  15.888 -0.2154  0.4324  0.0471
10296TIP3    H152379   5.778   6.333  15.796 -0.6941 -1.8553  0.4743
10296TIP3    H252380   5.672   6.371  15.898  0.1415  3.4371 -0.3240
10297TIP3   OH252381   0.489   5.362  14.424  0.2165  0.0872 -0.2255
10297TIP3    H152382   0.433   5.440  14.429  1.7917  1.3240 -1.1840
10297TIP3    H252383   0.563   5.382  14.481  0.7302 -0.6429 -0.6276
10298TIP3   OH252384   4.557   3.296   1.507  0.2523  0.2408 -0.0251
10298TIP3    H152385   4.496   3.230   1.540 -1.3068  0.1288 -2.7769
10298TIP3    H252386   4.644   3.259   1.523 -0.5642 -2.4166 -1.1631
10299TIP3   OH252387   2.683   3.730   3.879 -0.5755  0.2874 -0.2048
10299TIP3    H152388   2.654   3.760   3.965  0.3420  1.6524 -0.3321
10299TIP3    H252389   2.777   3.752   3.877 -0.9719  2.1261 -2.2668
10300TIP3   OH252390   4.122   5.856   0.070 -0.6622 -0.4479 -0.1893
10300TIP3    H152391   4.080   5.797   0.007  1.3328 -0.6232 -1.4549
10300TIP3    H252392   4.111   5.943   0.032 -2.5147 -0.0788  1.0554
10301TIP3   OH252393   1.859   2.900  17.103  0.3751  0.2370 -0.0362
10301TIP3    H152394   1.780   2.849  17.087 -1.5875  3.3022 -1.0579
10301TIP3    H252395   1.862   2.911  17.198 -0.6553  0.3761 -0.0117
10302TIP3   OH252396   5.232   0.739   5.178  0.1696 -0.2642  0.1911
10302TIP3    H152397   5.283   0.699   5.108  0.8269 -0.8453  0.9889
10302TIP3    H252398   5.297   0.774   5.238 -0.3928  1.0382  0.0786
10303TIP3   OH252399   0.797   0.149  14.007 -0.2032 -0.3169 -0.4157
10303TIP3    H152400   0.703   0.150  13.989 -0.7330 -1.7609  1.8412
10303TIP3    H252401   0.807   0.209  14.082 -0.0254 -3.0037  1.8626
10304TIP3   OH252402   2.403   4.887  16.169 -0.1880 -0.0644 -0.2272
10304TIP3    H152403   2.447   4.850  16.093  0.0097 -2.1743  0.8479
10304TIP3    H252404   2.316   4.910  16.137 -0.1694 -1.0985 -1.0757
10305TIP3   OH252405   6.267   5.004  15.467  0.5296 -0.1490 -0.3531
10305TIP3    H152406   6.186   4.956  15.486  1.0258 -0.1313  2.1125
10305TIP3    H252407   6.260   5.026  15.374 -1.3487 -1.8966 -0.7115
10306TIP3   OH252408   1.212   1.331   2.041  0.1506 -0.7461  0.7401
10306TIP3    H152409   1.261   1.258   2.078 -0.7565 -0.5317  2.4675
10306TIP3    H252410   1.255   1.409   2.075 -0.1283 -0.5187  0.5775
10307TIP3   OH252411   0.788   6.155  16.022 -0.0138 -0.1911  0.8065
10307TIP3    H152412   0.833   6.239  16.012  1.1100 -0.9831 -1.8644
10307TIP3    H252413   0.799   6.132  16.114  3.4575  0.6175  0.7413
10308TIP3   OH252414   4.820   6.611   0.470  0.2876  0.2689 -0.5584
10308TIP3    H152415   4.810   6.693   0.519 -1.7324 -1.0977  1.5058
10308TIP3    H252416   4.886   6.562   0.519  0.1265 -0.0880 -0.6972
10309TIP3   OH252417   2.422   2.274  13.473 -0.5100  0.2873  0.6133
10309TIP3    H152418   2.337   2.278  13.429 -0.8029 -0.0215  1.1536
10309TIP3    H252419   2.460   2.190  13.445 -0.8111 -0.0337  1.1505
10310TIP3   OH252420   3.455   2.946  15.581  0.1589 -0.9330  0.1985
10310TIP3    H152421   3.517   2.985  15.643 -0.4990  0.4329  0.0226
10310TIP3    H252422   3.507   2.883  15.532  1.1420 -0.6309  0.8199
10311TIP3   OH252423   1.939   6.517  11.871  0.1779 -0.1885 -0.3952
10311TIP3    H152424   1.940   6.515  11.776 -2.8321 -1.3912 -0.5241
10311TIP3    H252425   1.919   6.427  11.897 -0.4512  0.3963  1.2797
10312TIP3   OH252426   4.681   0.508   4.296 -0.1195  0.2669 -0.4006
10312TIP3    H152427   4.677   0.481   4.205 -1.2312  0.5663 -0.4542
10312TIP3    H252428   4.761   0.562   4.302  1.8775 -2.4913 -0.3845
10313TIP3   OH252429   1.141   3.302  10.905  0.0804  0.2827  0.0144
10313TIP3    H152430   1.097   3.269  10.983 -0.6684  0.4941 -0.3068
10313TIP3    H252431   1.124   3.396  10.905  2.7338  0.8624  1.2685
10314TIP3   OH252432   0.757   3.486  15.919 -0.5723  0.0682  0.2924
10314TIP3    H152433   0.681   3.545  15.917 -0.7301 -0.1554 -0.7830
10314TIP3    H252434   0.734   3.415  15.860  0.6628  0.2235 -0.4142
10315TIP3   OH252435   2.142   0.233  14.817 -0.6308 -0.0785  0.1013
10315TIP3    H152436   2.162   0.140  14.820 -1.7011 -0.3112  1.0792
10315TIP3    H252437   2.065   0.240  14.760 -0.3033  0.2541 -0.2998
10316TIP3   OH252438   6.671   0.638  11.561  0.1671 -0.2590 -0.3744
10316TIP3    H152439   6.611   0.565  11.549 -0.9613  0.4526  0.7944
10316TIP3    H252440   6.743   0.619  11.500 -1.0644 -1.2769 -1.5930
10317TIP3   OH252441   6.517   5.157  13.515  0.1174 -0.0713 -0.1682
10317TIP3    H152442   6.454   5.087  13.497 -1.2550  1.1013 -0.1287
10317TIP3    H252443   6.478   5.206  13.588  1.8614 -0.2303  0.9348
10318TIP3   OH252444   0.455   5.734   5.112  0.3255  0.3291  1.0361
10318TIP3    H152445   0.482   5.741   5.204  1.6795 -1.3886  0.8266
10318TIP3    H252446   0.461   5.640   5.093 -1.7803  0.4080 -0.2933
10319TIP3   OH252447   1.310   1.808  14.023 -0.4535  0.0447  0.1055
10319TIP3    H152448   1.374   1.737  14.034  0.5784  1.1232  1.2335
10319TIP3    H252449   1.355   1.871  13.966 -0.4658  0.8553  0.9870
10320TIP3   OH252450   5.214   2.961   3.102 -0.2877 -0.4563  0.0236
10320TIP3    H152451   5.224   2.891   3.167 -1.3210 -1.9720 -1.3600
10320TIP3    H252452   5.143   3.016   3.137 -0.2168 -0.7271  0.6109
10321TIP3   OH252453   1.347   1.155   2.264 -0.1985 -0.5903  0.0732
10321TIP3    H152454   1.425   1.163   2.319  0.4593 -1.7447 -0.6332
10321TIP3    H252455   1.277   1.129   2.324  0.1971 -0.5384  0.5631
10322TIP3   OH252456   3.228   4.318  15.052 -0.4763  0.1019  0.5177
10322TIP3    H152457   3.264   4.347  14.969 -0.8747  0.1652  0.3696
10322TIP3    H252458   3.295   4.259  15.088 -1.0073 -1.2315 -0.6049
10323TIP3   OH252459   4.074   0.912  12.749 -0.3261  0.2393 -0.2741
10323TIP3    H152460   4.022   0.912  12.829  0.7780  0.8578  0.4633
10323TIP3    H252461   4.150   0.965  12.770  0.6542 -0.7174 -1.2923
10324TIP3   OH252462   6.164   4.459   4.498 -0.6620 -0.0108 -0.0518
10324TIP3    H152463   6.127   4.389   4.551  1.2534 -0.7456  0.3963
10324TIP3    H252464   6.095   4.479   4.434 -1.3545 -2.1395 -0.0585
10325TIP3   OH252465   1.541   6.234  17.199  0.1546 -0.2725  0.3030
10325TIP3    H152466   1.509   6.175  17.268  0.5259  0.3658  1.0406
10325TIP3    H252467   1.587   6.303  17.247 -0.7077  0.8946 -0.4999
10326TIP3   OH252468   0.111   3.671  16.341 -0.0986  0.4175 -0.5971
10326TIP3    H152469   0.050   3.653  16.412 -0.2091  1.4133 -0.4331
10326TIP3    H252470   0.099   3.598  16.280  2.2954 -2.3278  1.8738
10327TIP3   OH252471   4.438   2.877   4.260 -0.0674  0.1489  0.1249
10327TIP3    H152472   4.518   2.853   4.307 -0.3875  0.9529  1.1197
10327TIP3    H252473   4.455   2.853   4.169  1.3525  0.4136  0.3031
10328TIP3   OH252474   5.174   1.053  13.893  0.1493 -0.0176  0.3731
10328TIP3    H152475   5.247   1.090  13.843 -0.9587  1.5237 -0.1833
10328TIP3    H252476   5.116   1.018  13.826  0.9122 -2.4036  0.8639
10329TIP3   OH252477   6.272   3.383  13.038 -0.1815 -0.5459  0.4263
10329TIP3    H152478   6.255   3.413  12.949 -0.3440 -1.1904  0.2352
10329TIP3    H252479   6.349   3.433  13.066 -0.0003 -0.4936 -0.1512
10330TIP3   OH252480   2.856   1.722   0.051 -0.4884  0.4602 -0.5166
10330TIP3    H152481   2.818   1.636   0.036  0.0635 -0.0435  0.8346
10330TIP3    H252482   2.795   1.783   0.008 -1.0198 -0.5643 -1.2623
10331TIP3   OH252483   4.646   0.859   0.706  0.0708  0.7682  0.7392
10331TIP3    H152484   4.561   0.852   0.664  0.0794 -1.0232  0.9543
10331TIP3    H252485   4.666   0.953   0.704 -1.6465  1.1565  0.2112
10332TIP3   OH252486   1.953   4.402  12.583  0.7586 -0.1715 -0.4157
10332TIP3    H152487   1.957   4.379  12.490 -0.3286 -0.4254 -0.4238
10332TIP3    H252488   1.974   4.496  12.585 -1.0525  0.3032 -1.1758
10333TIP3   OH252489   5.787   1.379   3.499 -0.4921 -0.3503 -0.6772
10333TIP3    H152490   5.870   1.347   3.534  0.3647 -0.0745 -2.3484
10333TIP3    H252491   5.804   1.472   3.482 -1.5689  0.0101  0.1333
10334TIP3   OH252492   4.444   2.279   6.289  0.2933 -0.2781 -0.4766
10334TIP3    H152493   4.383   2.332   6.341  1.2282 -2.1738  2.8958
10334TIP3    H252494   4.479   2.339   6.224 -3.1746  1.5458 -0.9018
10335TIP3   OH252495   0.175   6.543  11.961 -0.7179 -0.2390  0.0691
10335TIP3    H152496   0.171   6.590  12.044  0.8113  1.2275 -0.6200
10335TIP3    H252497   0.127   6.462  11.977 -1.0365  0.2949  2.1654
10336TIP3   OH252498   0.049   6.787   1.462  0.8113  0.3502  0.2863
10336TIP3    H152499  -0.045   6.801   1.477  0.9145 -0.1814  1.5101
10336TIP3    H252500   0.052   6.735   1.382  0.0065 -0.4068  0.7308
10337TIP3   OH252501   6.583   0.057   5.221 -0.2521 -0.1719 -0.5876
10337TIP3    H152502   6.539  -0.018   5.181  0.5737  0.5068 -2.8991
10337TIP3    H252503   6.593   0.032   5.313 -2.8636 -1.5140 -0.5613
10338TIP3   OH252504   1.135   1.284  14.871 -0.1025  0.0763 -0.4433
10338TIP3    H152505   1.212   1.340  14.878 -0.8662  1.0195  0.9182
10338TIP3    H252506   1.167   1.203  14.830  1.4816  0.6522 -0.3951
10339TIP3   OH252507   4.110   1.164  10.430 -0.4149  0.3855  0.2344
10339TIP3    H152508   4.089   1.255  10.453 -1.7004  0.2651 -0.3363
10339TIP3    H252509   4.065   1.151  10.346  0.5827 -0.4810 -0.1797
10340TIP3   OH252510   6.546   4.153   3.203  0.1341 -0.0005  0.1420
10340TIP3    H152511   6.641   4.144   3.215  0.3881  0.4283 -1.2713
10340TIP3    H252512   6.508   4.088   3.261  1.1961  1.0524  2.1550
10341TIP3   OH252513   0.905   0.932   3.557  0.0147 -0.1692 -0.3759
10341TIP3    H152514   0.944   0.999   3.501  0.0029  0.3764  0.2522
10341TIP3    H252515   0.827   0.903   3.509  0.2514 -0.0425 -0.8469
10342TIP3   OH252516   5.879   2.855  11.293 -0.3798 -0.4870  0.2528
10342TIP3    H152517   5.958   2.828  11.246  0.1203  1.9648 -0.4651
10342TIP3    H252518   5.908   2.928  11.348 -2.2561  0.9800 -0.6125
10343TIP3   OH252519   3.140   0.700   3.529  0.0913 -0.4553  0.3234
10343TIP3    H152520   3.096   0.747   3.459  1.6719 -0.8696 -1.0100
10343TIP3    H252521   3.198   0.766   3.569 -0.4754 -0.3338  0.9562
10344TIP3   OH252522   2.551   0.100  12.254 -0.1236  0.4275 -0.1578
10344TIP3    H152523   2.639   0.068  12.271  0.7444  2.1499 -1.0671
10344TIP3    H252524   2.504   0.025  12.217  1.0006 -0.4755  0.2120
10345TIP3   OH252525   2.526   3.301  15.506  0.2119  0.7037  0.1824
10345TIP3    H152526   2.439   3.260  15.499  0.8375 -0.4066 -2.0131
10345TIP3    H252527   2.515   3.387  15.466 -0.3807  1.5600  2.0607
10346TIP3   OH252528   0.390   5.658  13.499 -0.3069  0.0376  0.1467
10346TIP3    H152529   0.361   5.657  13.590 -0.9597 -1.0065 -0.0626
10346TIP3    H252530   0.482   5.682  13.504 -1.0336  3.1662  0.8473
10347TIP3   OH252531   5.586   0.911   0.334 -0.2658  0.7598 -0.0815
10347TIP3    H152532   5.572   0.983   0.395  2.5093 -0.5036  2.2901
10347TIP3    H252533   5.659   0.941   0.279  0.3216  0.1185  0.3386
10348TIP3   OH252534   5.181   1.134   0.987 -0.1901  0.1014  0.6883
10348TIP3    H152535   5.244   1.206   0.991 -1.2396  1.0756  0.2500
10348TIP3    H252536   5.172   1.104   1.077 -1.3980  2.0223  1.2568
10349TIP3   OH252537   0.826   0.114  17.000  0.1843 -0.3598 -0.8252
10349TIP3    H152538   0.842   0.190  17.056 -1.2113  0.7421 -1.8213
10349TIP3    H252539   0.808   0.042  17.060 -1.6563  0.8726  0.1672
10350TIP3   OH252540   2.828   5.264   4.088 -0.0444  0.2078 -0.4096
10350TIP3    H152541   2.836   5.175   4.122 -0.3615  0.4219  0.2327
10350TIP3    H252542   2.910   5.279   4.041 -0.9207 -1.2965 -2.6352
10351TIP3   OH252543   5.233   5.277  13.780  0.3129  0.2543  0.5399
10351TIP3    H152544   5.250   5.277  13.686  0.3920  1.3239  0.5451
10351TIP3    H252545   5.260   5.364  13.810 -3.4944  1.4897  0.8833
10352TIP3   OH252546   3.259   3.460  12.755 -0.1455 -0.3582  0.1124
10352TIP3    H152547   3.224   3.371  12.757 -0.3548 -0.2669  1.3483
10352TIP3    H252548   3.192   3.513  12.798  0.3962  0.2466  0.2306
10353TIP3   OH252549   6.365   3.249  12.439 -0.3307 -0.1578  0.1130
10353TIP3    H152550   6.382   3.176  12.499 -1.3605  1.0858  2.0166
10353TIP3    H252551   6.270   3.257  12.438 -0.2433  0.9740 -0.2941
10354TIP3   OH252552   4.415   6.165   5.076 -0.3145 -0.0592  0.2778
10354TIP3    H152553   4.397   6.229   5.144  1.4751 -0.8868  1.6247
10354TIP3    H252554   4.382   6.082   5.111 -0.7386 -0.2431 -0.5373
10355TIP3   OH252555   3.882   6.540   5.445  0.1883  0.1428 -0.4660
10355TIP3    H152556   3.948   6.518   5.378  0.0537  1.4880 -1.0782
10355TIP3    H252557   3.922   6.611   5.495 -0.9405  1.2930 -1.1318
10356TIP3   OH252558   6.756   6.097   6.552 -0.0877 -0.4047 -0.2912
10356TIP3    H152559   6.849   6.074   6.545  0.0635 -0.5971  1.7003
10356TIP3    H252560   6.753   6.161   6.622 -1.4397 -0.1967 -0.5180
10357TIP3   OH252561   6.787   3.420   2.991  0.1801  0.6407 -0.1196
10357TIP3    H152562   6.805   3.391   3.080 -2.0774  1.2197  0.5925
10357TIP3    H252563   6.808   3.345   2.936 -0.0859 -0.3411  1.0869
10358TIP3   OH252564   5.262   2.942  13.952 -0.6736  0.0367 -0.2211
10358TIP3    H152565   5.290   2.943  14.043  1.2101  0.8601 -0.7697
10358TIP3    H252566   5.229   2.853  13.938  1.3100 -0.8763  0.5974
10359TIP3   OH252567   5.831   5.031  14.270 -0.0217  0.2412  0.5762
10359TIP3    H152568   5.836   5.014  14.364 -0.9007  0.7485  0.7322
10359TIP3    H252569   5.907   5.086  14.251 -0.0454  0.4463  1.0640
10360TIP3   OH252570   4.494   0.472  14.944  0.4834  0.0131 -0.2549
10360TIP3    H152571   4.412   0.461  14.992  0.5167 -0.7880 -0.3641
10360TIP3    H252572   4.518   0.563  14.957  0.1285 -0.0210  0.6670
10361TIP3   OH252573   4.796   6.304  15.652 -0.7037 -0.3197 -0.2200
10361TIP3    H152574   4.762   6.224  15.692 -2.0435  1.2492  2.0418
10361TIP3    H252575   4.751   6.375  15.698 -0.1057  1.7591 -2.6032
10362TIP3   OH252576   6.731   2.519   2.610  0.3499 -0.1714  0.5076
10362TIP3    H152577   6.691   2.485   2.529 -0.3960  0.5288  0.5610
10362TIP3    H252578   6.723   2.448   2.673  0.7574 -0.6539  0.0171
10363TIP3   OH252579   5.816   5.684  12.109 -0.4663  0.8649 -0.5037
10363TIP3    H152580   5.863   5.750  12.159 -0.0938 -1.0241  1.8691
10363TIP3    H252581   5.792   5.618  12.174  0.8126 -2.2528 -2.9280
10364TIP3   OH252582   1.136   0.730   4.935  0.2590  0.0024 -0.5261
10364TIP3    H152583   1.228   0.753   4.919  0.9812 -0.7293  2.0078
10364TIP3    H252584   1.093   0.744   4.851  2.6783  0.3671 -1.8182
10365TIP3   OH252585   3.017   0.942  12.484  0.2360  0.0513 -0.0277
10365TIP3    H152586   2.922   0.944  12.496 -0.0816 -0.0659 -2.1158
10365TIP3    H252587   3.035   0.854  12.451  1.2268 -0.2694  1.3140
10366TIP3   OH252588   2.214   6.235   0.131 -0.0433 -0.1068 -0.2640
10366TIP3    H152589   2.164   6.259   0.209  0.7580 -0.1323  0.2706
10366TIP3    H252590   2.149   6.230   0.061 -0.4747  2.2918 -0.1307
10367TIP3   OH252591   3.662   4.744  16.291  0.5883  0.5791  0.4451
10367TIP3    H152592   3.725   4.772  16.224 -0.4914 -0.3304 -1.0203
10367TIP3    H252593   3.710   4.747  16.373  2.7494 -0.6586 -0.6930
10368TIP3   OH252594   5.495   5.521   0.142 -0.5331 -0.9504 -0.2869
10368TIP3    H152595   5.580   5.478   0.155  0.1371  0.3326 -0.2941
10368TIP3    H252596   5.472   5.501   0.051 -1.6348 -3.6480  0.4837
10369TIP3   OH252597   2.614   4.901   0.906  0.4868  0.4640  0.7249
10369TIP3    H152598   2.597   4.807   0.906  0.7013  0.4008 -0.5722
10369TIP3    H252599   2.709   4.908   0.908  0.4610  0.6782  1.5116
10370TIP3   OH252600   0.232   5.619  16.153 -0.4319  0.2388  0.8347
10370TIP3    H152601   0.264   5.710  16.156  2.6350 -0.7072  0.5006
10370TIP3    H252602   0.179   5.615  16.074 -0.5269  1.7016  0.7896
10371TIP3   OH252603   5.946   6.383  10.795 -0.0678  0.4786 -0.4750
10371TIP3    H152604   5.919   6.297  10.761 -1.0427  1.1072 -1.3587
10371TIP3    H252605   6.034   6.396  10.760  0.1009 -0.1705 -0.3107
10372TIP3   OH252606   6.044   3.681   4.419 -0.2578  0.2869  0.3251
10372TIP3    H152607   6.116   3.659   4.359  0.0463  0.9171  0.4503
10372TIP3    H252608   6.037   3.605   4.477  1.0391  0.6403  0.9988
10373TIP3   OH252609   3.130   5.919   5.166 -0.7367 -0.1820 -0.7871
10373TIP3    H152610   3.205   5.977   5.176  0.6103 -1.9731 -0.1099
10373TIP3    H252611   3.108   5.925   5.073  0.7511 -0.2341 -1.1630
10374TIP3   OH252612   4.189   4.930  12.343 -0.4802  0.0921 -0.1615
10374TIP3    H152613   4.219   4.845  12.311 -1.3695 -0.1121 -0.4893
10374TIP3    H252614   4.169   4.915  12.436  2.0419  0.6690  0.5407
10375TIP3   OH252615   5.223   2.843  11.388  0.7361 -0.4420  0.3148
10375TIP3    H152616   5.139   2.797  11.395 -1.3393  2.6163 -1.5659
10375TIP3    H252617   5.252   2.828  11.298  0.1210  1.5004 -0.2751
10376TIP3   OH252618   5.665   2.635  17.290  0.0952  0.7037  0.9285
10376TIP3    H152619   5.573   2.648  17.313 -0.9289 -1.0045 -1.6822
10376TIP3    H252620   5.695   2.566  17.350 -1.3314 -0.9565 -0.1776
10377TIP3   OH252621   6.048   4.742   6.692  0.5913 -0.1997  0.2253
10377TIP3    H152622   6.051   4.678   6.620 -1.8633 -0.3234  0.1311
10377TIP3    H252623   6.128   4.793   6.683  1.6009 -1.9010 -0.9942
10378TIP3   OH252624   3.784   3.471   1.397 -0.2212  0.0085 -0.0647
10378TIP3    H152625   3.812   3.380   1.385  1.5754  0.5040  0.0021
10378TIP3    H252626   3.825   3.497   1.480  2.0959  1.8350 -1.6590
10379TIP3   OH252627   2.511   1.522  15.014  0.1532 -0.2156 -0.5968
10379TIP3    H152628   2.416   1.537  15.006 -0.1268 -1.3145  0.3838
10379TIP3    H252629   2.523   1.498  15.105  1.1034 -1.8972 -1.1243
10380TIP3   OH252630   4.375   3.968   0.271 -0.0294 -0.1919  0.1807
10380TIP3    H152631   4.454   3.925   0.239  0.2789  1.7882 -1.9389
10380TIP3    H252632   4.313   3.962   0.198 -1.6182 -1.0105  1.5197
10381TIP3   OH252633   4.754   0.880  16.329  0.0221  0.1357  0.6054
10381TIP3    H152634   4.786   0.790  16.315  0.5097  0.4011 -0.0641
10381TIP3    H252635   4.660   0.874  16.319  0.0450 -0.3123  0.6282
10382TIP3   OH252636   4.401   6.619   5.890 -0.1477  0.7347 -0.7944
10382TIP3    H152637   4.489   6.590   5.867 -0.0714  0.0869  0.2453
10382TIP3    H252638   4.364   6.546   5.940  0.1206  2.3950  2.0910
10383TIP3   OH252639   6.276   6.700   0.403 -0.1918  0.0078  0.2054
10383TIP3    H152640   6.327   6.639   0.352 -0.7449 -0.0952 -0.2325
10383TIP3    H252641   6.185   6.685   0.376 -0.3180  1.1979 -0.1147
10384TIP3   OH252642   4.133   3.865   3.177  0.0826 -0.4156  0.2998
10384TIP3    H152643   4.125   3.957   3.151  0.4584 -0.6365 -0.6564
10384TIP3    H252644   4.085   3.859   3.259 -1.2451  0.3258 -0.3814
10385TIP3   OH252645   0.459   5.256  12.733  0.0284  0.0066 -0.6894
10385TIP3    H152646   0.537   5.308  12.714  1.2702 -1.2148  0.8589
10385TIP3    H252647   0.430   5.285  12.819 -0.3904 -0.5335 -0.6398
10386TIP3   OH252648   1.855   3.917  14.514 -0.3805 -0.1737 -0.4911
10386TIP3    H152649   1.849   3.832  14.557  0.8295 -0.6719 -1.2770
10386TIP3    H252650   1.948   3.935  14.508 -0.6022  0.9004 -0.9542
10387TIP3   OH252651   4.802   0.524  16.691 -0.3569 -0.3906 -0.9700
10387TIP3    H152652   4.795   0.470  16.612  0.1974 -0.1100 -1.2151
10387TIP3    H252653   4.895   0.544  16.698 -0.3977 -0.4390 -0.2233
10388TIP3   OH252654   5.977   0.176  16.623 -0.7280 -0.3265  0.2514
10388TIP3    H152655   6.004   0.238  16.690 -4.5120  1.0608  0.7500
10388TIP3    H252656   5.961   0.094  16.670  2.1131 -1.1512 -0.0456
10389TIP3   OH252657   5.002   0.225  16.014  0.2812  0.2084  0.4505
10389TIP3    H152658   4.928   0.171  15.988  1.2274  0.2948 -2.7952
10389TIP3    H252659   5.037   0.181  16.092 -1.2314 -1.6670  0.1551
10390TIP3   OH252660   1.993   0.848   6.154 -0.2447  0.2097 -0.1390
10390TIP3    H152661   2.003   0.803   6.238 -2.0777  0.2865  0.1749
10390TIP3    H252662   1.951   0.783   6.098  0.0493  0.4857 -0.6763
10391TIP3   OH252663   4.108   4.622   4.135 -0.2619  0.2816  0.4107
10391TIP3    H152664   4.199   4.645   4.114 -0.0923 -0.0450  0.7940
10391TIP3    H252665   4.100   4.530   4.108 -0.6904  0.5169 -0.2998
10392TIP3   OH252666   4.238   5.277   4.018 -0.3505 -0.2999  0.0606
10392TIP3    H152667   4.248   5.366   4.052 -2.5079  0.2390 -0.5567
10392TIP3    H252668   4.186   5.232   4.085 -1.7326 -0.2165 -0.9123
10393TIP3   OH252669   2.195   2.836  12.496 -0.0163 -0.7596 -0.3101
10393TIP3    H152670   2.262   2.861  12.432 -0.5711  2.2452  0.1685
10393TIP3    H252671   2.245   2.800  12.569  1.1562  1.3967  0.0255
10394TIP3   OH252672   2.507   2.075   2.129 -0.2337 -0.3525 -0.5144
10394TIP3    H152673   2.555   2.141   2.180 -1.8571  0.0246  0.6038
10394TIP3    H252674   2.499   2.000   2.188 -0.7801 -0.5059 -0.7758
10395TIP3   OH252675   2.394   6.451   3.132 -0.2227 -0.6679 -0.1768
10395TIP3    H152676   2.368   6.481   3.219  0.5576  1.4101 -0.5985
10395TIP3    H252677   2.473   6.399   3.146 -0.3069 -0.6414  0.3937
10396TIP3   OH252678   2.111   3.106  12.246 -0.0920 -0.1332 -0.1334
10396TIP3    H152679   2.115   3.185  12.301 -0.4680 -0.4789  0.3980
10396TIP3    H252680   2.184   3.052  12.278  0.0564 -0.0817 -0.3800
10397TIP3   OH252681   6.509   0.786  12.720 -0.4973  0.0340  0.1729
10397TIP3    H152682   6.460   0.864  12.693 -2.2144 -1.2115 -0.5298
10397TIP3    H252683   6.505   0.727  12.644 -0.6262 -1.3496  1.2070
10398TIP3   OH252684   1.225   2.308  12.745  0.3479 -0.4855 -0.3835
10398TIP3    H152685   1.219   2.365  12.822 -0.9832 -1.1095  0.0102
10398TIP3    H252686   1.315   2.274  12.747  0.5564  0.0798  0.4703
10399TIP3   OH252687   2.836   2.339  11.427  0.1993  0.0383  0.0906
10399TIP3    H152688   2.879   2.337  11.341  0.5298 -2.1349  0.2635
10399TIP3    H252689   2.908   2.340  11.490 -0.0464  1.0586  0.3768
10400TIP3   OH252690   2.025   0.190   2.864 -0.3803  0.3886 -0.5188
10400TIP3    H152691   2.096   0.148   2.912 -0.5136  2.4940  1.6920
10400TIP3    H252692   1.947   0.141   2.888 -0.2214  0.4910  0.2220
10401TIP3   OH252693   1.328   0.202   5.999 -0.1416 -0.3055 -0.4943
10401TIP3    H152694   1.300   0.249   5.921 -1.0895  0.3402  0.2054
10401TIP3    H252695   1.386   0.263   6.045  0.8520 -0.8864 -0.9402
10402TIP3   OH252696   4.740   5.190  12.106  0.4205 -0.0011  0.0087
10402TIP3    H152697   4.679   5.118  12.088  2.3843 -1.8614  0.2944
10402TIP3    H252698   4.685   5.268  12.111 -1.6808 -1.2763 -1.5742
10403TIP3   OH252699   4.837   2.249  16.005 -0.1186 -0.4238 -0.0345
10403TIP3    H152700   4.828   2.252  16.100  0.7029 -0.4197  0.0556
10403TIP3    H252701   4.766   2.193  15.975 -1.5839  1.1259  0.4003
10404TIP3   OH252702   2.334   4.034   3.244 -0.1646  0.3949  0.2607
10404TIP3    H152703   2.292   3.949   3.254  0.2051  0.2481  0.6082
10404TIP3    H252704   2.416   4.027   3.294 -0.1567  0.9697  0.3417
10405TIP3   OH252705   3.824   3.117  14.171  0.1538 -0.0008  0.2383
10405TIP3    H152706   3.852   3.041  14.120  0.1707 -1.1663  1.9092
10405TIP3    H252707   3.853   3.193  14.119  2.4249 -1.1217 -0.2525
10406TIP3   OH252708   5.725   4.358   1.522 -0.1752  0.1294  0.4966
10406TIP3    H152709   5.686   4.358   1.435  0.6428  2.1570  0.0744
10406TIP3    H252710   5.755   4.448   1.535  2.8338 -0.8849  1.4475
10407TIP3   OH252711   5.647   3.233  12.920 -0.2508  0.4828 -0.0437
10407TIP3    H152712   5.708   3.192  12.981  0.7627  2.0979  0.1056
10407TIP3    H252713   5.571   3.256  12.973 -0.5548 -0.5548 -0.0005
10408TIP3   OH252714   3.130   2.234   2.213  0.7137 -0.5340 -0.0555
10408TIP3    H152715   3.083   2.206   2.134  0.8204  0.5701 -0.5301
10408TIP3    H252716   3.218   2.198   2.203  1.0072  0.3766 -0.9170
10409TIP3   OH252717   1.082   5.814   2.544 -0.5383  0.0921 -0.2156
10409TIP3    H152718   1.041   5.889   2.587 -0.2100  0.5091 -0.6161
10409TIP3    H252719   1.144   5.780   2.609  1.2102  1.7590 -0.9032
10410TIP3   OH252720   1.841   2.758   1.602  0.4163 -0.1783 -0.1923
10410TIP3    H152721   1.756   2.797   1.585 -0.2193 -1.6950 -0.6185
10410TIP3    H252722   1.904   2.828   1.585 -0.7970  1.7066  2.3323
10411TIP3   OH252723   6.631   4.581  12.868  0.7159 -0.6065  0.3480
10411TIP3    H152724   6.701   4.519  12.849 -0.0055 -2.0783  2.1297
10411TIP3    H252725   6.608   4.563  12.959 -2.5435 -0.7891 -0.3947
10412TIP3   OH252726   6.046   6.390  13.572 -0.2329  0.0835  0.2406
10412TIP3    H152727   6.033   6.356  13.661  0.2240  1.6827  0.9597
10412TIP3    H252728   6.090   6.474  13.585  0.4714  0.0363 -1.5490
10413TIP3   OH252729   1.376   5.935  11.819 -0.1609 -0.4585 -0.3721
10413TIP3    H152730   1.416   5.851  11.843 -1.3746 -0.7055  0.9327
10413TIP3    H252731   1.303   5.911  11.761 -1.5694 -0.4962  1.3549
10414TIP3   OH252732   0.138   2.032   3.745 -0.7123 -0.3027 -0.0488
10414TIP3    H152733   0.144   1.968   3.675  2.1099 -1.2682  0.9740
10414TIP3    H252734   0.049   2.021   3.780 -1.0749 -2.0045 -1.4016
10415TIP3   OH252735   3.225   3.523  13.982  0.0200  0.2045 -0.4509
10415TIP3    H152736   3.168   3.448  13.967  0.9280 -0.3256 -1.4049
10415TIP3    H252737   3.309   3.497  13.944  0.6478  1.3028  0.1347
10416TIP3   OH252738   2.674   4.954  13.808 -0.1406 -0.4560 -0.2087
10416TIP3    H152739   2.605   4.965  13.874 -0.3845 -0.2117 -0.5071
10416TIP3    H252740   2.649   5.011  13.736  1.2221  0.8934  0.3452
10417TIP3   OH252741   6.052   2.126   1.964  0.0345 -0.1150  0.3356
10417TIP3    H152742   6.024   2.105   2.053  0.9223  0.1132  0.6771
10417TIP3    H252743   6.103   2.050   1.936 -0.2513 -0.1911  0.0140
10418TIP3   OH252744   4.174   5.900  11.334 -0.7790 -0.3968 -0.0203
10418TIP3    H152745   4.129   5.911  11.250  0.1827 -0.1840 -0.5206
10418TIP3    H252746   4.113   5.849  11.388 -1.5972 -0.1405 -0.6886
10419TIP3   OH252747   5.705   1.596   2.397  0.2580 -0.7307  0.0973
10419TIP3    H152748   5.609   1.601   2.392  0.1042 -1.4601  1.6221
10419TIP3    H252749   5.735   1.632   2.314 -1.3436 -0.6286 -0.4833
10420TIP3   OH252750   1.504   5.664  14.240  0.2001 -0.0507  0.1647
10420TIP3    H152751   1.580   5.671  14.297 -1.5416  0.8945  2.5155
10420TIP3    H252752   1.511   5.739  14.180  0.1804  1.1385  1.6100
10421TIP3   OH252753   6.594   6.720   5.924  0.8632  0.2356  0.5909
10421TIP3    H152754   6.587   6.651   5.858  1.6180 -0.9303  1.6655
10421TIP3    H252755   6.657   6.685   5.987 -0.4600  0.9298  2.3697
10422TIP3   OH252756   2.039   0.146  15.540  0.5333  0.6664  0.0779
10422TIP3    H152757   2.037   0.197  15.621  2.3370  0.3765  0.3674
10422TIP3    H252758   2.131   0.150  15.512  0.5315 -1.4938 -0.4493
10423TIP3   OH252759   4.135   1.226   5.307 -0.6961  0.2336  0.3392
10423TIP3    H152760   4.195   1.154   5.288 -0.9705  0.2391 -0.5803
10423TIP3    H252761   4.054   1.202   5.262  0.2087  2.6876 -2.9583
10424TIP3   OH252762   2.567   1.697   2.624  0.3776  0.5632  0.1342
10424TIP3    H152763   2.623   1.747   2.566 -1.6935  1.0845 -1.5201
10424TIP3    H252764   2.483   1.693   2.579 -0.0198 -3.1007  0.8906
10425TIP3   OH252765   3.881   0.935  16.826 -0.2284  0.9082  0.1746
10425TIP3    H152766   3.938   0.929  16.902  0.9841  0.8799 -0.6969
10425TIP3    H252767   3.840   0.849  16.820 -1.0995  1.2191  1.3442
10426TIP3   OH252768   2.441   1.141   6.494  0.2425 -0.0759  0.2088
10426TIP3    H152769   2.507   1.118   6.559  2.3045  1.0401 -1.3538
10426TIP3    H252770   2.470   1.096   6.414 -2.4076 -1.7070  0.0464
10427TIP3   OH252771   5.093   6.536  11.055 -0.0781 -0.6173  0.7209
10427TIP3    H152772   5.021   6.474  11.069  0.8398 -1.2702  2.8934
10427TIP3    H252773   5.052   6.622  11.054 -1.2514 -1.1298 -1.3675
10428TIP3   OH252774   3.652   1.335  12.318 -0.1042  0.4008  0.0688
10428TIP3    H152775   3.691   1.359  12.233 -1.3185 -3.1739 -1.6677
10428TIP3    H252776   3.724   1.292  12.366 -0.8875 -3.8725 -2.1185
10429TIP3   OH252777   4.227   5.846   1.875  0.3790 -0.0968 -0.0828
10429TIP3    H152778   4.266   5.797   1.803  1.3445  0.5248 -0.0053
10429TIP3    H252779   4.150   5.796   1.899  1.4789 -1.7400  0.1926
10430TIP3   OH252780   6.495   6.263  13.841  0.0368  0.0346 -0.1644
10430TIP3    H152781   6.577   6.310  13.856  0.3789 -0.7884  0.6516
10430TIP3    H252782   6.427   6.322  13.873  0.4653 -0.0282  0.8797
10431TIP3   OH252783   6.350   2.997  15.506 -0.0120  0.2592 -0.3692
10431TIP3    H152784   6.346   2.902  15.512  3.3667  0.0626  1.5702
10431TIP3    H252785   6.437   3.015  15.470 -0.3074  2.6001 -0.0847
10432TIP3   OH252786   4.761   3.507  15.663 -0.3627 -0.3709  0.3249
10432TIP3    H152787   4.839   3.461  15.692 -1.2260 -1.6179  0.7277
10432TIP3    H252788   4.761   3.496  15.568 -0.6830 -1.4223  0.4361
10433TIP3   OH252789   5.520   0.075   1.755 -0.1386 -0.4661  0.2995
10433TIP3    H152790   5.517   0.158   1.707  0.5181 -0.0525  0.9605
10433TIP3    H252791   5.464   0.016   1.704 -1.4275  0.6594  0.3630
10434TIP3   OH252792   4.390   0.128  12.689 -0.1847  0.6402  0.0766
10434TIP3    H152793   4.456   0.110  12.756  1.2114 -1.2989 -1.7047
10434TIP3    H252794   4.428   0.095  12.608 -2.4610  1.4694 -1.4317
10435TIP3   OH252795   3.392   2.208   2.232  0.4827  0.5273  0.1776
10435TIP3    H152796   3.412   2.299   2.208 -0.0064  0.3357 -1.0544
10435TIP3    H252797   3.464   2.181   2.288  1.8468  0.9488 -1.3190
10436TIP3   OH252798   0.634   5.508   4.814 -0.0537  0.1618 -0.2259
10436TIP3    H152799   0.589   5.465   4.741 -1.1069 -1.3252  1.2512
10436TIP3    H252800   0.583   5.485   4.891 -0.7991  4.2332  0.7081
10437TIP3   OH252801   0.989   3.387  12.851  0.2001 -0.2772  0.1855
10437TIP3    H152802   0.944   3.454  12.902  1.8579  1.3074 -0.3102
10437TIP3    H252803   1.060   3.357  12.907 -0.1150 -1.1517  0.1365
10438TIP3   OH252804   5.361   1.943  16.915  0.4270  0.8888  0.8087
10438TIP3    H152805   5.442   1.895  16.934 -0.0859  0.5969  2.3646
10438TIP3    H252806   5.357   2.012  16.980 -1.0961  0.2465  1.4456
10439TIP3   OH252807   3.642   6.035  11.111  0.1299  0.3075  0.5039
10439TIP3    H152808   3.589   5.959  11.131  0.9213 -0.2962  0.3613
10439TIP3    H252809   3.638   6.043  11.015  1.0330 -0.2999  0.4063
10440TIP3   OH252810   0.865   2.845   1.624 -0.2640  0.6338  0.5404
10440TIP3    H152811   0.864   2.865   1.718 -2.4143 -0.0944  0.7345
10440TIP3    H252812   0.816   2.762   1.617 -1.5021  1.4616 -1.3599
10441TIP3   OH252813   5.301   3.293   0.276  0.1742 -0.6801 -0.3403
10441TIP3    H152814   5.267   3.228   0.338 -0.5455 -0.4516 -0.4801
10441TIP3    H252815   5.340   3.240   0.206  0.8196 -0.9408  0.1989
10442TIP3   OH252816   4.386   5.839   3.904 -0.0202 -0.1924 -0.7222
10442TIP3    H152817   4.416   5.902   3.839 -0.1050  0.3798 -0.2190
10442TIP3    H252818   4.385   5.888   3.986 -3.4080  0.2127 -0.8695
10443TIP3   OH252819   2.291   3.823   1.724  0.6530  0.1411 -0.0649
10443TIP3    H152820   2.291   3.763   1.649 -1.5622 -0.3439  0.2596
10443TIP3    H252821   2.381   3.821   1.756  0.5237 -3.9157  0.6054
10444TIP3   OH252822   5.667   2.271   2.096 -0.1636  0.0352  0.2588
10444TIP3    H152823   5.653   2.192   2.148 -2.1975  0.1822  0.0132
10444TIP3    H252824   5.592   2.274   2.036  0.9797  1.0317 -1.2004
10445TIP3   OH252825   1.733   0.882  16.419  0.0303  0.5726  0.1958
10445TIP3    H152826   1.810   0.909  16.369  0.7589 -1.4284  0.1313
10445TIP3    H252827   1.667   0.948  16.399  1.4457  1.8555 -0.4487
10446TIP3   OH252828   0.528   5.613   1.756  0.7600 -0.0473 -0.5735
10446TIP3    H152829   0.487   5.543   1.807 -1.0426  1.0873 -0.3670
10446TIP3    H252830   0.523   5.690   1.813 -1.4076  1.2880 -2.4034
10447TIP3   OH252831   1.110   4.248  13.681 -0.4141  0.4023  0.1252
10447TIP3    H152832   1.172   4.243  13.609  0.1453 -1.3794  0.6805
10447TIP3    H252833   1.161   4.278  13.756 -0.6598  0.8018  0.1372
10448TIP3   OH252834   6.090   1.290   5.047 -0.0048  0.3000 -0.6666
10448TIP3    H152835   6.099   1.335   4.963  1.7511 -1.2284 -1.3910
10448TIP3    H252836   6.083   1.360   5.111 -0.6369  1.5250 -2.0124
10449TIP3   OH252837   0.032   4.667  13.681 -0.1669  0.4460 -0.2807
10449TIP3    H152838   0.120   4.630  13.681  0.8276  2.6343 -0.4645
10449TIP3    H252839  -0.009   4.633  13.760  0.4951 -1.3036 -0.6442
10450TIP3   OH252840   4.299   4.215   5.095 -0.7174  0.3927  0.2736
10450TIP3    H152841   4.302   4.166   5.177 -1.5061 -0.1513 -0.0091
10450TIP3    H252842   4.311   4.306   5.120  1.0942  0.0611  0.7869
10451TIP3   OH252843   5.159   4.544  15.003  0.1360 -0.0366  0.1033
10451TIP3    H152844   5.192   4.620  14.955  2.1424 -1.1492 -0.3492
10451TIP3    H252845   5.107   4.495  14.939  0.6010 -0.1469 -0.1872
10452TIP3   OH252846   2.759   5.943   3.369  0.3493  0.2136 -0.0681
10452TIP3    H152847   2.829   5.884   3.397 -0.1380 -0.7646 -0.8328
10452TIP3    H252848   2.776   5.956   3.275  0.7666  1.7554  0.1933
10453TIP3   OH252849   1.106   3.334  12.600 -0.4964 -0.3333 -0.5099
10453TIP3    H152850   1.079   3.360  12.688  1.5033  0.1086  0.0357
10453TIP3    H252851   1.057   3.392  12.541  0.3854  1.5448  0.4876
10454TIP3   OH252852   0.192   5.056   5.543 -0.0207  0.1501  0.3683
10454TIP3    H152853   0.284   5.079   5.558 -0.0086 -0.5547  1.5373
10454TIP3    H252854   0.196   4.973   5.496 -0.0831  1.4231 -2.0915
10455TIP3   OH252855   2.870   6.719  15.668 -0.0180  0.1729 -0.2643
10455TIP3    H152856   2.865   6.815  15.668  0.6801  0.2286 -1.0839
10455TIP3    H252857   2.948   6.699  15.721 -0.4141  0.0320  0.2720
10456TIP3   OH252858   2.578   1.877   3.001 -0.0735 -0.1523 -0.0677
10456TIP3    H152859   2.651   1.910   2.949  1.5853 -2.9139  0.3271
10456TIP3    H252860   2.591   1.913   3.088 -0.1683  0.7179 -0.4082
10457TIP3   OH252861   6.063   1.034  15.898  0.4545 -0.7055 -0.0180
10457TIP3    H152862   6.146   1.006  15.859  0.2477 -0.9321 -0.2993
10457TIP3    H252863   6.000   0.967  15.872 -0.6421  1.2012 -2.8066
10458TIP3   OH252864   3.837   1.917   0.976  0.1443  0.0651  0.1602
10458TIP3    H152865   3.924   1.892   0.944  1.4545  3.3430  0.7559
10458TIP3    H252866   3.784   1.926   0.897  0.7034 -0.7645 -0.3225
10459TIP3   OH252867   6.224   4.348  12.765  0.0490  0.6583 -0.6104
10459TIP3    H152868   6.248   4.374  12.676 -3.5397 -2.1929 -2.6653
10459TIP3    H252869   6.137   4.384  12.777 -1.1890 -2.2940  0.0456
10460TIP3   OH252870   2.421   0.575  15.482 -0.2013 -0.4307 -0.6016
10460TIP3    H152871   2.383   0.525  15.410  0.6976 -0.1613 -1.2751
10460TIP3    H252872   2.408   0.519  15.559 -2.0328 -0.2904 -0.7858
10461TIP3   OH252873   4.751   1.765  15.495 -0.2172 -0.2295  0.1753
10461TIP3    H152874   4.675   1.738  15.547 -0.5067 -0.4937 -0.3651
10461TIP3    H252875   4.770   1.688  15.441  0.5242 -0.2080  0.4031
10462TIP3   OH252876   5.690   1.469   6.555  0.9054 -1.1248  0.7021
10462TIP3    H152877   5.773   1.449   6.512 -0.1435 -1.2844 -1.3831
10462TIP3    H252878   5.671   1.391   6.607  1.3978 -1.6587  0.0989
10463TIP3   OH252879   1.131   5.763  12.337 -0.4366 -0.2424  0.0637
10463TIP3    H152880   1.190   5.739  12.266  1.3065  1.9481  0.6693
10463TIP3    H252881   1.043   5.755  12.299  0.4360  0.7705 -2.3573
10464TIP3   OH252882   1.942   0.923   1.743  0.6050  0.1259  0.4679
10464TIP3    H152883   1.871   0.944   1.682 -0.4495 -1.5693  1.0358
10464TIP3    H252884   2.000   0.999   1.741 -1.6576  1.9228  0.6124
10465TIP3   OH252885   0.812   4.814  14.964 -0.4468  0.6216  0.1838
10465TIP3    H152886   0.822   4.720  14.951 -1.9161  0.4943 -0.1814
10465TIP3    H252887   0.877   4.853  14.906 -0.8268 -0.1494 -0.7824
10466TIP3   OH252888   1.519   5.529  12.786 -0.9336  0.4304  0.1257
10466TIP3    H152889   1.489   5.612  12.749  0.6137  0.5001 -1.0666
10466TIP3    H252890   1.599   5.551  12.833 -0.3656 -0.4041 -0.4115
10467TIP3   OH252891   3.340   6.315   4.384  0.2260  0.2213  0.7198
10467TIP3    H152892   3.276   6.249   4.359 -1.1848  0.8676  2.4351
10467TIP3    H252893   3.424   6.270   4.382 -0.5449 -1.2524  0.6096
10468TIP3   OH252894   6.126   3.746  16.901 -0.0488 -0.0072  0.1309
10468TIP3    H152895   6.132   3.817  16.964  0.9036  1.0624 -1.1148
10468TIP3    H252896   6.070   3.781  16.831 -1.7446 -1.4494  0.6769
10469TIP3   OH252897   1.609   1.453  12.641  0.1533 -0.6093  0.4195
10469TIP3    H152898   1.687   1.399  12.653  1.5592  1.0273 -0.8157
10469TIP3    H252899   1.616   1.522  12.708 -1.7119 -1.9073  2.1035
10470TIP3   OH252900   4.489   5.576  17.140  0.3923 -0.1219 -0.0131
10470TIP3    H152901   4.409   5.561  17.091  1.0224  1.1379 -1.5259
10470TIP3    H252902   4.486   5.513  17.212 -0.7970 -1.7259 -1.3928
10471TIP3   OH252903   2.861   0.881   5.104  0.3006  0.0724 -0.3996
10471TIP3    H152904   2.936   0.931   5.137  0.2795  1.4048 -2.2233
10471TIP3    H252905   2.787   0.940   5.115 -0.3893 -0.9593  0.7066
10472TIP3   OH252906   2.222   2.394  17.249 -0.7474  0.0132 -0.4028
10472TIP3    H152907   2.275   2.315  17.244  1.0594  1.0393  1.1833
10472TIP3    H252908   2.195   2.399  17.341 -1.9026  0.6079 -0.7457
10473TIP3   OH252909   0.285   2.922  12.068  0.4720  0.4692  0.2239
10473TIP3    H152910   0.324   3.009  12.060 -0.7661  0.9258 -1.5357
10473TIP3    H252911   0.208   2.934  12.123  0.9000  0.2488  0.8831
10474TIP3   OH252912   2.579   0.343  15.880 -0.2393  0.0405  0.4987
10474TIP3    H152913   2.568   0.426  15.836 -1.1638  1.0305  2.4760
10474TIP3    H252914   2.662   0.351  15.927 -0.4181 -0.0779  0.8411
10475TIP3   OH252915   5.902   0.399  13.015  0.4509 -0.2829  0.0926
10475TIP3    H152916   5.919   0.307  12.993  2.1522 -0.2099  0.9769
10475TIP3    H252917   5.977   0.426  13.067  0.0270  1.6599 -0.2251
10476TIP3   OH252918   1.319   3.384  11.357  0.3659 -0.3738  0.1626
10476TIP3    H152919   1.307   3.460  11.414  1.0726  0.2045 -0.4278
10476TIP3    H252920   1.382   3.329  11.403  0.2947 -0.3148  0.3300
10477TIP3   OH252921   6.228   2.550  14.478  0.2298  0.1276  0.1589
10477TIP3    H152922   6.265   2.475  14.433  0.0106  0.4017 -0.4889
10477TIP3    H252923   6.219   2.617  14.410  0.3673  0.7195  0.7126
10478TIP3   OH252924   0.554   5.817  15.753 -0.0334 -0.1557 -0.1150
10478TIP3    H152925   0.630   5.875  15.767  0.6823 -1.2770  0.8412
10478TIP3    H252926   0.590   5.729  15.763 -1.5132 -0.7034  0.5239
10479TIP3   OH252927   1.008   1.064  12.195 -0.4162  0.0685  0.7747
10479TIP3    H152928   0.979   1.062  12.104  0.3586  2.2037  0.4268
10479TIP3    H252929   1.098   1.031  12.192 -1.4637 -3.2063  1.3521
10480TIP3   OH252930   0.498   2.468   5.550 -0.3240 -0.3769 -0.4592
10480TIP3    H152931   0.566   2.402   5.559  1.5110  1.5175  0.6132
10480TIP3    H252932   0.461   2.478   5.638 -1.7757 -1.1139 -0.9519
10481TIP3   OH252933   1.537   0.605   0.393  0.2296 -0.7477 -0.0051
10481TIP3    H152934   1.550   0.660   0.317 -2.5406  0.5880  0.3425
10481TIP3    H252935   1.489   0.529   0.360  0.7685 -1.1353  0.0983
10482TIP3   OH252936   2.683   0.974  14.623  0.1319 -0.0424  0.2217
10482TIP3    H152937   2.604   0.990  14.571  0.2333  0.3719  0.1872
10482TIP3    H252938   2.689   0.879  14.630 -0.2049 -0.0837 -0.0305
10483TIP3   OH252939   2.681   5.586   1.123 -0.0454 -1.3787  0.6889
10483TIP3    H152940   2.675   5.634   1.205  0.0778  0.0854 -0.1385
10483TIP3    H252941   2.593   5.589   1.087 -0.0478 -1.8264  0.6461
10484TIP3   OH252942   4.074   5.486  14.214  0.2065 -0.5663  0.4695
10484TIP3    H152943   3.980   5.490  14.231 -0.0156  1.2163 -0.9283
10484TIP3    H252944   4.084   5.414  14.152 -0.0918 -1.3114  1.2599
10485TIP3   OH252945   2.862   2.257  14.807 -0.1724 -0.3895  1.1131
10485TIP3    H152946   2.813   2.280  14.728  1.7090  2.8584  0.7374
10485TIP3    H252947   2.926   2.192  14.778 -0.8513 -0.7903  0.4788
10486TIP3   OH252948   1.018   5.423  14.937 -0.4452  0.3816  0.4364
10486TIP3    H152949   1.018   5.394  14.846 -1.1478 -0.1578  0.6033
10486TIP3    H252950   1.102   5.392  14.972 -0.5008 -0.0721  0.1764
10487TIP3   OH252951   2.197   3.373  15.952  0.2247 -0.1572 -0.3333
10487TIP3    H152952   2.141   3.399  16.026  0.8232 -1.1211  0.4755
10487TIP3    H252953   2.248   3.452  15.933 -0.5234  0.3587 -0.2794
10488TIP3   OH252954   0.224   4.971  14.330 -0.3938 -0.2584 -0.2508
10488TIP3    H152955   0.210   4.999  14.239  0.8768 -1.1565 -0.7398
10488TIP3    H252956   0.309   5.008  14.354 -0.6474 -0.1638  0.5285
10489TIP3   OH252957   2.667   6.291   3.811 -0.1590  0.5634 -0.1784
10489TIP3    H152958   2.729   6.222   3.792 -0.0688  0.7938 -0.7288
10489TIP3    H252959   2.591   6.246   3.848  0.3549  0.2878  0.5754
10490TIP3   OH252960   2.898   4.775  11.906  0.1625 -0.4135  0.0260
10490TIP3    H152961   2.866   4.742  11.822  0.1981  0.5238 -0.3660
10490TIP3    H252962   2.822   4.773  11.964  0.2408 -1.4697  0.1038
10491TIP3   OH252963   4.574   5.785   5.986  0.4987  0.1191 -0.3973
10491TIP3    H152964   4.523   5.770   6.066 -0.8318  0.6256 -1.1078
10491TIP3    H252965   4.599   5.877   5.991 -1.9036  0.9533 -1.7495
10492TIP3   OH252966   0.179   0.129  14.646 -0.2414 -0.1987  0.1412
10492TIP3    H152967   0.225   0.175  14.575 -0.4853 -2.1524 -1.3961
10492TIP3    H252968   0.202   0.177  14.725  1.2495  1.2227 -1.0823
10493TIP3   OH252969   4.600   3.537   3.535 -0.2738  0.4977 -0.0434
10493TIP3    H152970   4.574   3.453   3.496 -0.0977  0.8602 -0.9657
10493TIP3    H252971   4.643   3.513   3.617 -1.8858 -0.2080  0.6296
10494TIP3   OH252972   2.595   3.232  11.921  0.8110  0.5565 -0.2052
10494TIP3    H152973   2.676   3.198  11.882  0.7919  1.5629 -1.1631
10494TIP3    H252974   2.615   3.323  11.943 -0.0207  0.7737 -0.3115
10495TIP3   OH252975   2.688   3.726   4.644 -0.0611 -0.0775  0.2538
10495TIP3    H152976   2.747   3.708   4.571  0.8558  0.3294  0.8774
10495TIP3    H252977   2.600   3.712   4.608  0.4242 -1.2937 -0.5174
10496TIP3   OH252978   3.739   3.904   3.637  0.4184  0.2665  0.1797
10496TIP3    H152979   3.814   3.962   3.625 -0.5140  1.5767  0.3679
10496TIP3    H252980   3.674   3.937   3.574  0.4119 -1.6060 -0.8569
10497TIP3   OH252981   5.142   6.716  16.715  0.1301  0.4399 -0.2807
10497TIP3    H152982   5.083   6.790  16.713  0.5103  0.7986  0.9228
10497TIP3    H252983   5.227   6.752  16.691  0.2230  0.3004 -0.1659
10498TIP3   OH252984   3.385   0.835  14.941 -0.5910 -0.3714 -0.1402
10498TIP3    H152985   3.337   0.794  14.870  0.5624 -2.1930  0.0493
10498TIP3    H252986   3.318   0.860  15.005 -1.3362 -2.9221  0.1704
10499TIP3   OH252987   6.596   4.790  13.860  0.4075 -0.1957 -0.0334
10499TIP3    H152988   6.660   4.818  13.926 -0.3690  0.0449  0.6407
10499TIP3    H252989   6.552   4.715  13.901 -0.4196  0.2649 -0.0624
10500TIP3   OH252990   2.340   4.757  10.603 -0.6226  0.4546  0.4083
10500TIP3    H152991   2.436   4.764  10.605 -0.5682 -0.2434  1.9862
10500TIP3    H252992   2.313   4.815  10.532  0.9675  0.7121 -0.0274
10501TIP3   OH252993   5.807   0.898  16.240  0.1487 -0.2285  0.0950
10501TIP3    H152994   5.796   0.836  16.168  1.1913 -1.6465  1.1100
10501TIP3    H252995   5.742   0.871  16.305  0.5639 -0.2355  0.5143
10502TIP3   OH252996   4.441   0.875   4.302  0.6501 -0.3653 -0.2675
10502TIP3    H152997   4.464   0.967   4.288 -0.0159  0.0390  1.1464
10502TIP3    H252998   4.458   0.834   4.217  0.9608  1.0510 -0.9366
10503TIP3   OH252999   6.145   1.523   2.998  0.3274  0.1930  0.2097
10503TIP3    H153000   6.157   1.590   3.065  1.1478  0.5001 -0.2242
10503TIP3    H253001   6.141   1.572   2.916  2.2704 -0.3460 -0.2501
10504TIP3   OH253002   6.211   5.294  15.229 -0.3228  0.4019  0.0904
10504TIP3    H153003   6.293   5.259  15.263 -1.0218  0.5269  2.0803
10504TIP3    H253004   6.163   5.218  15.197  0.5047  0.3207 -1.0137
10505TIP3   OH253005   3.310   1.707  14.804 -0.4836 -0.0080 -0.1303
10505TIP3    H153006   3.242   1.691  14.869  0.0827  0.3391  0.5686
10505TIP3    H253007   3.358   1.783  14.838  1.2160 -1.1838  0.2074
10506TIP3   OH253008   5.092   4.966   1.232 -0.1032  0.1642 -0.3740
10506TIP3    H153009   5.058   4.904   1.168 -1.5578  0.6707 -0.1213
10506TIP3    H253010   5.162   5.013   1.185 -0.7714  0.1434 -1.4113
10507TIP3   OH253011   6.767   0.664   1.057 -0.4563  0.6475  0.1521
10507TIP3    H153012   6.846   0.718   1.068  0.3641 -0.7039  1.1726
10507TIP3    H253013   6.715   0.682   1.135 -0.0161 -0.2790  0.6694
10508TIP3   OH253014   5.971   1.518   1.472 -0.9711  0.1684  0.3739
10508TIP3    H153015   5.975   1.423   1.478 -1.2250  0.1864  0.8407
10508TIP3    H253016   5.968   1.536   1.378 -1.5745 -0.3045  0.3026
10509TIP3   OH253017   1.737   0.645   5.044 -0.3250  0.0694 -0.6087
10509TIP3    H153018   1.724   0.561   5.001 -1.5351 -0.6834  1.1191
10509TIP3    H253019   1.703   0.632   5.133 -1.0970  2.5358 -0.4625
10510TIP3   OH253020   1.555   2.952   2.417  0.4591  0.4792  0.1671
10510TIP3    H153021   1.633   2.979   2.465  0.2356  0.4075  0.5736
10510TIP3    H253022   1.503   2.903   2.481  0.3347  0.0604 -0.2526
10511TIP3   OH253023   3.647   1.663   1.938  0.1714  0.4104 -0.1883
10511TIP3    H153024   3.551   1.657   1.935  0.2202 -0.5336 -0.1299
10511TIP3    H253025   3.672   1.692   1.850 -0.1911  1.1722 -0.0520
10512TIP3   OH253026   1.057   2.911  16.554  0.1177 -0.4016 -0.1649
10512TIP3    H153027   1.143   2.871  16.540  0.0994 -0.7133  0.5246
10512TIP3    H253028   1.043   2.903  16.649 -0.7193 -0.4607 -0.2860
10513TIP3   OH253029   6.327   2.640  16.951 -0.2910  0.4808 -0.2638
10513TIP3    H153030   6.354   2.643  16.859 -0.0974  2.1447 -0.1808
10513TIP3    H253031   6.231   2.633  16.947 -0.1655 -1.8616 -0.5507
10514TIP3   OH253032   4.130   1.339  17.034  0.2594  0.3724 -0.1977
10514TIP3    H153033   4.088   1.378  17.111  0.2118  1.3353 -0.6904
10514TIP3    H253034   4.078   1.262  17.013  1.1074 -0.7546  1.5934
10515TIP3   OH253035   4.624   5.452  15.322  0.5112 -0.0148 -0.4256
10515TIP3    H153036   4.620   5.530  15.266 -1.8369 -1.0448 -1.8898
10515TIP3    H253037   4.680   5.391  15.274 -0.3830 -0.4034 -0.9962
10516TIP3   OH253038   4.366   0.926  12.859 -0.1796  0.0088 -0.6584
10516TIP3    H153039   4.346   0.956  12.947  1.3860  0.0474 -0.2926
10516TIP3    H253040   4.348   0.832  12.860  1.7084 -0.3836  0.3195
10517TIP3   OH253041   5.395   0.043   4.497  0.0528  0.1427 -0.2462
10517TIP3    H153042   5.320   0.016   4.549 -0.6216  1.4564 -0.5064
10517TIP3    H253043   5.372   0.017   4.407  1.9669 -3.7767  0.1693
10518TIP3   OH253044   2.536   6.213  13.425  0.3940 -0.7390  0.1505
10518TIP3    H153045   2.450   6.247  13.449  0.3711 -1.2969  0.8881
10518TIP3    H253046   2.578   6.192  13.508  0.6657 -1.8564 -0.2513
10519TIP3   OH253047   0.867   0.195   5.013  0.1930 -0.0433  0.7475
10519TIP3    H153048   0.933   0.218   4.947 -2.2862 -0.3861 -2.0836
10519TIP3    H253049   0.909   0.128   5.066  1.2668 -2.5630 -2.8780
10520TIP3   OH253050   4.704   6.263  11.329  0.4283  0.1858 -0.0586
10520TIP3    H153051   4.733   6.348  11.295 -0.2472  0.2166 -0.5641
10520TIP3    H253052   4.631   6.285  11.387  0.9171  0.0359  0.6288
10521TIP3   OH253053   4.425   2.362  11.654 -0.0791  0.0648  0.1620
10521TIP3    H153054   4.395   2.414  11.729 -2.6762 -2.7552  1.2917
10521TIP3    H253055   4.349   2.357  11.597  0.7561 -0.8102 -0.9179
10522TIP3   OH253056   6.002   6.317   6.799 -0.0277  0.2287  0.5044
10522TIP3    H153057   5.963   6.386   6.745  1.0738 -0.0050 -0.6316
10522TIP3    H253058   5.928   6.263   6.825 -0.8423  1.5044  0.9545
10523TIP3   OH253059   5.512   6.032  11.087  0.3516 -0.3740 -0.3149
10523TIP3    H153060   5.496   5.999  10.998 -0.0446  2.5113 -1.4301
10523TIP3    H253061   5.436   6.088  11.106  1.3064  0.5173  1.0591
10524TIP3   OH253062   5.863   5.888   3.347 -0.3640  0.1323 -0.6483
10524TIP3    H153063   5.835   5.906   3.436  1.0168  0.6481 -0.2857
10524TIP3    H253064   5.806   5.942   3.292 -1.6609 -0.6892 -0.1575
10525TIP3   OH253065   0.280   0.632  15.300  0.3453  0.5114  0.1151
10525TIP3    H153066   0.190   0.666  15.300  0.3137  0.4544 -0.6861
10525TIP3    H253067   0.269   0.537  15.312  0.3607  0.6176  1.0272
10526TIP3   OH253068   3.079   0.177  11.493 -0.0210 -0.4897  0.1515
10526TIP3    H153069   3.045   0.233  11.423  1.5727 -1.6188 -1.6401
10526TIP3    H253070   3.009   0.114  11.509 -0.6874  0.2240  0.1007
10527TIP3   OH253071   4.719   5.147   1.627 -0.0259 -0.3953 -0.2431
10527TIP3    H153072   4.673   5.135   1.710  0.3870  0.0127  0.0498
10527TIP3    H253073   4.677   5.085   1.568 -0.5109 -0.4953  0.1931
10528TIP3   OH253074   2.813   2.839   2.720 -0.2273  0.4294 -0.3729
10528TIP3    H153075   2.883   2.822   2.658  1.3072 -0.2023  1.4318
10528TIP3    H253076   2.740   2.786   2.689  0.9097 -0.8739 -0.9239
10529TIP3   OH253077   5.281   0.743  15.559 -0.4327  0.0887  0.4017
10529TIP3    H153078   5.186   0.753  15.555 -0.1942  2.9072 -0.4648
10529TIP3    H253079   5.298   0.708  15.646 -2.2848 -1.4367  0.2004
10530TIP3   OH253080   4.516   2.127   1.257 -0.3179 -0.5799  0.8250
10530TIP3    H153081   4.588   2.187   1.279 -1.2656  0.4709  1.1984
10530TIP3    H253082   4.523   2.116   1.163 -2.0024  2.8024  0.1278
10531TIP3   OH253083   1.934   6.518   1.439 -0.0606 -0.7591  0.0576
10531TIP3    H153084   1.874   6.538   1.367  2.3334  1.9980 -1.4224
10531TIP3    H253085   1.911   6.579   1.508 -1.0948 -2.0748  0.9245
10532TIP3   OH253086   5.246   1.922   6.421 -0.2871 -0.2435  0.2145
10532TIP3    H153087   5.310   1.965   6.477 -0.5047  1.9948 -1.1507
10532TIP3    H253088   5.161   1.943   6.459 -0.3519 -0.3672  0.1410
10533TIP3   OH253089   0.406   5.089   5.351 -0.0615  0.1414  0.5102
10533TIP3    H153090   0.438   5.019   5.407  1.0201 -0.8177 -1.2319
10533TIP3    H253091   0.472   5.158   5.357 -0.0175  0.0966  0.5281
10534TIP3   OH253092   3.037   3.842  16.196 -0.1346  1.0083 -0.4115
10534TIP3    H153093   2.992   3.902  16.255  1.1891  1.0318  0.6328
10534TIP3    H253094   3.126   3.837  16.231  0.0648 -0.7826 -1.0717
10535TIP3   OH253095   1.289   6.367  16.126  0.6789  0.1358  0.1798
10535TIP3    H153096   1.215   6.306  16.115 -0.2539  1.2111  0.3020
10535TIP3    H253097   1.301   6.407  16.041  0.4564  0.7015  0.4124
10536TIP3   OH253098   3.259   5.487   3.717 -0.5112 -0.2738  0.0010
10536TIP3    H153099   3.301   5.476   3.632 -0.3443  0.3680 -0.0034
10536TIP3    H253100   3.321   5.540   3.768 -1.7432  1.5790 -0.3408
10537TIP3   OH253101   5.606   5.762   3.880  0.3184  0.2720  0.0013
10537TIP3    H153102   5.594   5.802   3.966 -0.6730  0.1147 -0.0528
10537TIP3    H253103   5.564   5.823   3.819  0.4467  0.0667 -0.2945
10538TIP3   OH253104   3.314   1.112  16.944 -0.3616 -0.0258 -0.6483
10538TIP3    H153105   3.408   1.123  16.930 -0.5334  0.0429 -1.8502
10538TIP3    H253106   3.306   1.026  16.985  0.2059 -0.1438 -0.7763
10539TIP3   OH253107   4.883   5.564  16.491 -0.1010 -0.1978 -0.1157
10539TIP3    H153108   4.791   5.538  16.491 -0.9896  2.6114  0.6093
10539TIP3    H253109   4.921   5.516  16.565 -0.8656 -1.6264 -0.6145
10540TIP3   OH253110   3.455   2.845  11.393  0.1891  0.2758  0.5224
10540TIP3    H153111   3.368   2.805  11.395  0.0439  0.5901  1.7355
10540TIP3    H253112   3.513   2.777  11.360 -0.4282 -0.1275  0.2565
10541TIP3   OH253113   2.952   2.555   0.042  0.0793 -0.0221 -0.2964
10541TIP3    H153114   2.943   2.564  -0.053 -0.3094 -0.8333 -0.3441
10541TIP3    H253115   3.046   2.562   0.058  0.2201 -0.6095 -0.8265
10542TIP3   OH253116   4.363   4.104   3.313 -0.2367  0.3247 -0.0730
10542TIP3    H153117   4.418   4.179   3.334  1.1948 -0.6108 -0.3337
10542TIP3    H253118   4.360   4.101   3.218 -0.8710  0.4419 -0.0648
10543TIP3   OH253119   3.193   2.665   1.800  0.3303  0.5871  0.3522
10543TIP3    H153120   3.131   2.689   1.731 -0.8336 -2.1923  0.2778
10543TIP3    H253121   3.138   2.632   1.871  1.6363 -1.4313  0.5216
10544TIP3   OH253122   2.269   6.515   0.689 -0.6774 -0.5007 -0.6243
10544TIP3    H153123   2.226   6.449   0.743  0.4969 -1.4819 -0.8475
10544TIP3    H253124   2.328   6.561   0.750 -1.8591  0.7286 -0.3541
10545TIP3   OH253125   5.424   5.561   0.722  0.1392 -0.1400  0.3723
10545TIP3    H153126   5.411   5.477   0.678  0.1572  0.2293 -0.3648
10545TIP3    H253127   5.339   5.581   0.760 -0.5700  0.6159 -1.4717
10546TIP3   OH253128   2.496   5.553   5.097  0.5105 -0.1696  0.5083
10546TIP3    H153129   2.580   5.509   5.112  0.7950 -0.3627 -1.4127
10546TIP3    H253130   2.431   5.482   5.100  0.7262 -0.4169 -0.5567
10547TIP3   OH253131   2.661   4.271   1.491 -0.0617 -0.4309  0.0885
10547TIP3    H153132   2.670   4.342   1.427 -0.8511  0.6901  1.1877
10547TIP3    H253133   2.748   4.231   1.494  0.9997  1.7845  0.9201
10548TIP3   OH253134   5.947   0.109   3.897 -0.2314  0.7846  0.6445
10548TIP3    H153135   6.006   0.146   3.963  0.0275  1.0076  0.2907
10548TIP3    H253136   6.002   0.100   3.819 -1.2152  3.1451 -0.4053
10549TIP3   OH253137   5.396   3.983  15.225 -0.2950 -0.2102 -0.1621
10549TIP3    H153138   5.432   3.907  15.179 -0.7541 -1.4345  1.4148
10549TIP3    H253139   5.356   3.947  15.304 -1.6957  1.5373 -0.0043
10550TIP3   OH253140   5.921   4.395  15.516  0.4039 -0.8782  0.4900
10550TIP3    H153141   5.912   4.324  15.579  1.1100 -1.6456 -0.2360
10550TIP3    H253142   6.015   4.401  15.499  0.4215  0.6332  0.9639
10551TIP3   OH253143   2.766   4.654   4.675 -0.1513  0.2930  0.8734
10551TIP3    H153144   2.779   4.744   4.645 -1.2358  0.3134  0.4415
10551TIP3    H253145   2.769   4.602   4.595  1.1927 -0.1606  1.1891
10552TIP3   OH253146   5.763   3.754  13.110 -0.3707  0.5018 -0.3608
10552TIP3    H153147   5.836   3.757  13.049 -0.2067  0.0845 -0.1851
10552TIP3    H253148   5.788   3.688  13.175 -0.3117  1.2922  0.4539
10553TIP3   OH253149   3.540   1.890  14.459  0.3887  0.2846  0.2171
10553TIP3    H153150   3.459   1.841  14.442  0.3164 -0.6824  2.8642
10553TIP3    H253151   3.554   1.942  14.379 -0.4544 -2.7244 -2.0754
10554TIP3   OH253152   6.550   1.162  16.773 -0.0126  0.2982 -0.1375
10554TIP3    H153153   6.606   1.117  16.710 -0.0543  0.2975 -0.1739
10554TIP3    H253154   6.465   1.169  16.729 -0.1051  0.0926  0.0074
10555TIP3   OH253155   6.255   4.256  15.745 -0.1365 -0.0805 -0.6199
10555TIP3    H153156   6.264   4.171  15.702  1.8020 -0.9741  1.3346
10555TIP3    H253157   6.166   4.255  15.781 -0.2394 -1.1733 -0.8803
10556TIP3   OH253158   5.105   0.113  16.241 -0.2423  0.0195 -0.2041
10556TIP3    H153159   5.165   0.045  16.271 -0.1709 -0.0439 -0.4840
10556TIP3    H253160   5.018   0.082  16.265 -0.2680 -0.4961 -0.9290
10557TIP3   OH253161   4.542   3.719   0.656 -0.1388  0.0179  0.2975
10557TIP3    H153162   4.503   3.658   0.592 -0.4202  0.7349 -0.2390
10557TIP3    H253163   4.480   3.793   0.659  1.0046  1.0464 -0.3347
10558TIP3   OH253164   1.632   2.564  14.736  0.0350  0.0502  0.3555
10558TIP3    H153165   1.553   2.610  14.709 -0.6626 -0.7250  1.0364
10558TIP3    H253166   1.638   2.579  14.830  0.9928  0.5236  0.2338
10559TIP3   OH253167   3.095   5.957   4.885 -0.0609 -0.3874  0.0687
10559TIP3    H153168   3.004   5.981   4.868 -0.5205 -2.0427 -0.0043
10559TIP3    H253169   3.118   5.898   4.814  1.9414  1.9284 -1.3495
10560TIP3   OH253170   1.815   3.199  16.048 -0.1396  0.4531  0.6927
10560TIP3    H153171   1.872   3.217  16.123  0.5733  1.5681 -0.0830
10560TIP3    H253172   1.854   3.121  16.007 -0.5812 -0.2073  1.5050
10561TIP3   OH253173   6.290   2.660   1.446 -0.2037  0.0436 -0.6238
10561TIP3    H153174   6.320   2.728   1.386  0.7908 -0.1891 -0.4054
10561TIP3    H253175   6.215   2.620   1.401  0.7964 -0.4413 -1.9374
10562TIP3   OH253176   3.564   4.521   3.340 -0.3764  0.0992  0.3742
10562TIP3    H153177   3.533   4.611   3.342  2.1617  1.0995 -1.0922
10562TIP3    H253178   3.593   4.507   3.250 -0.8769 -2.2732  0.5115
10563TIP3   OH253179   1.537   4.513   0.957 -0.9323 -0.1662  0.2478
10563TIP3    H153180   1.576   4.487   0.874  0.1072 -0.0837  0.6828
10563TIP3    H253181   1.547   4.437   1.014 -1.4689 -0.1620  0.3518
10564TIP3   OH253182   0.423   5.646   5.829 -0.1970  0.6563  0.2497
10564TIP3    H153183   0.430   5.679   5.919  0.3555 -2.3211  1.4469
10564TIP3    H253184   0.437   5.552   5.838  0.6858  0.3475 -3.0941
10565TIP3   OH253185   3.553   1.065   4.676  0.7171  0.1722 -0.1660
10565TIP3    H153186   3.488   1.027   4.617 -1.5163  2.3755  0.7110
10565TIP3    H253187   3.533   1.159   4.676  2.5380  0.6256  1.8154
10566TIP3   OH253188   4.756   4.315   3.338 -0.1884  0.3184  0.1381
10566TIP3    H153189   4.672   4.362   3.331  0.9583  2.5257  0.1982
10566TIP3    H253190   4.775   4.287   3.248  0.7748  3.2432 -0.6972
10567TIP3   OH253191   1.658   5.453   1.063  0.0997 -0.1048 -0.0548
10567TIP3    H153192   1.593   5.524   1.057 -0.1449 -0.4128 -1.7215
10567TIP3    H253193   1.606   5.373   1.069  0.3453 -0.2708 -0.1171
10568TIP3   OH253194   6.775   6.392  12.057 -0.6331  0.5402 -0.2151
10568TIP3    H153195   6.735   6.307  12.036  1.2653 -0.5517  0.2807
10568TIP3    H253196   6.764   6.400  12.152  1.5221 -0.5463  0.2130
10569TIP3   OH253197   0.683   3.021   4.389 -0.3467  0.2950  0.4403
10569TIP3    H153198   0.617   2.960   4.356  0.1548  0.0263 -0.0950
10569TIP3    H253199   0.763   2.969   4.393 -0.1698  0.6140  1.0955
10570TIP3   OH253200   6.096   2.859  16.652  0.4102  0.3363  0.3072
10570TIP3    H153201   6.053   2.945  16.664 -0.7123 -0.2605  0.7479
10570TIP3    H253202   6.109   2.852  16.558  0.2510  0.8815  0.2411
10571TIP3   OH253203   2.538   2.610   5.129 -0.0885  0.5440  0.2046
10571TIP3    H153204   2.479   2.685   5.131  0.9185  1.4289 -1.0867
10571TIP3    H253205   2.573   2.605   5.217 -1.8519  0.1619  0.9209
10572TIP3   OH253206   0.160   4.606   1.936 -0.0910  0.3321 -0.3731
10572TIP3    H153207   0.234   4.653   1.898 -0.7015  1.1153 -0.6307
10572TIP3    H253208   0.117   4.671   1.991 -0.7088 -0.0440 -0.4040
10573TIP3   OH253209   0.541   5.235  13.201  0.1433  0.6203 -0.4301
10573TIP3    H153210   0.609   5.192  13.149 -2.3464 -0.1691 -3.2910
10573TIP3    H253211   0.508   5.167  13.259  0.3562  0.4255 -0.5389
10574TIP3   OH253212   6.620   5.520  16.810 -0.0269  0.1971  0.4112
10574TIP3    H153213   6.629   5.612  16.835 -0.2996  0.0355  1.1468
10574TIP3    H253214   6.668   5.512  16.728 -1.5675  1.4170 -0.6712
10575TIP3   OH253215   2.177   5.180   2.613 -0.3830  0.6530  0.1961
10575TIP3    H153216   2.254   5.163   2.558 -1.2877  1.6519 -1.4588
10575TIP3    H253217   2.150   5.094   2.645  1.3699  0.2825  0.7734
10576TIP3   OH253218   5.213   6.440   2.248  0.0589 -0.0955  0.2895
10576TIP3    H153219   5.164   6.447   2.330  0.7106 -0.5408  0.7249
10576TIP3    H253220   5.178   6.510   2.194  1.7456  2.2642  2.0626
10577TIP3   OH253221   6.505   2.688   5.568  0.0262 -0.0721  0.1582
10577TIP3    H153222   6.530   2.650   5.652 -1.9943 -1.7417  0.0901
10577TIP3    H253223   6.426   2.739   5.587 -0.8550 -1.0116 -0.7656
10578TIP3   OH253224   3.189   2.690   3.797  0.1622 -0.1174 -0.0695
10578TIP3    H153225   3.173   2.678   3.703 -0.8901 -0.4845  0.1519
10578TIP3    H253226   3.102   2.699   3.836  0.5664 -0.4475  0.9380
10579TIP3   OH253227   4.512   4.865  12.246 -0.1983  0.1405 -0.2190
10579TIP3    H153228   4.596   4.825  12.224  0.3293  1.3876 -0.5388
10579TIP3    H253229   4.454   4.791  12.263 -0.1087 -0.9456 -3.8143
10580TIP3   OH253230   0.029   1.372  16.918  0.5454 -0.2577 -0.1393
10580TIP3    H153231  -0.063   1.371  16.893  0.7313 -2.8844 -1.0726
10580TIP3    H253232   0.034   1.315  16.995  1.4389 -0.5483 -0.3923
10581TIP3   OH253233   0.289   1.645  14.555  0.3544  0.2202 -0.1515
10581TIP3    H153234   0.307   1.594  14.476  1.5800  0.7193 -0.2171
10581TIP3    H253235   0.367   1.700  14.566 -0.1819  0.7940  0.9104
10582TIP3   OH253236   2.568   0.323  16.892  0.0898  0.2350  0.1316
10582TIP3    H153237   2.627   0.290  16.825 -0.7072  0.9293 -0.9358
10582TIP3    H253238   2.621   0.386  16.941  0.1989  0.9882 -0.9317
10583TIP3   OH253239   5.533   5.000   1.999  0.4319  0.4054  0.4242
10583TIP3    H153240   5.443   4.995   1.967  0.3252  2.3395  0.2776
10583TIP3    H253241   5.552   4.913   2.033 -0.7694 -0.6373 -1.4234
10584TIP3   OH253242   3.734   2.405  15.364 -0.1113 -0.2909  0.0201
10584TIP3    H153243   3.764   2.315  15.352 -2.0309 -0.8002 -1.5936
10584TIP3    H253244   3.814   2.456  15.378  1.1236 -2.0535 -0.3279
10585TIP3   OH253245   1.769   4.471   5.144 -0.0250  0.3053 -0.5300
10585TIP3    H153246   1.787   4.532   5.215 -0.4396  0.6534 -0.7189
10585TIP3    H253247   1.674   4.471   5.135  0.0389  0.5559 -1.3306
10586TIP3   OH253248   3.799   0.452   0.904 -0.0859  0.3270 -0.2654
10586TIP3    H153249   3.796   0.387   0.833 -0.2026 -0.1822  0.2019
10586TIP3    H253250   3.712   0.450   0.943 -0.2270  1.0782 -0.5173
10587TIP3   OH253251   0.814   1.876   0.285  0.0388 -0.3407 -0.1059
10587TIP3    H153252   0.795   1.798   0.232 -0.7617  1.5101 -2.7284
10587TIP3    H253253   0.909   1.884   0.283  0.0227 -0.2612 -1.3970
10588TIP3   OH253254   3.842   1.720  16.456  0.4846  0.6145 -0.0733
10588TIP3    H153255   3.910   1.691  16.517  0.9849 -0.5536 -1.1387
10588TIP3    H253256   3.785   1.644  16.445  1.3855  0.1965 -2.3612
10589TIP3   OH253257   2.959   4.094  10.730 -0.1780  0.3502  0.3694
10589TIP3    H153258   3.009   4.027  10.683 -0.4926  1.4862 -1.6461
10589TIP3    H253259   3.022   4.164  10.746 -1.1256  2.1243 -2.8526
10590TIP3   OH253260   2.898   1.561   0.874 -0.1755  0.0324 -0.2147
10590TIP3    H153261   2.950   1.640   0.867  1.9694 -1.3605 -1.0493
10590TIP3    H253262   2.808   1.590   0.858  0.5662  2.2171 -0.7663
10591TIP3   OH253263   4.675   3.011  14.820 -0.1877 -0.1028 -0.0533
10591TIP3    H153264   4.640   3.092  14.783 -0.8058 -0.6212 -0.6317
10591TIP3    H253265   4.766   3.032  14.841  0.2372  0.1998 -1.9823
10592TIP3   OH253266   2.246   4.461  15.907  0.3067 -0.1367 -0.8209
10592TIP3    H153267   2.212   4.465  15.817  0.0076  2.0823 -0.6752
10592TIP3    H253268   2.173   4.427  15.959 -0.4797  1.1159 -1.0570
10593TIP3   OH253269   1.978   4.033  16.252 -0.5715 -0.0660 -0.3967
10593TIP3    H153270   2.018   4.098  16.193 -1.2776  1.1602  0.4235
10593TIP3    H253271   1.942   3.967  16.193  1.2051 -0.3664 -1.2152
10594TIP3   OH253272   2.756   6.313  13.655  0.1310 -0.5062 -0.0016
10594TIP3    H153273   2.807   6.393  13.641 -1.5020  0.5256 -0.2923
10594TIP3    H253274   2.706   6.329  13.735  0.0504 -1.3850  0.1431
10595TIP3   OH253275   3.741   1.465  15.805  0.3394  0.0554 -0.1368
10595TIP3    H153276   3.654   1.437  15.834  0.5689 -3.1285 -2.0647
10595TIP3    H253277   3.801   1.414  15.859  1.0266  1.3411  0.3471
10596TIP3   OH253278   5.331   6.187   6.627 -0.1185 -0.7139 -0.3115
10596TIP3    H153279   5.314   6.142   6.544  1.0346 -0.8636 -0.4831
10596TIP3    H253280   5.412   6.148   6.659  0.3360  0.5102  0.0626
10597TIP3   OH253281   5.620   0.071  16.479 -0.1139 -0.4987 -0.7056
10597TIP3    H153282   5.633   0.055  16.385  3.3274 -0.6394 -0.3210
10597TIP3    H253283   5.651   0.160  16.493 -3.6691  0.7956 -0.1170
10598TIP3   OH253284   2.134   4.543  15.322 -0.1196  0.9089  0.2049
10598TIP3    H153285   2.222   4.556  15.355 -0.3548  0.6607  0.9434
10598TIP3    H253286   2.143   4.546  15.227  1.3622 -2.9942  0.0238
10599TIP3   OH253287   0.037   6.005  14.655  0.7524  0.5513 -0.4527
10599TIP3    H153288  -0.057   6.018  14.648  0.2149 -1.0861  2.1697
10599TIP3    H253289   0.052   5.918  14.617  1.4201  1.2042 -1.7575
10600TIP3   OH253290   4.125   4.015  16.476  0.5122 -0.3236 -0.8634
10600TIP3    H153291   4.111   3.921  16.481  0.2461 -0.4121 -2.5901
10600TIP3    H253292   4.055   4.052  16.529  0.2530 -1.0915 -0.6615
10601TIP3   OH253293   4.449   1.833  12.561  0.1551  0.0560  0.2097
10601TIP3    H153294   4.475   1.852  12.471  1.6278 -3.9159 -0.4268
10601TIP3    H253295   4.385   1.762  12.553 -0.8198  0.6219  2.2851
10602TIP3   OH253296   2.933   0.331   3.298 -0.3103  0.1285  0.1391
10602TIP3    H153297   2.932   0.254   3.355  0.4934 -0.7676 -1.0009
10602TIP3    H253298   2.908   0.297   3.212  1.4529  0.8563 -0.7060
10603TIP3   OH253299   0.486   2.889  13.030  0.2237  0.2846  0.4615
10603TIP3    H153300   0.539   2.852  12.959  0.5613  1.6331 -0.0167
10603TIP3    H253301   0.530   2.862  13.110 -0.5701 -1.8812  0.2278
10604TIP3   OH253302   4.426   3.147  11.619 -0.5254 -0.4166  0.0738
10604TIP3    H153303   4.380   3.088  11.559 -0.1744 -1.2063  0.5528
10604TIP3    H253304   4.519   3.131  11.601 -0.4124  1.1292 -0.8568
10605TIP3   OH253305   2.635   2.361  15.840  0.1321 -0.0227  0.6332
10605TIP3    H153306   2.697   2.326  15.904  0.1736  0.6860  0.9906
10605TIP3    H253307   2.660   2.320  15.757 -0.7276 -1.9584  1.2833
10606TIP3   OH253308   0.477   6.744  13.688 -0.5208  0.0547  0.4941
10606TIP3    H153309   0.422   6.823  13.695 -0.4466  0.0354  1.3805
10606TIP3    H253310   0.463   6.698  13.771  2.0538  0.8433  1.4670
10607TIP3   OH253311   3.415   1.509  15.606 -0.4734 -0.4921 -0.6137
10607TIP3    H153312   3.387   1.594  15.572 -0.7703 -1.0018 -1.6786
10607TIP3    H253313   3.483   1.480  15.545  0.9983 -0.1776  0.8100
10608TIP3   OH253314   5.251   3.919  10.518 -0.1859 -0.2277 -0.4820
10608TIP3    H153315   5.315   3.974  10.473  0.0911  0.3667  0.6004
10608TIP3    H253316   5.179   3.979  10.539  0.6004  0.0818  1.7082
10609TIP3   OH253317   4.839   0.174  17.000 -0.4239  0.0099 -0.4478
10609TIP3    H153318   4.811   0.192  17.090 -0.1593 -0.0305 -0.3551
10609TIP3    H253319   4.759   0.174  16.949 -0.4775  1.0707 -0.3870
10610TIP3   OH253320   0.882   5.710  13.053 -0.0613 -0.0685  0.4494
10610TIP3    H153321   0.827   5.756  12.989  0.4573  0.2961  0.2632
10610TIP3    H253322   0.828   5.636  13.081 -0.3141 -0.2118 -0.3802
10611TIP3   OH253323   2.380   0.093  11.364  0.0082  0.8117 -0.3137
10611TIP3    H153324   2.315   0.089  11.434  0.9348  2.8384  0.7694
10611TIP3    H253325   2.435   0.016  11.378 -0.0556  0.9745  1.0097
10612TIP3   OH253326   1.430   3.590  15.966 -0.1263 -0.1894  0.5890
10612TIP3    H153327   1.500   3.573  16.029  0.0789  0.2861  0.4919
10612TIP3    H253328   1.466   3.562  15.882 -0.8316 -1.9587  0.8327
10613TIP3   OH253329   3.954   3.095  16.450 -0.2996 -0.3526  1.1121
10613TIP3    H153330   3.874   3.101  16.398  0.1302  1.5944  0.5557
10613TIP3    H253331   3.993   3.012  16.425 -1.0417 -0.3096 -0.2968
10614TIP3   OH253332   3.568   2.100  10.921 -0.0323  0.0112  0.0416
10614TIP3    H153333   3.650   2.150  10.917  0.2164 -0.4145 -0.2834
10614TIP3    H253334   3.581   2.028  10.860 -0.8442  0.2280 -0.4058
10615TIP3   OH253335   3.113   3.892  10.629  0.1133 -0.2263  0.7585
10615TIP3    H153336   3.203   3.910  10.655  0.2821 -0.1572  0.1237
10615TIP3    H253337   3.097   3.802  10.658  0.7897 -0.6791 -0.2270
10616TIP3   OH253338   1.054   1.525   3.860 -0.0052  0.2757  0.4670
10616TIP3    H153339   1.015   1.569   3.785 -1.5479  0.8199  1.5329
10616TIP3    H253340   1.052   1.432   3.837 -0.6853  0.4167 -0.0753
10617TIP3   OH253341   2.303   3.573  11.306  0.2505 -0.6963 -0.3343
10617TIP3    H153342   2.331   3.500  11.250  0.5029  1.2403 -2.8943
10617TIP3    H253343   2.336   3.651  11.262 -1.3834  1.1082  1.4490
10618TIP3   OH253344   1.860   2.868   0.364 -0.3210 -0.0951  1.2063
10618TIP3    H153345   1.765   2.852   0.362 -0.1832 -1.0995  1.8497
10618TIP3    H253346   1.893   2.827   0.285 -0.4217  0.2544  0.9820
10619TIP3   OH253347   6.691   6.414   4.666 -0.1284 -0.1602  0.5419
10619TIP3    H153348   6.672   6.385   4.755 -1.7496 -0.7730  0.0306
10619TIP3    H253349   6.786   6.412   4.660 -0.0386 -2.6754  1.4574
10620TIP3   OH253350   5.351   6.360  12.459 -0.2960  0.6240 -0.2404
10620TIP3    H153351   5.272   6.341  12.511 -0.7591  1.1382 -0.7400
10620TIP3    H253352   5.424   6.334  12.515 -0.7053  2.7923  1.3940
10621TIP3   OH253353   4.424   0.642  14.102 -0.4665  0.4234 -0.7412
10621TIP3    H153354   4.429   0.735  14.081 -0.5187  0.1458 -2.0451
10621TIP3    H253355   4.462   0.598  14.026  0.0998 -0.6040  0.1087
10622TIP3   OH253356   1.489   5.146   4.732  0.0650  0.1933  0.2770
10622TIP3    H153357   1.534   5.062   4.728 -1.6101 -0.8347  1.5401
10622TIP3    H253358   1.510   5.189   4.650  2.4393 -0.6659  0.3632
10623TIP3   OH253359   5.156   2.002  16.280  0.1711  0.4293  0.3374
10623TIP3    H153360   5.081   1.995  16.339  0.2750  1.1433  0.5667
10623TIP3    H253361   5.117   2.022  16.195  0.0885  0.5596  0.4048
10624TIP3   OH253362   3.633   5.518  15.945 -0.2039  0.4445 -0.2280
10624TIP3    H153363   3.708   5.484  15.895 -1.8861 -0.9708 -1.9263
10624TIP3    H253364   3.583   5.441  15.969 -1.4437  1.3933  0.3540
10625TIP3   OH253365   5.675   0.635  15.502 -0.2385  0.0037 -1.7206
10625TIP3    H153366   5.660   0.698  15.572 -2.2773 -0.7566 -1.4065
10625TIP3    H253367   5.623   0.559  15.526 -0.8140 -0.3840 -3.9325
10626TIP3   OH253368   4.385   1.968   5.396 -0.2669 -0.3805  0.1716
10626TIP3    H153369   4.369   2.055   5.434  0.8722 -0.1045  0.0491
10626TIP3    H253370   4.317   1.959   5.328  0.7244  1.2189 -1.1117
10627TIP3   OH253371   6.019   6.303  15.974  0.5420  0.0533 -0.2360
10627TIP3    H153372   5.934   6.325  15.936  0.3980  0.5962  0.4057
10627TIP3    H253373   5.998   6.254  16.054  0.8180  1.0073  0.4246
10628TIP3   OH253374   2.434   6.770   4.791 -0.7397  0.2904 -0.3074
10628TIP3    H153375   2.457   6.689   4.744  1.9390  1.2521 -0.8480
10628TIP3    H253376   2.483   6.764   4.873 -1.7681  0.6738  0.3424
10629TIP3   OH253377   5.342   6.218   1.599 -0.3892  0.3170 -0.0638
10629TIP3    H153378   5.336   6.276   1.522 -1.4082  0.2344 -0.0486
10629TIP3    H253379   5.325   6.130   1.564  0.5123  0.0914  0.0300
10630TIP3   OH253380   1.069   4.913   4.226 -0.5027  0.1892 -0.2905
10630TIP3    H153381   1.151   4.925   4.177 -0.4078 -0.7622 -0.3727
10630TIP3    H253382   1.050   5.000   4.260 -0.3937  0.8158 -1.7404
10631TIP3   OH253383   6.565   1.092   0.533  0.1931  0.4235  0.0077
10631TIP3    H153384   6.620   1.101   0.611 -0.4039 -3.1194  1.0103
10631TIP3    H253385   6.498   1.160   0.543  2.3659  2.6723  0.4161
10632TIP3   OH253386   3.731   2.690   0.125 -0.4862  0.0826 -0.3407
10632TIP3    H153387   3.761   2.612   0.173 -1.5035 -0.8909 -1.2149
10632TIP3    H253388   3.809   2.744   0.115  0.1239 -0.5561  0.7813
10633TIP3   OH253389   0.189   5.701   1.935 -0.5238  0.0240 -0.2757
10633TIP3    H153390   0.280   5.733   1.940  0.5104 -2.5416 -1.3638
10633TIP3    H253391   0.150   5.750   1.863  0.4874  0.0604 -0.8102
10634TIP3   OH253392   4.985   1.442   3.973 -0.2783  0.0021  0.1871
10634TIP3    H153393   4.961   1.350   3.968  1.0377 -0.3478 -0.2597
10634TIP3    H253394   4.937   1.484   3.902  0.1685 -0.6147 -0.5051
10635TIP3   OH253395   2.542   1.437  14.750  0.3152  0.1420  0.4407
10635TIP3    H153396   2.553   1.342  14.755 -0.2811  0.0064 -0.5234
10635TIP3    H253397   2.551   1.467  14.840  1.5184 -0.7062  0.6356
10636TIP3   OH253398   4.002   6.452   3.676 -0.2695  0.0193 -0.5243
10636TIP3    H153399   4.017   6.453   3.771  0.8797 -1.5318 -0.6425
10636TIP3    H253400   4.037   6.535   3.645  0.2797  0.1027  0.2894
10637TIP3   OH253401   2.073   4.250   5.695  0.5993 -0.0477  0.0657
10637TIP3    H153402   2.004   4.280   5.755  0.2510 -1.2793  0.3086
10637TIP3    H253403   2.150   4.301   5.720 -0.2470  1.4613 -0.3029
10638TIP3   OH253404   6.471   4.765   0.715  0.1768 -0.2903  0.0876
10638TIP3    H153405   6.479   4.673   0.742 -1.1860 -0.3444  0.3874
10638TIP3    H253406   6.553   4.806   0.745  0.5770 -1.2872  0.4167
10639TIP3   OH253407   5.462   1.663  14.796  0.2315  0.3589  0.0687
10639TIP3    H153408   5.515   1.619  14.863  2.4676 -1.0017 -2.4125
10639TIP3    H253409   5.490   1.754  14.799  0.5009  0.2603  0.7928
10640TIP3   OH253410   3.444   1.185  13.836  0.9023  0.0242  0.2105
10640TIP3    H153411   3.477   1.225  13.916 -2.2941  1.7125  0.8918
10640TIP3    H253412   3.479   1.240  13.766 -0.5323  1.9785  0.9131
10641TIP3   OH253413   2.168   0.116  13.151 -0.3479  0.4487 -0.5142
10641TIP3    H153414   2.255   0.146  13.125 -0.9510  1.3474 -1.5731
10641TIP3    H253415   2.148   0.164  13.232  0.7323 -0.9018  0.6127
10642TIP3   OH253416   0.552   2.846  12.494 -0.1479  0.0457  0.0735
10642TIP3    H153417   0.568   2.803  12.410  1.1646  0.8199 -0.1037
10642TIP3    H253418   0.467   2.812  12.523 -0.2313 -0.8615 -1.1610
10643TIP3   OH253419   4.323   4.786  11.442 -0.8593 -0.2082  0.0187
10643TIP3    H153420   4.263   4.793  11.368  2.6930  2.7949 -3.0053
10643TIP3    H253421   4.289   4.847  11.507  0.1560  3.9093 -2.9214
10644TIP3   OH253422   4.075   4.838   3.901  0.0823 -0.7548  0.2289
10644TIP3    H153423   4.120   4.893   3.965  2.1051 -1.6585 -0.3214
10644TIP3    H253424   4.103   4.872   3.816  0.3733 -1.8228 -0.1273
10645TIP3   OH253425   1.081   3.997   0.525 -0.1072  0.1366  0.8969
10645TIP3    H153426   1.011   4.037   0.576 -1.2640 -0.1305 -0.4070
10645TIP3    H253427   1.157   3.998   0.583 -0.1231  3.8624  1.1024
10646TIP3   OH253428   1.134   3.503  12.260  0.1281 -0.0919  0.4831
10646TIP3    H153429   1.080   3.534  12.333  1.2919  3.4085  0.0795
10646TIP3    H253430   1.093   3.421  12.232 -2.1715  0.0354  3.0669
10647TIP3   OH253431   3.508   2.736  14.922 -0.8603  0.1867  0.4573
10647TIP3    H153432   3.546   2.649  14.933  0.2980  0.6985  0.7528
10647TIP3    H253433   3.479   2.761  15.010  1.5451  1.2621  1.0306
10648TIP3   OH253434   4.034   1.099   3.222  0.4381 -0.4618 -0.7191
10648TIP3    H153435   3.995   1.031   3.168 -1.2032  1.1309 -1.6628
10648TIP3    H253436   3.969   1.118   3.289 -0.0441  1.5033 -1.6705
10649TIP3   OH253437   1.617   6.627  13.691  0.6225  0.2284  0.0520
10649TIP3    H153438   1.681   6.639  13.620  0.1444 -0.3123 -0.4861
10649TIP3    H253439   1.669   6.632  13.771  0.9407  2.6304 -0.2220
10650TIP3   OH253440   0.799   3.562   3.580 -0.2256 -0.0577  0.0753
10650TIP3    H153441   0.719   3.613   3.590  0.2408  0.9086 -1.0163
10650TIP3    H253442   0.769   3.471   3.582 -0.9540  0.1401  3.0628
10651TIP3   OH253443   1.476   0.500  12.085 -0.0937 -0.1912  0.5004
10651TIP3    H153444   1.451   0.537  12.169 -0.4219 -1.1074  0.8182
10651TIP3    H253445   1.572   0.506  12.084 -0.0821 -0.2525  0.9744
10652TIP3   OH253446   5.252   4.690   0.584  0.0672  0.5589 -0.6010
10652TIP3    H153447   5.207   4.621   0.536  0.8180 -0.2952 -0.1002
10652TIP3    H253448   5.200   4.769   0.567 -2.1381 -0.5306  0.6780
10653TIP3   OH253449   2.903   4.257   5.162  0.0656  0.7240  0.6617
10653TIP3    H153450   2.827   4.234   5.109 -1.6996  0.3924  3.1839
10653TIP3    H253451   2.888   4.348   5.187  0.5971  0.7109  1.0482
10654TIP3   OH253452   6.242   3.802   2.465  0.1269  0.0133 -0.1922
10654TIP3    H153453   6.305   3.867   2.434  0.2409  1.5829  2.9056
10654TIP3    H253454   6.157   3.833   2.433  0.3876  0.7216 -0.2200
10655TIP3   OH253455   6.651   5.727  13.719  0.6733 -0.3990  0.0204
10655TIP3    H153456   6.615   5.653  13.768 -1.2070 -0.1540 -0.8774
10655TIP3    H253457   6.702   5.687  13.649 -1.6004 -0.9956 -1.4210
10656TIP3   OH253458   3.907   5.335  12.004  0.3685  0.6507 -0.1121
10656TIP3    H153459   3.945   5.413  12.043 -0.9920  1.4723 -0.3608
10656TIP3    H253460   3.895   5.358  11.911 -0.6673  0.4025 -0.0479
10657TIP3   OH253461   1.715   1.453   3.674  0.1073 -0.4613  0.6851
10657TIP3    H153462   1.799   1.421   3.708 -0.5687 -2.2104  0.8005
10657TIP3    H253463   1.655   1.446   3.748 -0.1854  0.7165  0.5794
10658TIP3   OH253464   2.892   4.042  15.678 -0.1929  0.6593 -0.2556
10658TIP3    H153465   2.971   4.009  15.721 -1.4032 -1.5773  0.4074
10658TIP3    H253466   2.911   4.134  15.659  2.0942  0.4985  0.9674
10659TIP3   OH253467   1.056   2.549   2.308 -0.1479  0.0700 -0.1603
10659TIP3    H153468   1.081   2.631   2.350  0.7320  0.8199 -2.0309
10659TIP3    H253469   0.980   2.572   2.255 -1.1209 -0.8044  0.8362
10660TIP3   OH253470   2.709   3.173  14.673 -0.2837 -0.0213 -0.0246
10660TIP3    H153471   2.645   3.198  14.607 -1.4609  1.1659  1.4811
10660TIP3    H253472   2.676   3.090  14.709  1.4855 -1.8457 -2.2596
10661TIP3   OH253473   2.758   2.827  16.398 -0.9329  0.3984 -0.7626
10661TIP3    H153474   2.797   2.886  16.333 -2.9661  1.2692 -1.2587
10661TIP3    H253475   2.755   2.878  16.478 -0.0949 -0.0544 -0.4264
10662TIP3   OH253476   2.259   5.671   2.895  0.0922 -0.0907  0.2428
10662TIP3    H153477   2.212   5.595   2.860 -0.0845 -0.1138  0.5232
10662TIP3    H253478   2.351   5.650   2.885  0.0608 -0.9380  1.5655
10663TIP3   OH253479   4.001   1.311   1.073  0.2772 -0.2355  0.3319
10663TIP3    H153480   3.940   1.266   1.014  1.5891 -3.5490  1.2919
10663TIP3    H253481   4.046   1.240   1.120  2.3471  2.1496  2.2215
10664TIP3   OH253482   0.187   5.725   5.389 -0.0838  0.0164 -0.0428
10664TIP3    H153483   0.276   5.744   5.418 -0.6487  0.9851  1.1319
10664TIP3    H253484   0.171   5.636   5.417  0.6888 -0.3614 -0.7420
10665TIP3   OH253485   2.501   3.881  13.042 -0.0463  0.3195  0.0989
10665TIP3    H153486   2.451   3.914  12.967 -1.1317  0.3786  0.8358
10665TIP3    H253487   2.574   3.833  13.002  0.2269  1.5799 -0.9950
10666TIP3   OH253488   2.750   1.182  11.867 -0.4571 -0.0307 -0.5298
10666TIP3    H153489   2.813   1.114  11.890 -1.1339 -0.1327  1.1953
10666TIP3    H253490   2.684   1.178  11.937 -0.8282  1.9938 -0.6944
10667TIP3   OH253491   4.955   4.949   1.509  0.4104  0.2962  0.0252
10667TIP3    H153492   4.997   4.957   1.423  1.5532  0.6141  0.6006
10667TIP3    H253493   4.892   5.021   1.511 -0.8051 -0.6670 -1.1680
10668TIP3   OH253494   4.151   2.931   3.284 -0.3065 -0.3740  0.0705
10668TIP3    H153495   4.132   2.956   3.375 -0.7059  0.0360 -0.1223
10668TIP3    H253496   4.066   2.929   3.241 -0.0614  0.0395 -0.4476
10669TIP3   OH253497   4.949   4.313   4.574 -0.4107  0.1667  0.1250
10669TIP3    H153498   4.882   4.284   4.512 -0.8705 -1.2254  1.2256
10669TIP3    H253499   4.913   4.292   4.660 -0.5822  3.6644  1.0546
10670TIP3   OH253500   1.543   1.485  13.836 -0.1180  0.1656 -0.2970
10670TIP3    H153501   1.478   1.543  13.797 -0.9495 -0.5336  0.0151
10670TIP3    H253502   1.584   1.441  13.762 -0.0567  0.5451 -0.4915
10671TIP3   OH253503   2.142   0.190   4.465 -0.2466 -0.4757 -0.1185
10671TIP3    H153504   2.217   0.188   4.406  1.3407 -0.1403  1.7730
10671TIP3    H253505   2.103   0.276   4.451  0.7569  0.0256  0.0464
10672TIP3   OH253506   0.183   0.089  16.344  0.0596  0.6249 -0.3664
10672TIP3    H153507   0.148   0.056  16.428  1.7791 -0.0476  0.1200
10672TIP3    H253508   0.213   0.177  16.364 -0.0754  0.6863 -0.4339
10673TIP3   OH253509   6.175   6.627   2.417  0.2988  0.0138  0.4721
10673TIP3    H153510   6.105   6.632   2.352  0.9320 -0.5237 -0.2713
10673TIP3    H253511   6.167   6.709   2.466 -0.3027  0.3528 -0.1677
10674TIP3   OH253512   1.379   3.301  15.806  0.2363 -0.2927 -0.4990
10674TIP3    H153513   1.399   3.306  15.900 -0.9625 -0.0040 -0.2377
10674TIP3    H253514   1.324   3.224  15.797 -0.0860 -0.0236 -0.8751
10675TIP3   OH253515   1.216   5.018  13.251 -0.0106 -0.1282  0.0920
10675TIP3    H153516   1.247   5.060  13.331  0.3191  2.4153 -1.2852
10675TIP3    H253517   1.130   5.057  13.236  0.6982  0.8308 -1.7227
10676TIP3   OH253518   3.470   3.531   5.803  0.1663  0.1629  0.0141
10676TIP3    H153519   3.476   3.461   5.868  0.3460 -0.4542 -0.6477
10676TIP3    H253520   3.381   3.566   5.813  0.6738  1.0744  1.5715
10677TIP3   OH253521   5.793   2.753  12.838 -0.7753 -0.6243 -0.3007
10677TIP3    H153522   5.848   2.737  12.761 -1.6083  0.8491 -1.2546
10677TIP3    H253523   5.705   2.766  12.803 -1.1060  0.4885  0.8552
10678TIP3   OH253524   6.381   3.256   1.935 -0.1860 -0.0720  0.2280
10678TIP3    H153525   6.344   3.256   1.847 -0.0340  0.3073  0.1617
10678TIP3    H253526   6.456   3.197   1.930 -1.0986 -1.2896  0.5035
10679TIP3   OH253527   2.505   1.540  12.703 -0.4461  0.5565 -0.0124
10679TIP3    H153528   2.525   1.512  12.793  0.0819 -3.1599 -1.1258
10679TIP3    H253529   2.554   1.622  12.692  2.1349 -0.5523  2.0907
10680TIP3   OH253530   1.116   2.063   3.041 -0.0851 -0.3539 -0.4698
10680TIP3    H153531   1.043   2.025   2.992 -0.3864  1.2362 -1.3227
10680TIP3    H253532   1.124   2.007   3.118 -2.2699 -0.5267 -0.2948
10681TIP3   OH253533   1.532   0.251   1.597  0.3850  0.6238 -0.4511
10681TIP3    H153534   1.524   0.339   1.634  0.9728  0.9821 -1.1613
10681TIP3    H253535   1.493   0.257   1.510  0.6954  0.2591 -0.6200
10682TIP3   OH253536   2.357   3.391   5.930  0.0198 -0.5998  0.0091
10682TIP3    H153537   2.396   3.368   5.845  0.3049  0.0876 -0.0519
10682TIP3    H253538   2.347   3.486   5.927 -1.7006 -0.7408  0.0097
10683TIP3   OH253539   4.249   3.633  11.188 -0.4922 -0.0394  0.2992
10683TIP3    H153540   4.218   3.555  11.142  0.5964 -0.0569 -0.4441
10683TIP3    H253541   4.339   3.613  11.212 -0.7029  0.3947  1.5163
10684TIP3   OH253542   4.684   4.254  16.827 -0.8955 -0.1048  0.2643
10684TIP3    H153543   4.598   4.211  16.831 -1.2605  0.4635 -0.8420
10684TIP3    H253544   4.721   4.225  16.743 -0.4076  0.3709  0.3094
10685TIP3   OH253545   6.333   1.748  16.480  0.0511 -0.1164  0.7758
10685TIP3    H153546   6.356   1.677  16.419  0.5545  0.3246  0.4337
10685TIP3    H253547   6.238   1.754  16.476  0.0362 -0.5158  0.5110
10686TIP3   OH253548   5.911   2.168  16.806  1.0168  0.3204  0.6015
10686TIP3    H153549   5.848   2.098  16.787  1.6900 -0.2893  0.5684
10686TIP3    H253550   5.859   2.236  16.848  0.0891  0.3768 -0.5859
10687TIP3   OH253551   4.829   4.430  14.982  0.2685 -0.4734  0.0028
10687TIP3    H153552   4.803   4.365  15.048  0.2634 -0.8614 -0.3733
10687TIP3    H253553   4.798   4.513  15.016 -1.7537 -0.9378 -0.5540
10688TIP3   OH253554   5.558   0.384  13.389 -0.6081 -0.1744  0.0895
10688TIP3    H153555   5.536   0.358  13.300 -0.2023 -1.2704  0.2902
10688TIP3    H253556   5.542   0.478  13.392 -1.8322 -0.3373 -0.7790
10689TIP3   OH253557   5.075   1.829  12.200 -0.2466  0.2395 -0.0399
10689TIP3    H153558   5.064   1.806  12.293 -0.9641  0.0361 -0.1725
10689TIP3    H253559   4.988   1.821  12.162  0.1804 -0.4735 -0.9151
10690TIP3   OH253560   0.854   0.487   6.080  0.4466 -0.3273 -0.1990
10690TIP3    H153561   0.872   0.413   6.138 -0.9522  1.0136  2.1238
10690TIP3    H253562   0.925   0.548   6.095 -1.6524  1.5910  3.0582
10691TIP3   OH253563   3.943   6.060   6.168 -0.5816 -0.3409  0.3476
10691TIP3    H153564   3.995   6.126   6.214  1.0989 -0.7087 -0.9372
10691TIP3    H253565   3.894   6.016   6.238 -0.5076  1.1665  1.4112
10692TIP3   OH253566   3.450   4.656   6.053  0.3763 -0.5514 -0.0042
10692TIP3    H153567   3.464   4.721   6.123 -0.3572 -1.0242  0.5989
10692TIP3    H253568   3.432   4.709   5.975 -0.6173  0.0008  0.5697
10693TIP3   OH253569   3.499   3.965  13.633  0.0593  0.4951 -0.0974
10693TIP3    H153570   3.546   3.913  13.567  0.4896  1.8001 -0.8392
10693TIP3    H253571   3.460   3.899  13.690  0.2018 -0.6686 -1.2777
10694TIP3   OH253572   0.766   1.375  11.964  0.4911 -0.5055 -0.5402
10694TIP3    H153573   0.829   1.400  12.031  0.4144  0.0995 -0.6891
10694TIP3    H253574   0.801   1.413  11.883  0.0285 -0.3138 -0.6533
10695TIP3   OH253575   5.950   6.100   3.150 -0.2618  0.0381 -0.3421
10695TIP3    H153576   6.019   6.156   3.117  0.6043 -1.5179 -1.3054
10695TIP3    H253577   5.897   6.079   3.073 -1.0342  0.1708  0.1460
10696TIP3   OH253578   6.117   1.780  15.044  0.4013 -0.1827 -0.1558
10696TIP3    H153579   6.099   1.829  14.964 -0.5545 -0.9542 -0.4208
10696TIP3    H253580   6.213   1.777  15.048  0.4645  0.0562 -1.1423
10697TIP3   OH253581   6.175   6.547   3.221 -0.1213 -0.2016 -0.1368
10697TIP3    H153582   6.179   6.461   3.262 -2.3000 -0.8539 -1.1083
10697TIP3    H253583   6.211   6.533   3.133 -0.8858 -0.2596 -0.4499
10698TIP3   OH253584   0.178   3.327  16.792  0.1378  0.3927  0.1463
10698TIP3    H153585   0.200   3.254  16.734  0.8490 -0.2373  1.1830
10698TIP3    H253586   0.085   3.344  16.775 -1.3441 -3.5330  2.7726
10699TIP3   OH253587   1.898   1.631  14.657  0.1126 -0.7144  0.4168
10699TIP3    H153588   1.935   1.564  14.599  1.1107  1.5871 -1.7618
10699TIP3    H253589   1.974   1.682  14.686 -0.6748 -0.1804  1.6069
10700TIP3   OH253590   6.222   3.544   2.390 -0.3154 -0.0738  0.3247
10700TIP3    H153591   6.272   3.618   2.424  0.2950 -0.2863 -0.0912
10700TIP3    H253592   6.271   3.516   2.312 -0.7693 -0.6479  0.2411
10701TIP3   OH253593   4.032   1.564   1.196 -0.3649  0.1923 -0.0485
10701TIP3    H153594   3.959   1.574   1.258 -0.1972  0.5893  0.0883
10701TIP3    H253595   4.020   1.476   1.159 -2.9912  1.4935 -2.7108
10702TIP3   OH253596   0.341   5.797  14.790 -0.6143 -0.3070 -0.2268
10702TIP3    H153597   0.431   5.769  14.773 -0.3879 -1.1563  1.9772
10702TIP3    H253598   0.287   5.734  14.743 -0.0384 -1.1091  0.1506
10703TIP3   OH253599   5.377   6.287   3.483  0.1226  0.3694 -0.1255
10703TIP3    H153600   5.336   6.369   3.511 -1.4710 -0.7361  0.9338
10703TIP3    H253601   5.321   6.256   3.412  0.7157  0.1916 -0.5174
10704TIP3   OH253602   0.167   0.861   4.028 -0.1208 -0.5449 -0.0636
10704TIP3    H153603   0.174   0.926   4.097  0.4372  1.7759 -2.1643
10704TIP3    H253604   0.257   0.834   4.011 -0.1788 -0.5195 -0.4124
10705TIP3   OH253605   2.513   6.509  17.033  0.5292 -0.1186  0.4449
10705TIP3    H153606   2.558   6.449  17.091  0.6814 -1.8920 -1.3865
10705TIP3    H253607   2.559   6.501  16.949  0.2878  2.2792 -0.0006
10706TIP3   OH253608   2.835   2.557  16.245 -0.2771 -0.1219  0.1810
10706TIP3    H153609   2.880   2.621  16.190  1.1887 -1.3356 -0.1031
10706TIP3    H253610   2.899   2.535  16.313 -1.2973 -0.2070  1.1480
10707TIP3   OH253611   0.324   3.262   2.023  0.1543 -0.2703  0.0368
10707TIP3    H153612   0.401   3.299   1.980  1.0036 -1.1463  0.7706
10707TIP3    H253613   0.279   3.338   2.060  0.2552  0.3297 -1.0184
10708TIP3   OH253614   3.834   3.981   4.697 -0.3759 -0.0331 -0.1978
10708TIP3    H153615   3.837   4.036   4.775  1.8932 -0.2563 -0.0349
10708TIP3    H253616   3.926   3.959   4.681 -0.9219 -1.0943 -2.1585
10709TIP3   OH253617   6.253   2.018  15.233  0.2430 -0.9337 -0.0440
10709TIP3    H153618   6.316   2.051  15.169  1.5844 -1.8236  0.7721
10709TIP3    H253619   6.294   1.939  15.269 -2.1233 -2.6250 -0.7695
10710TIP3   OH253620   2.876   6.035   4.018  0.0472  0.5475  0.3460
10710TIP3    H153621   2.890   6.081   3.935  0.6892 -0.6894 -0.2647
10710TIP3    H253622   2.874   5.943   3.994 -1.2213  0.2392  1.5349
10711TIP3   OH253623   4.466   0.653  16.597  0.2585  0.0185 -0.0256
10711TIP3    H153624   4.488   0.602  16.519 -0.6574 -0.4864  0.0280
10711TIP3    H253625   4.425   0.589  16.656  0.3874  0.5254  0.6259
10712TIP3   OH253626   5.336   2.345   5.924  0.2874  0.0106  0.1097
10712TIP3    H153627   5.360   2.425   5.970  2.1563  1.2611 -2.8176
10712TIP3    H253628   5.402   2.281   5.951  1.1373  0.6154 -0.5073
10713TIP3   OH253629   5.431   1.719  13.929  0.4660  0.2924  0.5785
10713TIP3    H153630   5.362   1.653  13.925 -0.2918  1.1007 -0.2224
10713TIP3    H253631   5.388   1.795  13.969  0.8974  0.7929  0.0963
10714TIP3   OH253632   2.190   2.011  12.696 -0.0596  0.1820  0.5264
10714TIP3    H153633   2.269   1.978  12.653  0.0721 -0.5989  1.3410
10714TIP3    H253634   2.189   1.968  12.781 -2.4142 -1.4221 -0.1993
10715TIP3   OH253635   0.865   5.662   1.944 -0.3014  0.2756  0.3260
10715TIP3    H153636   0.896   5.749   1.919  1.8218  0.4674  3.1720
10715TIP3    H253637   0.888   5.606   1.870  1.2379  1.5622 -0.2268
10716TIP3   OH253638   4.764   0.237   6.508  0.4485 -0.2076  0.0983
10716TIP3    H153639   4.776   0.179   6.583  1.2217 -3.3095 -2.2218
10716TIP3    H253640   4.835   0.301   6.515 -0.0454  0.1549  2.4159
10717TIP3   OH253641   0.305   4.015  14.216  0.0575 -0.4226  0.3137
10717TIP3    H153642   0.398   4.035  14.209 -0.1082 -0.1112 -1.4612
10717TIP3    H253643   0.295   3.932  14.169 -0.5997 -0.2792  0.1936
10718TIP3   OH253644   0.942   5.868  15.327 -0.1277 -1.0955  0.6193
10718TIP3    H153645   0.866   5.857  15.384 -1.0120 -0.7322 -0.4485
10718TIP3    H253646   0.905   5.879  15.240  1.0847  0.4540  0.2541
10719TIP3   OH253647   5.868   5.798  13.915  0.1316  0.0843 -0.1752
10719TIP3    H153648   5.855   5.870  13.977 -0.4106  0.2201 -0.4402
10719TIP3    H253649   5.960   5.802  13.892  0.2298  0.3361  0.2487
10720TIP3   OH253650   5.888   1.680   5.533  0.2589 -0.0930  0.0683
10720TIP3    H153651   5.922   1.641   5.613  2.6497 -1.2074 -1.3722
10720TIP3    H253652   5.811   1.626   5.511  0.0274 -0.2451  1.1831
10721TIP3   OH253653   6.130   1.633   2.745  0.0381 -0.2974  0.2026
10721TIP3    H153654   6.105   1.723   2.724 -0.2526 -0.1214  1.2527
10721TIP3    H253655   6.094   1.581   2.673  1.7171  0.5867 -1.3544
10722TIP3   OH253656   6.523   0.365  11.948  0.1673  0.0670 -0.6169
10722TIP3    H153657   6.593   0.405  12.000  0.1628  1.6514 -1.7339
10722TIP3    H253658   6.568   0.328  11.872  0.2027 -2.4342  0.5261
10723TIP3   OH253659   1.600   0.261   5.832  0.3099 -0.3087 -0.3754
10723TIP3    H153660   1.556   0.303   5.906 -0.6765 -1.1591 -0.4544
10723TIP3    H253661   1.538   0.195   5.802  0.5878  0.1830 -2.1279
10724TIP3   OH253662   2.586   5.344  11.505 -0.3052  0.2198 -0.0162
10724TIP3    H153663   2.623   5.411  11.562  2.0413 -0.7022 -0.3343
10724TIP3    H253664   2.637   5.265  11.525 -0.5641 -0.5657 -2.1552
10725TIP3   OH253665   3.999   4.302  16.966 -0.3314  0.2444  0.0074
10725TIP3    H153666   3.979   4.395  16.968  0.2705  0.4210 -1.0630
10725TIP3    H253667   4.053   4.291  16.887 -1.0693 -1.1356 -0.3337
10726TIP3   OH253668   2.288   0.612  11.439  0.0324 -0.3625  0.1178
10726TIP3    H153669   2.297   0.519  11.420 -0.1228 -0.2702 -0.4230
10726TIP3    H253670   2.288   0.654  11.353 -0.6414  0.0742  0.3223
10727TIP3   OH253671   0.865   2.710   0.429  0.1546 -0.1008 -0.3254
10727TIP3    H153672   0.853   2.799   0.394 -2.0984  0.2758  1.1843
10727TIP3    H253673   0.808   2.656   0.375 -0.0194 -0.2781  0.0386
10728TIP3   OH253674   0.524   1.487  11.720 -0.3077  0.4660 -0.3292
10728TIP3    H153675   0.563   1.557  11.773  0.2128  0.7815 -1.1214
10728TIP3    H253676   0.476   1.434  11.783  0.3893  0.7771  0.4763
10729TIP3   OH253677   5.092   2.348   4.982 -0.0054 -0.3953 -0.1824
10729TIP3    H153678   5.101   2.413   4.912  1.1208  0.5638  0.7987
10729TIP3    H253679   5.171   2.294   4.975 -0.3724 -0.9213 -0.2745
10730TIP3   OH253680   4.580   1.770  15.162 -0.0284 -0.3058 -0.0964
10730TIP3    H153681   4.602   1.686  15.202 -0.6299 -0.3806  0.0957
10730TIP3    H253682   4.486   1.780  15.180 -0.3874 -0.4741 -1.7028
10731TIP3   OH253683   2.794   1.806   4.823 -0.5446 -0.4869  0.7812
10731TIP3    H153684   2.802   1.902   4.825 -1.1231 -0.4298  0.6602
10731TIP3    H253685   2.840   1.776   4.901  2.6549 -0.3594 -0.9036
10732TIP3   OH253686   0.995   4.560   5.006 -0.2183  0.3094  0.0430
10732TIP3    H153687   0.915   4.513   5.027  0.5385 -1.8499 -1.5573
10732TIP3    H253688   1.056   4.537   5.077 -0.0308 -0.7301 -0.4372
10733TIP3   OH253689   3.709   1.194   1.541 -0.6684  0.0795  0.3028
10733TIP3    H153690   3.624   1.150   1.534 -0.5482 -0.0802 -0.1660
10733TIP3    H253691   3.696   1.279   1.500 -0.2414 -0.4630 -0.9859
10734TIP3   OH253692   5.363   0.013  14.039 -0.4298  0.1706  0.4598
10734TIP3    H153693   5.401  -0.053  14.098  0.7473 -0.1932 -0.6547
10734TIP3    H253694   5.437   0.041  13.984 -0.3318  3.9993  2.2350
10735TIP3   OH253695   4.232   2.550   2.676 -0.2971 -0.5953  0.7808
10735TIP3    H153696   4.160   2.487   2.681 -0.2884 -0.7776 -0.8964
10735TIP3    H253697   4.224   2.589   2.589  2.1245 -1.2279  0.2022
10736TIP3   OH253698   2.375   5.147   4.741  0.0086  0.0440  0.1020
10736TIP3    H153699   2.470   5.155   4.732  0.4061 -0.8838  2.7359
10736TIP3    H253700   2.353   5.068   4.691  0.7004 -0.0915 -0.0000
10737TIP3   OH253701   6.508   3.809  14.859  0.1212  0.1889  0.6524
10737TIP3    H153702   6.526   3.873  14.790  0.1493 -1.4986 -0.9893
10737TIP3    H253703   6.523   3.857  14.941  0.6245  2.1108 -0.4986
10738TIP3   OH253704   5.627   4.691   2.967  0.3914  1.0029  0.0698
10738TIP3    H153705   5.538   4.722   2.955 -0.8344 -1.5795  1.5960
10738TIP3    H253706   5.654   4.660   2.880 -0.9895  0.0050 -0.0321
10739TIP3   OH253707   3.586   4.530   5.001  0.0628 -0.3290 -0.2610
10739TIP3    H153708   3.585   4.435   4.994 -1.2153 -0.2642 -1.3691
10739TIP3    H253709   3.532   4.549   5.078 -0.3370 -0.4917 -0.4943
10740TIP3   OH253710   6.735   1.493  13.803  0.1840  0.2448 -0.4713
10740TIP3    H153711   6.771   1.404  13.796  0.2855  0.3144 -0.8128
10740TIP3    H253712   6.713   1.517  13.714 -3.1509 -0.7874 -0.0641
10741TIP3   OH253713   2.846   2.747   3.659  0.1209  0.0548 -0.5496
10741TIP3    H153714   2.901   2.736   3.581  1.0162  0.1341  0.0658
10741TIP3    H253715   2.869   2.673   3.715  1.2514  1.3079  0.6843
10742TIP3   OH253716   3.734   3.387   4.131  0.1878  0.2167 -0.0959
10742TIP3    H153717   3.667   3.455   4.137 -1.2297 -1.0961 -0.3872
10742TIP3    H253718   3.742   3.353   4.221  1.4209  1.2028  0.2000
10743TIP3   OH253719   1.086   4.011  13.099  0.5682 -0.6983  0.3822
10743TIP3    H153720   1.079   4.106  13.092 -0.2987 -0.8522 -1.9938
10743TIP3    H253721   1.116   3.995  13.188  2.1096  1.8611  0.4131
10744TIP3   OH253722   4.496   6.008   3.699 -0.9326 -0.3531 -0.0400
10744TIP3    H153723   4.521   5.935   3.642 -3.3317 -0.9235 -0.4537
10744TIP3    H253724   4.563   6.074   3.683 -0.0037 -1.5704 -1.4348
10745TIP3   OH253725   3.289   0.866   3.881  0.0357  0.0546  0.0096
10745TIP3    H153726   3.299   0.888   3.788 -1.0889 -0.0823 -0.1578
10745TIP3    H253727   3.253   0.778   3.882 -0.7884  0.3860  0.5531
10746TIP3   OH253728   3.980   6.429  15.155  0.2602 -0.5123  0.2672
10746TIP3    H153729   3.976   6.400  15.064  0.2244 -1.3676  0.5256
10746TIP3    H253730   3.943   6.517  15.154 -0.8777 -0.9715 -0.3640
10747TIP3   OH253731   0.544   4.884   0.485  0.7942 -0.2561 -0.2824
10747TIP3    H153732   0.591   4.903   0.567 -1.3799 -0.1899  1.0369
10747TIP3    H253733   0.490   4.808   0.506 -0.2585  0.1407 -1.4706
10748TIP3   OH253734   6.404   1.469   1.927 -0.2147  0.1250 -0.6087
10748TIP3    H153735   6.317   1.432   1.915  0.3031 -0.8537 -1.5759
10748TIP3    H253736   6.455   1.399   1.968  0.3816  0.2878 -1.0469
10749TIP3   OH253737   2.888   5.749   0.426  0.0020  0.1573 -0.0464
10749TIP3    H153738   2.941   5.812   0.378  0.5996 -0.1879  0.1471
10749TIP3    H253739   2.799   5.764   0.396  0.1376  1.1094  0.0215
10750TIP3   OH253740   4.998   2.070  11.415  0.1644  0.6146 -0.3057
10750TIP3    H153741   4.921   2.063  11.358  0.7916 -1.3990 -1.0110
10750TIP3    H253742   4.966   2.114  11.493 -1.3818  1.0169 -1.1098
10751TIP3   OH253743   2.943   3.944   5.782  0.0280 -0.6216  0.1139
10751TIP3    H153744   3.011   3.899   5.731 -0.6060 -1.1470 -0.2867
10751TIP3    H253745   2.980   4.030   5.801  0.5098 -0.6319 -0.7427
10752TIP3   OH253746   4.528   3.182  15.936 -0.4384 -0.5950 -0.1406
10752TIP3    H153747   4.621   3.163  15.947 -0.7572 -1.7580  0.9431
10752TIP3    H253748   4.485   3.127  16.002 -1.7442  1.5488  0.9053
10753TIP3   OH253749   1.017   1.192   5.480  0.5456  1.0133  0.7062
10753TIP3    H153750   0.947   1.155   5.426  0.5192  0.1908  1.2945
10753TIP3    H253751   0.972   1.252   5.539  0.6383  2.3723 -0.5391
10754TIP3   OH253752   6.318   2.647  12.131 -0.3810  0.0257  0.0501
10754TIP3    H153753   6.330   2.630  12.224  0.0189 -1.0156 -0.1823
10754TIP3    H253754   6.328   2.562  12.089 -1.9422  0.2374 -0.8355
10755TIP3   OH253755   2.150   2.415   5.543  0.7259  0.4566 -0.3885
10755TIP3    H153756   2.213   2.357   5.586  1.3540 -0.1417 -2.0313
10755TIP3    H253757   2.201   2.494   5.524  0.9242  0.0859 -1.4561
10756TIP3   OH253758   0.617   6.021   5.405  0.8622 -0.8854  0.0378
10756TIP3    H153759   0.635   6.085   5.474  0.5414  3.0225 -3.1788
10756TIP3    H253760   0.704   5.990   5.378  1.1343 -0.6000  0.5701
10757TIP3   OH253761   1.790   3.428   4.434  0.4055 -0.2348  0.0518
10757TIP3    H153762   1.792   3.441   4.340 -1.1317 -1.3861 -0.1726
10757TIP3    H253763   1.861   3.367   4.452  1.0518  0.4067 -0.2667
10758TIP3   OH253764   5.296   0.743  16.143 -0.2211  0.1908 -0.6894
10758TIP3    H153765   5.304   0.781  16.231 -1.3749 -0.2321 -0.3779
10758TIP3    H253766   5.350   0.664  16.146 -1.6543 -0.8111  0.2643
10759TIP3   OH253767   2.966   0.395  15.643  0.0276 -0.1163 -0.0961
10759TIP3    H153768   2.949   0.436  15.558  0.9656 -1.1093 -0.7883
10759TIP3    H253769   2.903   0.324  15.649 -0.8090  0.6715  0.5696
10760TIP3   OH253770   6.454   0.734  16.111 -0.2156  0.1422 -0.2717
10760TIP3    H153771   6.457   0.798  16.040  0.7454 -2.1689 -2.4830
10760TIP3    H253772   6.366   0.743  16.148 -1.0047  0.9970 -2.2257
10761TIP3   OH253773   4.383   0.256   3.867 -0.1942 -0.7155  0.3136
10761TIP3    H153774   4.304   0.285   3.821 -0.2431 -0.9827  0.2301
10761TIP3    H253775   4.419   0.187   3.812  0.5603 -0.0317 -0.0747
10762TIP3   OH253776   1.866   5.047   2.537 -0.6245 -0.3782 -0.1841
10762TIP3    H153777   1.930   5.020   2.472 -0.2531 -0.9718  0.4131
10762TIP3    H253778   1.882   4.989   2.612 -0.9179  0.4089  0.5045
10763TIP3   OH253779   2.079   2.293  12.949  0.5897  0.5208 -0.1249
10763TIP3    H153780   2.125   2.374  12.968  1.1149  0.4695 -1.0942
10763TIP3    H253781   2.109   2.268  12.861 -0.3699 -0.1537 -0.2851
10764TIP3   OH253782   3.322   2.254  15.053  0.1622  0.0638  0.1682
10764TIP3    H153783   3.350   2.239  14.963 -0.8419 -0.5855 -0.0600
10764TIP3    H253784   3.255   2.322  15.046 -0.6415 -0.6977  0.2826
10765TIP3   OH253785   4.373   5.664   1.710 -0.6644 -0.7595  0.3011
10765TIP3    H153786   4.391   5.599   1.779 -0.6929 -0.4442  0.6092
10765TIP3    H253787   4.284   5.645   1.681 -1.3089  0.1860  1.5625
10766TIP3   OH253788   2.899   2.712   1.107 -0.4899 -0.1399  0.4775
10766TIP3    H153789   2.836   2.648   1.072 -0.7404  0.7151 -0.7098
10766TIP3    H253790   2.864   2.797   1.080 -0.2863  0.5460  2.2274
10767TIP3   OH253791   1.395   5.353   2.950 -0.1126  0.6301  0.1054
10767TIP3    H153792   1.316   5.354   2.896 -0.1320 -1.3612  0.0298
10767TIP3    H253793   1.369   5.311   3.031  0.9855 -0.6623 -0.1742
10768TIP3   OH253794   6.780   2.609   2.931 -0.0982 -0.6938  0.1576
10768TIP3    H153795   6.836   2.679   2.966  0.6085 -0.5100 -1.2542
10768TIP3    H253796   6.814   2.593   2.843 -1.2311 -1.7553 -0.1168
10769TIP3   OH253797   2.044   1.341   3.412 -0.1885  0.4119  0.0134
10769TIP3    H153798   2.024   1.434   3.427 -0.8627  0.2370  0.2091
10769TIP3    H253799   2.132   1.330   3.449 -0.5764  0.7078  1.0707
10770TIP3   OH253800   3.285   6.300   2.980  0.1245  0.3524  0.2581
10770TIP3    H153801   3.300   6.320   3.072 -0.3498 -0.4513  0.5221
10770TIP3    H253802   3.199   6.337   2.961  0.3092  0.6945  0.0805
10771TIP3   OH253803   1.881   2.787  13.174 -0.1324  0.0314  0.3323
10771TIP3    H153804   1.787   2.796  13.186  0.0660  0.8768  1.4437
10771TIP3    H253805   1.918   2.863  13.218  1.2312 -1.7929  2.5510
10772TIP3   OH253806   4.766   4.214   3.074 -0.6152  0.1419  0.0938
10772TIP3    H153807   4.740   4.284   3.015 -1.4984  0.0789  0.3818
10772TIP3    H253808   4.860   4.206   3.063 -0.4234  1.6777  0.3863
10773TIP3   OH253809   3.243   2.212  13.649  0.1286  0.4198 -0.0881
10773TIP3    H153810   3.182   2.161  13.702  2.2235 -1.3514  0.7936
10773TIP3    H253811   3.292   2.264  13.713  1.3796 -0.2924 -0.4251
10774TIP3   OH253812   5.631   3.234  16.739  0.2596 -0.2392  0.2893
10774TIP3    H153813   5.539   3.246  16.714 -0.2381 -0.4451  1.9611
10774TIP3    H253814   5.679   3.250  16.657 -0.9998  3.2568  0.0333
10775TIP3   OH253815   4.534   1.447  16.987  0.6877 -0.3522  0.2599
10775TIP3    H153816   4.593   1.459  16.913 -0.3620  1.0999 -0.3729
10775TIP3    H253817   4.468   1.515  16.978 -0.7618 -1.5346  1.2980
10776TIP3   OH253818   0.339   4.440  15.473  0.4532  0.6538  0.1076
10776TIP3    H153819   0.346   4.533  15.493 -0.8311  1.1646 -1.6098
10776TIP3    H253820   0.256   4.431  15.427  0.1016 -1.5116  1.0302
10777TIP3   OH253821   6.302   5.082  11.812  0.5513  0.0454 -0.0252
10777TIP3    H153822   6.300   5.051  11.903  2.4599  1.1619  0.4655
10777TIP3    H253823   6.313   5.177  11.821 -0.0017  0.2572 -1.4459
10778TIP3   OH253824   5.800   1.100  14.064 -0.4682  0.1354  0.3205
10778TIP3    H153825   5.893   1.084  14.074 -0.2862  1.3398  0.7812
10778TIP3    H253826   5.785   1.096  13.969 -0.4104 -2.2588  0.3526
10779TIP3   OH253827   2.222   0.606   0.984 -0.0600  0.5728 -0.0650
10779TIP3    H153828   2.311   0.571   0.979 -0.0109  0.7168 -0.2096
10779TIP3    H253829   2.231   0.682   1.042 -0.3042 -0.0859  0.8510
10780TIP3   OH253830   6.226   1.738  14.069  0.2301 -0.4414 -0.2335
10780TIP3    H153831   6.155   1.766  14.126  0.3083 -2.8662  1.1762
10780TIP3    H253832   6.293   1.704  14.128  1.9126  0.3184 -1.6203
10781TIP3   OH253833   6.546   4.764  13.561  0.2582 -0.3894  0.0720
10781TIP3    H153834   6.590   4.782  13.644 -0.6484  2.2479  0.0746
10781TIP3    H253835   6.595   4.814  13.496  0.9655 -2.4327 -1.0604
10782TIP3   OH253836   3.262   0.621   0.470  0.3475  0.0548 -0.1163
10782TIP3    H153837   3.221   0.668   0.543  0.5512  0.6649 -0.3925
10782TIP3    H253838   3.267   0.686   0.399 -1.1536 -0.8972 -1.1714
10783TIP3   OH253839   1.809   2.032  12.343 -0.4180 -0.1077 -0.3915
10783TIP3    H153840   1.737   2.076  12.389 -0.3663 -0.5009  0.0755
10783TIP3    H253841   1.815   1.946  12.385  0.5363  0.0381 -0.2049
10784TIP3   OH253842   1.750   0.464  13.998 -0.0960 -0.0475  0.1291
10784TIP3    H153843   1.793   0.439  14.080 -2.1196 -0.3727  1.1343
10784TIP3    H253844   1.713   0.383  13.964  1.5683 -0.1096 -1.6875
10785TIP3   OH253845   3.406   0.203  13.154 -0.1062  0.5087 -0.4128
10785TIP3    H153846   3.409   0.139  13.083 -0.4999  0.2655 -0.2126
10785TIP3    H253847   3.434   0.285  13.113 -0.7902  0.4739 -0.9729
10786TIP3   OH253848   2.685   3.805  16.254  0.2133 -0.2065 -0.0226
10786TIP3    H153849   2.731   3.847  16.327  0.9750 -0.1879 -0.5054
10786TIP3    H253850   2.692   3.711  16.272 -0.7355 -0.1674  0.6015
10787TIP3   OH253851   2.724   5.303  14.231  0.3672  0.2278 -0.0060
10787TIP3    H153852   2.697   5.225  14.183  2.4846 -0.9557  0.6289
10787TIP3    H253853   2.689   5.290  14.319 -0.6757  0.8321 -0.3015
10788TIP3   OH253854   3.506   4.326   3.606  0.8288 -0.2289  0.2527
10788TIP3    H153855   3.446   4.275   3.661 -0.3897  0.6519 -0.2167
10788TIP3    H253856   3.471   4.316   3.517  0.5470  1.3960  0.1527
10789TIP3   OH253857   0.480   4.108  14.602  0.5703  0.3547  0.2478
10789TIP3    H153858   0.423   4.042  14.642  1.3271 -0.7785 -0.4952
10789TIP3    H253859   0.506   4.070  14.518 -1.7349  3.0697 -1.8735
10790TIP3   OH253860   3.282   4.689   5.554 -0.3519  0.1096 -0.1652
10790TIP3    H153861   3.208   4.708   5.496  0.7276  1.4691 -1.1565
10790TIP3    H253862   3.331   4.771   5.559  1.7481 -1.0366 -0.5111
10791TIP3   OH253863   6.761   1.589  14.746  0.0470  0.1273  0.5050
10791TIP3    H153864   6.688   1.540  14.784 -0.3802 -0.1864 -0.6852
10791TIP3    H253865   6.738   1.599  14.654  1.1410  0.7217  0.2794
10792TIP3   OH253866   2.737   5.533   3.757 -0.1131  0.0827 -0.1116
10792TIP3    H153867   2.749   5.439   3.769  0.6337  0.1916  0.0764
10792TIP3    H253868   2.718   5.543   3.663  2.0991 -0.0718 -0.6412
10793TIP3   OH253869   5.000   6.801  14.424 -0.8085 -0.0654  0.0083
10793TIP3    H153870   5.066   6.795  14.493  0.7270 -0.9380 -1.4495
10793TIP3    H253871   4.923   6.759  14.461  0.2541 -1.3300  0.9056
10794TIP3   OH253872   6.319   5.451  13.209  0.2945 -0.6117 -1.0282
10794TIP3    H153873   6.389   5.414  13.263  0.3809  0.7622 -0.1644
10794TIP3    H253874   6.281   5.520  13.263 -1.9221 -1.4771 -1.3664
10795TIP3   OH253875   1.054   4.169   5.255  0.5480  0.2589  0.2798
10795TIP3    H153876   1.023   4.152   5.166  2.4238 -0.0155 -0.3775
10795TIP3    H253877   0.983   4.140   5.312 -1.7935  2.8054 -1.1301
10796TIP3   OH253878   5.678   1.718   5.889  0.7368 -0.8175  0.4025
10796TIP3    H153879   5.639   1.666   5.959 -0.6547  0.8671  0.9266
10796TIP3    H253880   5.683   1.657   5.815 -2.4561 -1.3266  0.4600
10797TIP3   OH253881   5.754   3.812  14.979 -0.4017  0.3686 -0.1367
10797TIP3    H153882   5.827   3.849  14.930 -1.2676  0.6891 -1.2130
10797TIP3    H253883   5.745   3.869  15.055  0.7057  0.0913  0.2306
10798TIP3   OH253884   3.809   3.413   2.622 -0.2081  0.5534 -0.0751
10798TIP3    H153885   3.831   3.321   2.637 -2.5111  0.0209  0.5091
10798TIP3    H253886   3.753   3.411   2.544 -1.8680  1.1367  1.0284
10799TIP3   OH253887   5.566   1.557   3.710 -0.4796 -0.0105 -0.1355
10799TIP3    H153888   5.512   1.632   3.684  0.2479  0.5264 -0.1228
10799TIP3    H253889   5.510   1.506   3.768 -1.9835 -0.9455 -2.2499
10800TIP3   OH253890   3.533   2.263  12.208 -0.4903  0.8058 -0.2491
10800TIP3    H153891   3.580   2.266  12.125  1.0905 -0.1018  0.5501
10800TIP3    H253892   3.564   2.182  12.250 -1.8934  0.7986  0.8561
10801TIP3   OH253893   3.036   6.250   5.203  0.0175 -0.0729 -0.1048
10801TIP3    H153894   3.130   6.236   5.213  0.0500 -0.2632 -0.6338
10801TIP3    H253895   3.027   6.298   5.120 -0.1533  2.4382  1.2723
10802TIP3   OH253896   0.760   0.701   2.486  0.0353 -0.4249 -0.3267
10802TIP3    H153897   0.778   0.794   2.473  2.6665 -0.5737  1.3874
10802TIP3    H253898   0.825   0.655   2.433 -2.3697 -1.4308 -2.6005
10803TIP3   OH253899   1.332   6.043  13.276 -0.5908 -0.3212  0.0701
10803TIP3    H153900   1.275   6.117  13.297  0.5414  0.7434 -0.4830
10803TIP3    H253901   1.390   6.036  13.352 -1.6942 -1.6902  0.8340
10804TIP3   OH253902   6.662   5.850  11.758  0.0153  0.3993 -0.5194
10804TIP3    H153903   6.748   5.892  11.765  0.1187  0.2214 -0.7023
10804TIP3    H253904   6.678   5.774  11.702  0.6350 -2.0128  2.6727
10805TIP3   OH253905   3.099   5.315  16.664 -0.5113 -0.7051 -0.0061
10805TIP3    H153906   3.082   5.385  16.726  2.1222 -0.9167  1.0923
10805TIP3    H253907   3.140   5.358  16.589  0.2731 -0.9234  0.2828
10806TIP3   OH253908   4.204   4.993   1.046 -0.3893 -0.5541  0.2668
10806TIP3    H153909   4.274   5.040   1.001  0.3054 -0.1357  1.7279
10806TIP3    H253910   4.180   5.050   1.119 -1.4338 -1.2444  0.4827
10807TIP3   OH253911   5.241   0.333   5.639  0.1316  0.4032  0.1872
10807TIP3    H153912   5.154   0.322   5.678  0.1702  1.1737  0.5016
10807TIP3    H253913   5.288   0.389   5.700  0.5587  0.7250 -0.4261
10808TIP3   OH253914   5.055   4.583  11.507  0.1066 -0.2669  0.3436
10808TIP3    H153915   5.070   4.575  11.413 -1.4074 -1.0060  0.1424
10808TIP3    H253916   4.962   4.604  11.515  0.5267  1.2713  1.6296
10809TIP3   OH253917   5.864   1.115   0.403 -0.2133  0.2650 -0.0323
10809TIP3    H153918   5.833   1.087   0.489  0.1126 -1.9228 -0.5437
10809TIP3    H253919   5.795   1.170   0.368 -1.9274 -1.5387  0.3212
10810TIP3   OH253920   0.163   6.445   2.818 -0.4952 -0.8444 -0.3003
10810TIP3    H153921   0.198   6.358   2.836 -0.0509 -0.6341 -0.1284
10810TIP3    H253922   0.132   6.440   2.728  1.0936 -0.6911 -0.8929
10811TIP3   OH253923   2.709   2.065  10.850 -0.0512 -0.3838 -0.6181
10811TIP3    H153924   2.775   2.045  10.784  2.0422 -1.3161  1.5823
10811TIP3    H253925   2.672   2.149  10.823  3.5275  1.2644 -1.0068
10812TIP3   OH253926   1.819   2.135  15.176  0.0766  0.5451 -0.0658
10812TIP3    H153927   1.819   2.154  15.082  0.3907  1.2514  0.0740
10812TIP3    H253928   1.892   2.185  15.211  1.1063 -1.1171  0.3004
10813TIP3   OH253929   0.655   5.928   0.155  0.0174 -0.3917  0.1886
10813TIP3    H153930   0.720   5.931   0.085 -0.2870 -1.3953 -0.1392
10813TIP3    H253931   0.665   5.842   0.194 -1.4982 -0.7941 -0.2388
10814TIP3   OH253932   0.044   6.581   1.272  0.1622 -0.3629  0.7446
10814TIP3    H153933   0.100   6.504   1.271  1.4801  0.5668  0.5133
10814TIP3    H253934  -0.044   6.547   1.253  0.7183 -1.7868  0.6001
10815TIP3   OH253935   3.111   0.473   5.330  0.6201  0.9164 -0.1725
10815TIP3    H153936   3.115   0.416   5.253  0.2848 -0.6202  0.9052
10815TIP3    H253937   3.024   0.514   5.325 -0.1196 -0.5388  0.2892
10816TIP3   OH253938   1.707   6.728  15.678  0.0305  0.2249 -0.2985
10816TIP3    H153939   1.724   6.773  15.596 -0.2955  2.3673  0.7227
10816TIP3    H253940   1.611   6.730  15.687 -0.0050 -0.8226 -0.2776
10817TIP3   OH253941   5.387   4.345  14.519  0.1540 -0.6712 -1.0679
10817TIP3    H153942   5.463   4.333  14.462  1.9059 -1.3699  1.2473
10817TIP3    H253943   5.383   4.439  14.534  1.8852 -0.7590  0.3347
10818TIP3   OH253944   1.824   0.321   4.690 -0.0400  0.1093 -0.3540
10818TIP3    H153945   1.899   0.309   4.748  0.2957  1.4273 -0.4968
10818TIP3    H253946   1.785   0.234   4.684  1.9814 -0.8310 -0.9741
10819TIP3   OH253947   3.820   3.702   2.243  0.2609 -0.1757  0.1440
10819TIP3    H153948   3.882   3.772   2.223 -0.0567  0.9028  2.6341
10819TIP3    H253949   3.845   3.673   2.331 -1.2562 -1.4133  0.2023
10820TIP3   OH253950   4.052   6.652  16.356  0.0402 -0.4174 -0.2246
10820TIP3    H153951   3.987   6.720  16.341 -0.3879  0.3220  3.7914
10820TIP3    H253952   4.131   6.700  16.383  0.9698 -1.4471 -0.9951
10821TIP3   OH253953   2.972   3.539  12.683  0.2299  0.0929 -0.0654
10821TIP3    H153954   2.886   3.511  12.714  0.4259 -0.2933  0.1401
10821TIP3    H253955   3.010   3.586  12.757  0.3253 -0.0216 -0.0410
10822TIP3   OH253956   2.482   0.430  16.248 -0.1412 -0.4020 -0.1591
10822TIP3    H153957   2.502   0.518  16.282  0.8554 -0.7889  0.2896
10822TIP3    H253958   2.498   0.437  16.154 -2.0261  0.4254 -0.4572
10823TIP3   OH253959   3.183   6.111  14.290 -0.5844  0.2362  0.2392
10823TIP3    H153960   3.226   6.108  14.375 -1.1305  0.0319  0.5127
10823TIP3    H253961   3.252   6.091  14.227 -0.3104 -0.2544  0.6881
10824TIP3   OH253962   6.215   4.532  14.356 -0.3638 -0.5085  0.4937
10824TIP3    H153963   6.121   4.533  14.336 -0.4694 -1.0105  0.9492
10824TIP3    H253964   6.257   4.521  14.270 -0.6672  0.7326  0.1662
10825TIP3   OH253965   2.540   6.704   5.093 -0.2455  0.3751  0.1545
10825TIP3    H153966   2.458   6.744   5.066 -0.9773 -1.5102 -0.6009
10825TIP3    H253967   2.514   6.635   5.154  1.0973  2.0721  2.8882
10826TIP3   OH253968   1.558   0.518  13.288  0.2336  0.0575 -0.2237
10826TIP3    H153969   1.646   0.507  13.324  1.0329  4.2511 -0.4520
10826TIP3    H253970   1.571   0.525  13.194 -0.7731 -1.8312 -0.5674
10827TIP3   OH253971   0.761   0.093   5.283 -0.2613  0.1160 -0.1050
10827TIP3    H153972   0.681   0.054   5.247 -1.2036  3.6256 -2.2641
10827TIP3    H253973   0.829   0.028   5.265 -1.9801 -1.3383 -1.8063
10828TIP3   OH253974   2.427   4.812  11.280 -0.2559  0.2195  0.1879
10828TIP3    H153975   2.442   4.767  11.197 -1.0371  0.4836 -0.1047
10828TIP3    H253976   2.332   4.819  11.287 -0.2044  0.2205  1.0995
10829TIP3   OH253977   6.046   0.844   2.243 -0.0658 -0.2156 -0.0886
10829TIP3    H153978   6.063   0.781   2.172 -0.4122  2.9539 -3.2962
10829TIP3    H253979   6.120   0.832   2.303  0.2736 -3.0599 -0.8865
10830TIP3   OH253980   1.392   4.753   3.903  0.0113  0.3158 -0.0724
10830TIP3    H153981   1.410   4.808   3.826  0.3535  0.6849  0.2684
10830TIP3    H253982   1.356   4.673   3.866 -0.7704  0.8775 -0.5551
10831TIP3   OH253983   5.713   2.587  11.881  0.0144  0.0819 -0.1478
10831TIP3    H153984   5.714   2.535  11.961 -0.0240  2.3602  1.4148
10831TIP3    H253985   5.798   2.571  11.841  0.9866  0.6580  1.5861
10832TIP3   OH253986   0.863   5.809  16.706  0.0577 -0.2036  0.7237
10832TIP3    H153987   0.905   5.895  16.696 -0.4273 -0.1153 -0.8133
10832TIP3    H253988   0.915   5.765  16.773  1.4846  0.5821  0.1854
10833TIP3   OH253989   4.144   6.193   3.088 -0.6858 -0.5966 -0.3926
10833TIP3    H153990   4.079   6.127   3.108 -0.0080 -1.5709 -1.2819
10833TIP3    H253991   4.213   6.180   3.153  1.1689 -3.2736 -2.6426
10834TIP3   OH253992   0.990   2.802  11.007 -0.0774 -0.5217 -0.4413
10834TIP3    H153993   1.052   2.760  10.947 -1.5918  0.2758 -2.7103
10834TIP3    H253994   0.911   2.748  11.000 -0.6935  0.3352 -0.1475
10835TIP3   OH253995   6.012   6.234   6.127  0.2152  0.4129 -0.4450
10835TIP3    H153996   5.953   6.262   6.197  0.5866 -1.3578  0.6463
10835TIP3    H253997   5.958   6.181   6.069  0.6687 -1.3554  0.6477
10836TIP3   OH253998   4.658   1.027   4.822 -0.0052  0.0612  0.5720
10836TIP3    H153999   4.652   1.062   4.733  1.2017 -0.4533  0.2597
10836TIP3    H254000   4.576   1.052   4.864 -0.5562  0.3829 -0.6600
10837TIP3   OH254001   2.497   1.778  16.902 -0.6278  0.2669 -0.0800
10837TIP3    H154002   2.518   1.828  16.823  1.8824  0.1425  0.4413
10837TIP3    H254003   2.465   1.844  16.964 -1.0821  0.5913 -0.6453
10838TIP3   OH254004   5.666   4.411   5.038 -0.0513  0.6591  0.5812
10838TIP3    H154005   5.617   4.362   5.105 -0.9729  1.1517  0.2883
10838TIP3    H254006   5.737   4.453   5.086 -0.4528  0.6595  1.1894
10839TIP3   OH254007   1.616   5.689   3.799  0.5828  0.5041  0.1196
10839TIP3    H154008   1.634   5.628   3.727 -2.1503  0.4457 -0.6130
10839TIP3    H254009   1.521   5.684   3.812  0.7905  1.7212  2.6876
10840TIP3   OH254010   6.216   1.146   2.568  0.3196  0.3659  0.4408
10840TIP3    H154011   6.175   1.231   2.580 -1.1447 -0.1744 -0.4578
10840TIP3    H254012   6.142   1.086   2.552  1.4150 -0.7821 -0.4991
10841TIP3   OH254013   1.820   2.524  15.299 -0.5988 -0.2617 -0.0758
10841TIP3    H154014   1.814   2.534  15.394  0.9389 -2.0462  0.2609
10841TIP3    H254015   1.729   2.514  15.270 -1.2875  2.3862  0.8821
10842TIP3   OH254016   2.228   5.412  16.390 -0.4629  0.2925 -0.2793
10842TIP3    H154017   2.237   5.466  16.468 -0.1221 -1.5946  1.0728
10842TIP3    H254018   2.153   5.356  16.409  0.5340 -1.2184 -0.6206
10843TIP3   OH254019   4.067   1.610  15.229  0.5946  0.1923  0.1391
10843TIP3    H154020   3.999   1.605  15.162  0.8107  0.2634 -0.0878
10843TIP3    H254021   4.128   1.540  15.206  0.4553 -0.0502  0.5018
10844TIP3   OH254022   1.062   5.639  16.273  0.0559  0.1589  0.5628
10844TIP3    H154023   0.987   5.630  16.332  0.3347  0.3740  0.9603
10844TIP3    H254024   1.039   5.588  16.196 -0.3134 -0.1387  0.8646
10845TIP3   OH254025   1.024   3.604  16.877  0.3652  0.0773 -0.0123
10845TIP3    H154026   0.947   3.557  16.909  1.2125 -0.3284  1.5465
10845TIP3    H254027   0.996   3.696  16.871 -0.1170 -0.0036  0.9264
10846TIP3   OH254028   4.261   0.431  17.182  0.1268  0.3851  0.6565
10846TIP3    H154029   4.326   0.365  17.207  0.8826  1.2575  1.0876
10846TIP3    H254030   4.197   0.431  17.252  0.4969  0.5798  0.9975
10847TIP3   OH254031   5.777   0.201  13.212  0.0147  0.2590  0.0262
10847TIP3    H154032   5.827   0.189  13.293  1.6478  0.0900 -0.9661
10847TIP3    H254033   5.688   0.175  13.236  0.6677 -0.7996  1.5044
10848TIP3   OH254034   3.975   3.540   1.008 -0.0656  0.2618 -0.1002
10848TIP3    H154035   3.952   3.610   1.070 -2.0051  0.0428 -0.5131
10848TIP3    H254036   4.063   3.562   0.979 -0.3722  2.1851  0.2916
10849TIP3   OH254037   4.141   6.044   4.786 -0.0047 -0.4480 -0.4836
10849TIP3    H154038   4.145   5.954   4.754  0.3238 -0.2293 -1.0667
10849TIP3    H254039   4.078   6.087   4.727 -0.1133 -0.2799 -0.2453
10850TIP3   OH254040   1.574   0.593   1.517 -0.2075 -0.4045 -0.2208
10850TIP3    H154041   1.499   0.583   1.577  0.0281 -0.5458  0.0540
10850TIP3    H254042   1.651   0.584   1.574  0.0222 -1.1738 -0.6424
10851TIP3   OH254043   6.421   5.967   4.730 -0.1554 -0.4362 -0.5315
10851TIP3    H154044   6.448   6.057   4.716  0.9171 -1.0253 -2.6720
10851TIP3    H254045   6.452   5.945   4.818 -0.0862  1.1360 -0.1445
10852TIP3   OH254046   6.394   6.255  15.181  0.4393 -0.1161  0.1960
10852TIP3    H154047   6.421   6.164  15.169  1.4973  0.1735  0.2946
10852TIP3    H254048   6.446   6.304  15.116 -2.4252  0.0730 -2.1694
10853TIP3   OH254049   2.291   0.780   1.183 -0.2801 -0.4047 -0.2589
10853TIP3    H154050   2.381   0.789   1.151 -0.6336  1.4041 -0.8710
10853TIP3    H254051   2.299   0.729   1.264  1.2964 -0.1590 -0.2285
10854TIP3   OH254052   6.298   5.834  13.981  0.4046 -0.4207 -0.1345
10854TIP3    H154053   6.315   5.890  14.057  1.6693 -1.2377  0.2303
10854TIP3    H254054   6.336   5.749  14.005 -1.3734 -1.4228 -0.7009
10855TIP3   OH254055   2.407   4.356  17.069 -0.1567  0.9507  0.1116
10855TIP3    H154056   2.390   4.428  17.130 -0.9962  0.2362  0.7412
10855TIP3    H254057   2.487   4.316  17.103 -0.1952  1.0252  0.2931
10856TIP3   OH254058   1.236   2.321  11.028 -0.4974 -0.3678  0.1475
10856TIP3    H154059   1.323   2.363  11.033 -2.0206  3.0434  1.0988
10856TIP3    H254060   1.197   2.356  10.949 -1.1197 -1.7790 -0.1988
10857TIP3   OH254061   4.581   4.138  13.150  0.5525 -0.6554  0.4791
10857TIP3    H154062   4.659   4.179  13.186 -0.3389 -0.2301  1.9929
10857TIP3    H254063   4.524   4.123  13.225 -1.2423 -0.0803 -0.7030
10858TIP3   OH254064   3.742   6.150   1.961 -0.2714 -0.6687  0.1968
10858TIP3    H154065   3.668   6.211   1.955 -1.8007 -2.3729  0.7445
10858TIP3    H254066   3.762   6.128   1.870 -1.7586 -1.6429  0.0594
10859TIP3   OH254067   2.184   5.035   3.037 -0.1675  0.3211  0.0548
10859TIP3    H154068   2.159   5.111   2.986  0.5148 -1.2751 -2.8528
10859TIP3    H254069   2.112   4.973   3.026  0.5119 -0.4904  0.0721
10860TIP3   OH254070   5.569   4.193  16.055  0.2021 -0.1528  0.3052
10860TIP3    H154071   5.584   4.114  16.004  0.5892  0.7699 -1.0564
10860TIP3    H254072   5.514   4.165  16.128 -1.2887 -1.3255 -1.1992
10861TIP3   OH254073   3.495   2.610  14.527 -0.5546  0.2347  0.0230
10861TIP3    H154074   3.549   2.533  14.543  0.6156  1.0025 -0.0837
10861TIP3    H254075   3.485   2.614  14.432 -1.0957 -0.0973  0.0637
10862TIP3   OH254076   4.626   6.001  12.279 -0.3491 -0.2311 -0.3660
10862TIP3    H154077   4.641   5.973  12.188 -0.7829 -0.8392 -0.2632
10862TIP3    H254078   4.713   6.006  12.318 -0.1916 -0.4534 -0.6850
10863TIP3   OH254079   0.963   5.891   1.838 -0.7428 -0.5869  0.0391
10863TIP3    H154080   1.056   5.872   1.844 -0.8385 -0.6771  2.3851
10863TIP3    H254081   0.950   5.925   1.750  1.5043 -0.5410 -0.3221
10864TIP3   OH254082   5.124   6.009   6.106 -0.2478 -0.0836  0.2301
10864TIP3    H154083   5.157   5.942   6.165  0.7166  0.1694  0.0049
10864TIP3    H254084   5.179   6.001   6.028 -0.5135  0.5676 -0.0309
10865TIP3   OH254085   4.122   0.173  14.149 -0.1308  0.1497 -0.1750
10865TIP3    H154086   4.102   0.265  14.132 -1.2505  0.1180  0.8219
10865TIP3    H254087   4.184   0.175  14.222  0.3901  0.1293 -0.6144
10866TIP3   OH254088   0.671   0.461   6.434  0.4342 -0.7051  0.2706
10866TIP3    H154089   0.664   0.435   6.342  0.1387  2.2132 -0.6291
10866TIP3    H254090   0.604   0.409   6.479  0.6549 -2.2544 -1.1164
10867TIP3   OH254091   0.311   3.074   4.980 -0.0108 -0.0879  0.8309
10867TIP3    H154092   0.245   3.080   5.049 -2.0564  0.4634 -1.0763
10867TIP3    H254093   0.267   3.030   4.907  1.9481 -0.3181 -0.2905
10868TIP3   OH254094   5.875   3.474   0.139 -0.3000  0.3774  0.0494
10868TIP3    H154095   5.894   3.381   0.149  1.0326  0.6465  0.2006
10868TIP3    H254096   5.860   3.506   0.228 -0.9716  0.2724 -0.0219
10869TIP3   OH254097   2.630   1.594  16.614  0.3528 -0.4258  0.5672
10869TIP3    H154098   2.578   1.653  16.561 -1.1549 -0.8305  1.5457
10869TIP3    H254099   2.591   1.507  16.600  2.7547 -1.3361 -1.1511
10870TIP3   OH254100   0.397   6.003   4.260 -0.3868  0.0610  0.0149
10870TIP3    H154101   0.320   6.047   4.296 -1.7619 -0.4765 -2.0676
10870TIP3    H254102   0.435   5.956   4.334 -2.2702  0.0753  1.0461
10871TIP3   OH254103   5.245   3.270  11.627  0.0165 -0.2795 -0.2313
10871TIP3    H154104   5.177   3.337  11.634  0.1459 -0.2457  1.1038
10871TIP3    H254105   5.270   3.253  11.718  1.3987 -0.6982 -0.6713
10872TIP3   OH254106   4.970   1.835  11.539 -0.7734  0.2620 -0.3274
10872TIP3    H154107   5.008   1.886  11.611 -3.1900 -0.0782  1.3232
10872TIP3    H254108   4.941   1.901  11.476  1.7060  0.5507 -1.2643
10873TIP3   OH254109   6.610   1.218   4.147 -0.2535 -0.3568 -0.7008
10873TIP3    H154110   6.654   1.158   4.207 -0.2934 -0.4433 -0.7579
10873TIP3    H254111   6.679   1.250   4.090 -0.6513 -2.5013 -2.5118
10874TIP3   OH254112   0.630   4.934  11.916 -0.3384 -0.7139 -0.8010
10874TIP3    H154113   0.565   4.952  11.849  0.4538  1.5994 -1.0330
10874TIP3    H254114   0.644   5.018  11.960 -0.8351 -2.1035  2.3266
10875TIP3   OH254115   3.301   3.647  14.188  0.0660 -0.4082 -0.4965
10875TIP3    H154116   3.367   3.704  14.149  2.1550 -1.8319  0.7380
10875TIP3    H254117   3.270   3.593  14.116 -0.2295  0.6959 -1.2139
10876TIP3   OH254118   3.906   2.968  13.665 -0.4030  0.0492 -0.2913
10876TIP3    H154119   3.917   3.056  13.701  1.7237  0.6811 -2.2169
10876TIP3    H254120   3.944   2.910  13.731  1.8139  0.9953 -0.6388
10877TIP3   OH254121   4.969   5.447   4.410 -0.3948 -0.7407 -0.1544
10877TIP3    H154122   5.034   5.378   4.423 -1.7328 -1.6689  2.4589
10877TIP3    H254123   4.888   5.399   4.388 -0.5473  0.3042 -2.1384
10878TIP3   OH254124   5.350   2.295   3.059  0.4829  0.4810  0.1737
10878TIP3    H154125   5.328   2.214   3.106  0.1150  1.3314  1.5081
10878TIP3    H254126   5.368   2.266   2.969 -0.8066 -0.9349  0.3272
10879TIP3   OH254127   5.214   3.261  12.493  0.0418 -0.9043  0.0069
10879TIP3    H154128   5.189   3.335  12.548 -0.9121 -1.2874  0.1178
10879TIP3    H254129   5.155   3.190  12.520  0.2709 -1.4080 -0.7728
10880TIP3   OH254130   2.232   0.167   5.835  0.0933 -0.3809  0.4573
10880TIP3    H154131   2.147   0.152   5.792  0.0549  1.1449 -0.0447
10880TIP3    H254132   2.280   0.086   5.820 -1.2426 -1.2640  0.7012
10881TIP3   OH254133   6.313   4.106   3.702  0.2305  0.2968  0.0757
10881TIP3    H154134   6.383   4.166   3.731  1.0813 -0.2004 -0.8976
10881TIP3    H254135   6.234   4.139   3.746  1.2213  0.3228  1.9557
10882TIP3   OH254136   1.209   3.550   6.106  0.1271 -0.0391 -0.4950
10882TIP3    H154137   1.299   3.534   6.134  0.3969 -0.3105 -1.4789
10882TIP3    H254138   1.160   3.476   6.140 -0.3575  1.5871  2.7018
10883TIP3   OH254139   6.106   3.877  11.617 -0.7164 -0.4281 -0.7499
10883TIP3    H154140   6.057   3.837  11.689 -1.4204 -0.3481 -1.1807
10883TIP3    H254141   6.189   3.829  11.616 -0.6505 -0.3534  0.1855
10884TIP3   OH254142   1.426   5.393  11.934  0.1429 -0.1395 -0.0053
10884TIP3    H154143   1.392   5.421  12.019 -0.3613  0.5710 -0.4380
10884TIP3    H254144   1.366   5.323  11.906  0.2185 -0.2667  0.1460
10885TIP3   OH254145   0.876   6.383   1.646 -0.2643  0.0117  0.2360
10885TIP3    H154146   0.834   6.455   1.600  0.0829  0.3984  0.5102
10885TIP3    H254147   0.842   6.387   1.735 -0.9937 -0.7834  0.0018
10886TIP3   OH254148   4.704   4.511  10.951 -0.1994 -0.2028  0.4217
10886TIP3    H154149   4.729   4.546  10.865 -1.4398 -0.8226 -0.2161
10886TIP3    H254150   4.759   4.559  11.012 -0.3033  1.3248 -0.5998
10887TIP3   OH254151   2.670   3.943  14.568 -0.4931 -0.0424 -0.4900
10887TIP3    H154152   2.723   4.016  14.534 -0.5434 -0.5009 -1.6221
10887TIP3    H254153   2.598   3.985  14.614 -0.0239  0.6138 -0.3374
10888TIP3   OH254154   1.088   6.498  15.713  0.2069  0.3557 -0.1282
10888TIP3    H154155   1.041   6.429  15.667 -0.1193  1.1180 -0.9771
10888TIP3    H254156   1.124   6.553  15.643  0.6804  0.8943  0.5279
10889TIP3   OH254157   2.573   0.206   4.958  0.4230 -0.0846 -0.3143
10889TIP3    H154158   2.569   0.226   5.051 -0.5823 -3.7901  0.6173
10889TIP3    H254159   2.524   0.277   4.916 -0.4580  0.8648  2.1349
10890TIP3   OH254160   3.574   0.145  13.437  0.1219  0.9165 -0.0512
10890TIP3    H154161   3.657   0.182  13.467 -0.2569  0.3282  1.8486
10890TIP3    H254162   3.512   0.167  13.506 -1.3353  1.3256 -1.4323
10891TIP3   OH254163   2.904   0.436  12.666 -0.3341  0.6942  0.1233
10891TIP3    H154164   2.919   0.453  12.573  4.2885  1.3474  0.7544
10891TIP3    H254165   2.941   0.349  12.681 -2.4875 -0.1071  1.1555
10892TIP3   OH254166   3.024   4.080   1.035  0.6739  0.1686 -0.8932
10892TIP3    H154167   3.017   4.162   1.084  0.8157 -0.3193 -0.0248
10892TIP3    H254168   3.113   4.049   1.053  0.9191  0.2482 -1.9153
10893TIP3   OH254169   3.271   3.587   2.789 -0.6257  0.0202 -0.1520
10893TIP3    H154170   3.223   3.659   2.831 -1.1064 -0.1116 -0.4749
10893TIP3    H254171   3.359   3.592   2.827 -0.4351  1.2401 -0.7217
10894TIP3   OH254172   5.896   2.006  14.501  0.1557 -0.3644 -0.7492
10894TIP3    H154173   5.859   2.010  14.589 -1.1226  1.6279 -1.3174
10894TIP3    H254174   5.821   2.020  14.443  1.1184 -0.7670 -2.1251
10895TIP3   OH254175   5.728   1.477   5.743 -0.2606  0.0738 -0.0987
10895TIP3    H154176   5.723   1.501   5.651  1.5426 -0.6501 -0.4287
10895TIP3    H254177   5.707   1.383   5.745  0.7836 -0.1702  0.0558
10896TIP3   OH254178   4.657   0.822   2.715  0.3871 -0.0106 -0.0474
10896TIP3    H154179   4.624   0.810   2.804  1.3188  0.4560  0.3796
10896TIP3    H254180   4.642   0.914   2.696  0.3148 -0.0792 -0.3304
10897TIP3   OH254181   0.087   4.010   1.379 -0.2321 -0.2154  0.8374
10897TIP3    H154182   0.006   4.046   1.416 -0.5726 -0.2824  0.1536
10897TIP3    H254183   0.155   4.070   1.410 -0.8286  1.2174 -0.5149
10898TIP3   OH254184   0.846   4.699   2.790 -0.0797 -0.5134  0.7565
10898TIP3    H154185   0.826   4.788   2.819 -0.8176 -0.8303  1.2531
10898TIP3    H254186   0.929   4.679   2.833  0.4794  0.1945  0.0461
10899TIP3   OH254187   2.352   4.500  16.196 -0.1001  0.1061  0.0192
10899TIP3    H154188   2.363   4.543  16.111 -0.8801 -1.3202 -0.8370
10899TIP3    H254189   2.383   4.410  16.182 -0.2602 -0.1617  1.2492
10900TIP3   OH254190   0.284   4.106   3.391 -0.7129  0.3011 -0.1810
10900TIP3    H154191   0.321   4.059   3.466 -1.0615 -0.6379 -0.5822
10900TIP3    H254192   0.359   4.149   3.350 -0.1158 -1.2272 -0.7331
10901TIP3   OH254193   0.413   6.307   5.911  0.1397  0.0985 -0.2744
10901TIP3    H154194   0.322   6.278   5.918 -0.1412  1.0778  0.3242
10901TIP3    H254195   0.410   6.401   5.931  1.1600  0.3386 -1.1680
10902TIP3   OH254196   1.075   3.966  10.498 -0.1304 -0.4215 -0.5689
10902TIP3    H154197   1.010   3.895  10.498 -1.3403  0.6232 -2.1903
10902TIP3    H254198   1.063   4.008  10.583 -0.5073 -1.1821 -0.2335
10903TIP3   OH254199   3.592   4.911   0.603 -0.4411  0.2438  0.2781
10903TIP3    H154200   3.630   4.980   0.657  0.5530 -0.1621  0.1173
10903TIP3    H254201   3.507   4.893   0.643 -0.3858  1.0271  0.7705
10904TIP3   OH254202   2.943   3.334  13.587 -0.0533 -0.5119 -0.2042
10904TIP3    H154203   2.896   3.263  13.544  0.9098 -1.8505  0.8551
10904TIP3    H254204   2.984   3.382  13.515 -0.6496 -1.0653 -0.9378
10905TIP3   OH254205   5.347   2.630  14.416  0.0357 -0.0593  0.3008
10905TIP3    H154206   5.411   2.642  14.346 -0.9947  1.6445 -0.4150
10905TIP3    H254207   5.345   2.535  14.431  1.7744 -0.2695 -0.5224
10906TIP3   OH254208   0.784   0.326  15.350 -0.7729  0.1739  0.6196
10906TIP3    H154209   0.744   0.267  15.286 -2.0168  0.5649  1.0061
10906TIP3    H254210   0.732   0.406  15.345  1.3754  1.5869 -0.4637
10907TIP3   OH254211   0.796   0.362  10.786 -0.7274  0.4357 -0.2729
10907TIP3    H154212   0.852   0.439  10.774 -1.0372  0.9244  1.2515
10907TIP3    H254213   0.757   0.347  10.700 -0.5109  1.8647 -0.6403
10908TIP3   OH254214   3.881   3.484   5.683  0.1593  0.0542  0.6877
10908TIP3    H154215   3.797   3.452   5.649  0.0248 -0.3326  1.3589
10908TIP3    H254216   3.857   3.548   5.750  0.4076  0.1495  0.6875
10909TIP3   OH254217   3.693   1.122  15.478 -0.4467  0.2196 -0.0001
10909TIP3    H154218   3.674   1.126  15.572 -0.8565  0.6418 -0.0964
10909TIP3    H254219   3.745   1.043  15.467 -1.2971 -0.4097  0.4302
10910TIP3   OH254220   0.373   0.728   4.473  0.4592  0.2058  0.6150
10910TIP3    H154221   0.448   0.673   4.497 -0.4565 -0.9702  0.8687
10910TIP3    H254222   0.329   0.746   4.556 -0.7406 -0.9406  0.2614
10911TIP3   OH254223   5.126   3.451  12.682  0.3474 -0.8198 -0.2123
10911TIP3    H154224   5.048   3.494  12.719 -0.2669  1.0450 -3.3703
10911TIP3    H254225   5.200   3.492  12.727 -0.3920  0.2529  0.0579
10912TIP3   OH254226   6.089   4.277  14.560  0.9850  0.1904  0.2766
10912TIP3    H154227   6.106   4.348  14.498 -3.4453  1.1832 -0.1588
10912TIP3    H254228   6.088   4.197  14.507  0.6963  0.5763 -0.3039
10913TIP3   OH254229   3.688   4.805  11.399 -0.0190  0.0634  0.4978
10913TIP3    H154230   3.699   4.830  11.491 -1.7108  0.8208  0.5343
10913TIP3    H254231   3.643   4.879  11.359  0.7470 -0.2352 -0.9749
10914TIP3   OH254232   4.119   2.071  13.328  0.0613  0.7704 -0.7249
10914TIP3    H154233   4.104   2.038  13.239  2.3302 -0.2926 -0.7918
10914TIP3    H254234   4.071   2.009  13.383 -0.4487  0.7775 -1.1450
10915TIP3   OH254235   4.484   2.781   5.199 -0.2043  0.2286 -0.5756
10915TIP3    H154236   4.552   2.811   5.258  0.9988 -2.4268 -0.4873
10915TIP3    H254237   4.427   2.726   5.253 -1.0325  0.4679 -1.1806
10916TIP3   OH254238   4.091   5.602  17.215  0.3360 -0.5217 -0.0177
10916TIP3    H154239   4.117   5.564  17.299  0.5067  0.4291  0.3666
10916TIP3    H254240   4.140   5.552  17.150 -0.3865 -1.7963  0.3693
10917TIP3   OH254241   4.287   0.672  13.316 -0.0587 -0.0494  0.1189
10917TIP3    H154242   4.320   0.588  13.348  1.6006 -0.9009 -3.2955
10917TIP3    H254243   4.366   0.721  13.293 -1.0450  1.7076  0.3222
10918TIP3   OH254244   4.855   1.526  10.512  0.3262  0.1703 -0.3514
10918TIP3    H154245   4.801   1.449  10.493 -0.7738  0.5856  0.8950
10918TIP3    H254246   4.792   1.592  10.543  1.4030  1.1115 -0.1058
10919TIP3   OH254247   4.167   0.149  13.554 -0.9599  0.1411  0.0264
10919TIP3    H154248   4.167   0.116  13.643 -0.9518  1.2632  0.4655
10919TIP3    H254249   4.080   0.128  13.520 -1.6491  1.3506  0.9612
10920TIP3   OH254250   3.097   5.255  11.347 -0.1713  0.0717  0.1580
10920TIP3    H154251   3.009   5.291  11.338  0.5517  1.8006 -0.5551
10920TIP3    H254252   3.153   5.318  11.300  1.3237 -1.4681 -0.2174
10921TIP3   OH254253   4.484   4.796  11.794  0.1876  0.0880 -0.8201
10921TIP3    H154254   4.450   4.709  11.812 -0.5278  0.6344  0.5904
10921TIP3    H254255   4.415   4.838  11.742  0.2052  0.0597 -0.8668
10922TIP3   OH254256   6.077   4.842   3.685  0.8718 -0.0220  0.1405
10922TIP3    H154257   5.985   4.834   3.711  0.5796  0.7165 -0.6157
10922TIP3    H254258   6.075   4.899   3.608  2.0717  0.8104  0.7079
10923TIP3   OH254259   3.234   3.954   5.658 -0.4138  0.1146 -0.1238
10923TIP3    H154260   3.309   3.947   5.717 -1.7500  1.7525  1.9318
10923TIP3    H254261   3.232   4.046   5.632 -0.7366 -0.2779 -1.5503
10924TIP3   OH254262   1.990   3.998   2.401 -0.1123 -0.8001 -0.1359
10924TIP3    H154263   1.946   4.040   2.327 -0.2227  0.9832  0.8769
10924TIP3    H254264   2.071   3.963   2.364 -1.0988 -1.7494 -1.4814
10925TIP3   OH254265   3.209   6.209  14.824  0.5545 -0.0743  0.2484
10925TIP3    H154266   3.250   6.292  14.803  0.7240 -0.5309 -1.4055
10925TIP3    H254267   3.281   6.149  14.842  0.5971 -0.5333 -1.3105
10926TIP3   OH254268   0.548   3.821  11.622 -0.0622  0.0761  0.5013
10926TIP3    H154269   0.605   3.764  11.572  0.3123  1.3029 -0.5119
10926TIP3    H254270   0.596   3.839  11.703 -0.2194 -1.0669  0.8702
10927TIP3   OH254271   0.070   5.063   0.985 -0.4009  0.0506  0.0149
10927TIP3    H154272   0.155   5.076   0.942 -1.7959 -0.6024 -3.2756
10927TIP3    H254273   0.020   5.141   0.962 -1.5923 -0.8837 -0.6987
10928TIP3   OH254274   5.261   3.960   3.093  0.0765  0.3972 -0.4529
10928TIP3    H154275   5.202   4.036   3.092 -0.4919 -0.0421 -1.1779
10928TIP3    H254276   5.298   3.957   3.005  1.1465  0.6289 -0.0214
10929TIP3   OH254277   0.289   6.264   4.859  0.3229 -0.0372 -0.0096
10929TIP3    H154278   0.364   6.246   4.916  0.2254 -2.1092 -0.4650
10929TIP3    H254279   0.220   6.206   4.891 -0.9390  1.4512  0.0498
10930TIP3   OH254280   3.436   1.882  13.629 -0.3633 -0.5551  0.1238
10930TIP3    H154281   3.405   1.799  13.667  1.3526 -1.1939  0.2128
10930TIP3    H254282   3.470   1.858  13.543  2.3899 -0.4503  1.0974
10931TIP3   OH254283   2.055   4.633  12.475 -0.2118 -0.5813 -0.2461
10931TIP3    H154284   2.060   4.552  12.423  0.2008 -1.9337  1.7707
10931TIP3    H254285   2.146   4.662  12.483 -0.3052 -0.2116 -0.5300
10932TIP3   OH254286   3.875   1.701  16.090 -0.1632 -0.3102 -0.1701
10932TIP3    H154287   3.825   1.781  16.104  0.4138 -0.0074  0.2420
10932TIP3    H254288   3.825   1.632  16.133 -0.4496 -0.0928 -0.1572
10933TIP3   OH254289   0.924   6.096   0.448  0.5141 -0.2525 -0.4729
10933TIP3    H154290   0.865   6.131   0.380 -1.3008 -2.1601  0.0123
10933TIP3    H254291   0.986   6.167   0.464 -2.2518  2.3462 -0.3181
10934TIP3   OH254292   6.553   0.530  13.561  0.0161  0.7301  0.1742
10934TIP3    H154293   6.641   0.567  13.563  0.5315 -0.1791 -2.1290
10934TIP3    H254294   6.566   0.437  13.581 -0.7806  1.0099  2.2134
10935TIP3   OH254295   3.380   1.158  15.932 -0.4246  0.4332  0.4124
10935TIP3    H154296   3.333   1.225  15.882  0.2270 -0.2307 -1.1416
10935TIP3    H254297   3.470   1.192  15.939  0.2475 -0.8142 -1.5232
10936TIP3   OH254298   3.329   4.820  13.413 -0.2604 -0.1756 -0.3995
10936TIP3    H154299   3.422   4.837  13.428 -0.5237  2.7901 -1.4705
10936TIP3    H254300   3.315   4.730  13.445  2.4904  0.0150  1.6694
10937TIP3   OH254301   5.262   3.382   1.044  0.0959 -0.0307  0.2392
10937TIP3    H154302   5.259   3.462   1.096  2.3316  0.0666  0.3008
10937TIP3    H254303   5.228   3.408   0.958  0.8716  1.0129  0.2338
10938TIP3   OH254304   3.149   1.418  10.679 -0.1177  0.2040  0.3154
10938TIP3    H154305   3.199   1.439  10.600  0.4101  1.0957  0.8749
10938TIP3    H254306   3.134   1.324  10.674  0.7384  0.0943 -0.3712
10939TIP3   OH254307   2.845   2.862  15.835  0.2405 -0.9830 -0.6508
10939TIP3    H154308   2.916   2.813  15.876 -0.2620 -1.6851 -0.5963
10939TIP3    H254309   2.886   2.943  15.804  0.8422 -0.8901  0.3328
10940TIP3   OH254310   1.582   2.119  14.765 -0.0446 -0.1256 -0.7878
10940TIP3    H154311   1.531   2.195  14.737 -0.7062 -0.3933 -0.3235
10940TIP3    H254312   1.520   2.065  14.814  1.0433  0.3114  1.1642
10941TIP3   OH254313   4.650   3.039  11.175 -0.0886  0.2011 -0.0316
10941TIP3    H154314   4.641   2.953  11.135 -0.1530  0.8714 -1.4956
10941TIP3    H254315   4.571   3.048  11.229 -0.2088 -0.5326 -0.0693
10942TIP3   OH254316   4.765   0.330   2.307  0.1492 -0.1309  0.2106
10942TIP3    H154317   4.791   0.405   2.254 -0.0084  1.3792  2.1598
10942TIP3    H254318   4.682   0.301   2.268 -0.8740  2.0341  0.5967
10943TIP3   OH254319   0.203   1.400  15.539  0.3254  0.1138  0.2745
10943TIP3    H154320   0.181   1.474  15.596 -1.9551 -0.9508  0.9131
10943TIP3    H254321   0.260   1.345  15.593 -1.4577 -0.6678  1.4649
10944TIP3   OH254322   5.634   4.674   0.985 -0.0372  0.2977 -0.6453
10944TIP3    H154323   5.608   4.763   0.962  0.1161  0.6111  0.3335
10944TIP3    H254324   5.652   4.679   1.079 -2.6607 -1.3694  0.0513
10945TIP3   OH254325   0.015   1.128  11.798  0.3534  0.1999  0.3746
10945TIP3    H154326  -0.042   1.100  11.727  1.0815  1.8410 -0.9333
10945TIP3    H254327  -0.042   1.136  11.874 -0.3126 -2.3346  0.2419
10946TIP3   OH254328   3.144   6.577  16.345 -0.9169  0.3885 -0.7543
10946TIP3    H154329   3.155   6.482  16.341 -0.2003  0.3227  1.4502
10946TIP3    H254330   3.214   6.607  16.403 -2.7252  1.9461  0.7655
10947TIP3   OH254331   4.231   2.839   4.549 -0.0313  0.2882 -0.1875
10947TIP3    H154332   4.304   2.784   4.577  0.7923  1.1100 -0.6914
10947TIP3    H254333   4.182   2.783   4.489  0.0427 -0.3467  0.3278
10948TIP3   OH254334   6.457   0.183   0.683 -0.1911  0.1783  0.2012
10948TIP3    H154335   6.438   0.165   0.776  0.0066 -1.1254  0.0187
10948TIP3    H254336   6.380   0.231   0.652 -0.6200 -0.0680  0.8535
10949TIP3   OH254337   0.231   6.142  14.493 -0.2328 -0.4438  0.4067
10949TIP3    H154338   0.190   6.095  14.565  1.4128  0.8641  2.3232
10949TIP3    H254339   0.277   6.074  14.443 -1.8793 -1.4496  0.1628
10950TIP3   OH254340   6.777   6.640   4.465 -0.5432 -0.1459 -0.3327
10950TIP3    H154341   6.836   6.576   4.425 -1.4538 -0.1977 -1.6665
10950TIP3    H254342   6.804   6.644   4.557 -0.2890 -2.2659 -0.2692
10951TIP3   OH254343   4.326   2.706  13.833 -0.1100 -0.0754 -0.8123
10951TIP3    H154344   4.323   2.725  13.740  1.0803 -1.4192 -1.1641
10951TIP3    H254345   4.418   2.686  13.850 -0.3811 -0.2497  0.5740
10952TIP3   OH254346   4.786   1.106   5.769  0.7564 -0.0226 -0.2176
10952TIP3    H154347   4.827   1.180   5.724  1.4122 -0.1854  0.0986
10952TIP3    H254348   4.746   1.054   5.699  0.2044  0.6737 -0.4327
10953TIP3   OH254349   0.480   2.107  15.208  0.6589  0.2769 -0.0781
10953TIP3    H154350   0.526   2.160  15.273 -1.1588  0.2749  1.3118
10953TIP3    H254351   0.511   2.018  15.223  0.8711  0.4000  0.2161
10954TIP3   OH254352   5.115   6.277   3.752  0.8066 -0.6821 -0.2357
10954TIP3    H154353   5.094   6.186   3.776  1.1840 -1.5555 -2.9146
10954TIP3    H254354   5.211   6.280   3.755  0.8505 -0.7479 -1.2989
10955TIP3   OH254355   2.101   5.399  15.504  0.0790  0.7459 -0.3858
10955TIP3    H154356   2.126   5.421  15.414  2.4802 -1.1039 -0.2766
10955TIP3    H254357   2.009   5.375  15.498 -0.3065  2.3827 -1.9865
10956TIP3   OH254358   1.259   0.641  11.553 -0.1082  0.4714 -0.3389
10956TIP3    H154359   1.200   0.635  11.628 -2.7102  1.1496 -2.1589
10956TIP3    H254360   1.227   0.575  11.492  1.1556  0.7559 -1.3571
10957TIP3   OH254361   1.538   6.037   4.972  0.6855  0.3795 -1.0321
10957TIP3    H154362   1.590   5.958   4.979  1.1541  0.7087 -0.7586
10957TIP3    H254363   1.452   6.013   5.007  0.9384  0.1023 -0.6042
10958TIP3   OH254364   1.496   3.400   0.376  0.5252 -0.3012 -0.0581
10958TIP3    H154365   1.440   3.395   0.453  0.5755 -0.1992 -0.0144
10958TIP3    H254366   1.442   3.366   0.305  0.3442 -0.0426 -0.0488
10959TIP3   OH254367   3.341   2.825   5.295  0.0397 -0.5742  0.6980
10959TIP3    H154368   3.305   2.776   5.221 -0.7222 -0.2241  0.8292
10959TIP3    H254369   3.405   2.765   5.335 -0.0518 -1.0221  0.1763
10960TIP3   OH254370   3.402   0.890  15.990 -0.5091 -0.5837 -0.1691
10960TIP3    H154371   3.327   0.845  15.952 -0.9211  0.2740 -0.3831
10960TIP3    H254372   3.396   0.979  15.958 -0.5275  0.0158  1.4159
10961TIP3   OH254373   2.323   0.162  15.525  0.3912 -0.2286 -0.4380
10961TIP3    H154374   2.344   0.116  15.443  0.2835  0.6121 -0.9399
10961TIP3    H254375   2.397   0.141  15.583  0.8820 -0.1440 -1.0254
10962TIP3   OH254376   3.877   2.384   1.794 -0.2446  0.1272  0.3309
10962TIP3    H154377   3.972   2.397   1.801 -0.1160 -0.8145  0.3884
10962TIP3    H254378   3.857   2.400   1.702  0.0843 -0.4052  0.1664
10963TIP3   OH254379   5.613   1.825  12.076  0.2355  0.2407 -1.0485
10963TIP3    H154380   5.541   1.804  12.017 -1.1761  0.0211  0.6559
10963TIP3    H254381   5.603   1.919  12.094  0.6713  0.3133 -1.1752
10964TIP3   OH254382   1.132   6.552   2.478  0.2503  0.3613  0.0024
10964TIP3    H154383   1.091   6.472   2.513  0.7794  0.5591  1.1164
10964TIP3    H254384   1.187   6.521   2.406  3.3007 -0.8867  2.6001
10965TIP3   OH254385   0.416   4.372   2.789  0.2841 -0.9645  0.0484
10965TIP3    H154386   0.348   4.357   2.723  0.7601 -2.3496 -0.1772
10965TIP3    H254387   0.497   4.349   2.743  0.6111 -2.0556  1.1332
10966TIP3   OH254388   1.579   5.212   4.453 -0.2164 -0.2362 -0.3744
10966TIP3    H154389   1.515   5.266   4.408  0.6168  0.8468 -0.2924
10966TIP3    H254390   1.538   5.125   4.458 -2.3052  0.7577  1.0103
10967TIP3   OH254391   1.487   5.025   1.184  0.0821  0.2816  0.0854
10967TIP3    H154392   1.463   4.934   1.164 -2.5121  1.4068 -2.8287
10967TIP3    H254393   1.544   5.051   1.111  2.0559  0.6414  1.6760
10968TIP3   OH254394   5.769   4.039   0.106  0.4750 -0.3971 -0.2462
10968TIP3    H154395   5.779   4.123   0.151  1.5422  0.7721 -2.4866
10968TIP3    H254396   5.688   4.048   0.056  0.3841 -0.8627 -0.1894
10969TIP3   OH254397   6.817   1.783   3.990 -0.1348 -0.6477  0.6582
10969TIP3    H154398   6.757   1.720   4.030 -0.2597 -0.6226  0.5098
10969TIP3    H254399   6.776   1.807   3.907 -0.1384 -0.2896  0.7616
10970TIP3   OH254400   3.718   4.721   4.831 -0.2376  0.1592  0.2936
10970TIP3    H154401   3.803   4.744   4.869 -0.1832 -0.8378  0.8024
10970TIP3    H254402   3.699   4.635   4.867 -0.4347 -0.5896 -1.5513
10971TIP3   OH254403   5.748   3.264  13.538 -0.5788  0.0420 -0.2135
10971TIP3    H154404   5.785   3.262  13.627 -0.3462  1.6192 -0.2391
10971TIP3    H254405   5.824   3.275  13.481 -0.6919 -1.3648 -0.6636
10972TIP3   OH254406   5.418   6.625   2.437 -0.1108 -0.3382 -0.2311
10972TIP3    H154407   5.325   6.638   2.419  0.0343  0.9609 -0.1212
10972TIP3    H254408   5.459   6.710   2.420  0.4520  0.3127  3.5143
10973TIP3   OH254409   5.961   3.658   6.174 -0.5082 -0.2328  0.3062
10973TIP3    H154410   5.972   3.645   6.080 -0.8524 -0.4739  0.2962
10973TIP3    H254411   6.025   3.599   6.214 -1.0988 -0.9317  0.2376
10974TIP3   OH254412   4.561   4.685   0.838 -0.1529  0.2747  0.2560
10974TIP3    H154413   4.553   4.655   0.748 -1.8257  3.3194 -0.7198
10974TIP3    H254414   4.655   4.697   0.851  0.0903  0.1426 -1.2105
10975TIP3   OH254415   5.758   5.811   4.612  0.1102  0.0234 -0.2283
10975TIP3    H154416   5.708   5.867   4.672  0.0489 -0.0961 -0.1682
10975TIP3    H254417   5.821   5.871   4.571 -0.6477  0.3547 -0.9364
10976TIP3   OH254418   6.210   5.096   4.643  0.2634  0.4741  0.1772
10976TIP3    H154419   6.266   5.174   4.647  0.9344 -0.0246  3.9266
10976TIP3    H254420   6.142   5.119   4.580  0.5499  4.0111  0.9597
10977TIP3   OH254421   2.309   0.719  15.204 -0.3699 -0.5589  0.0563
10977TIP3    H154422   2.358   0.647  15.163  0.7198 -0.0351  0.3894
10977TIP3    H254423   2.338   0.797  15.156  0.9790  0.0770  1.8216
10978TIP3   OH254424   6.673   6.132   2.579  0.0343  0.4051  0.0016
10978TIP3    H154425   6.682   6.050   2.530  2.3487  0.1251  0.7206
10978TIP3    H254426   6.601   6.178   2.538 -1.3814 -2.0120 -0.4030
10979TIP3   OH254427   5.917   2.489  11.670 -0.1169 -0.3423 -0.2001
10979TIP3    H154428   5.895   2.562  11.612 -1.3402 -0.3693  0.1988
10979TIP3    H254429   6.009   2.503  11.693 -0.0071  0.4184 -1.0555
10980TIP3   OH254430   4.642   0.838   1.640 -0.0762  0.4701 -0.0743
10980TIP3    H154431   4.657   0.744   1.627 -0.8141  0.3356  0.0133
10980TIP3    H254432   4.663   0.877   1.555 -1.8166 -0.0373 -0.7880
10981TIP3   OH254433   5.025   2.779   0.362  0.2132 -0.4535  0.7070
10981TIP3    H154434   5.057   2.774   0.452 -0.4515 -0.9513  0.9193
10981TIP3    H254435   4.951   2.719   0.359 -0.2913  0.1795  0.0465
10982TIP3   OH254436   5.943   5.915  12.584  0.4842 -0.2274 -0.4477
10982TIP3    H154437   5.919   5.881  12.670 -0.2972  1.2788 -0.0416
10982TIP3    H254438   5.876   5.880  12.525  1.9364 -2.6168 -0.8062
10983TIP3   OH254439   2.576   4.123  16.977 -0.5425  0.7256  0.6538
10983TIP3    H154440   2.514   4.052  16.994 -1.2926  1.3325  0.4764
10983TIP3    H254441   2.647   4.080  16.928 -1.5893  0.3274 -0.5820
10984TIP3   OH254442   2.665   6.776  13.847 -0.1763  0.8150 -0.0774
10984TIP3    H154443   2.709   6.739  13.923 -0.6072  0.8352  0.1850
10984TIP3    H254444   2.600   6.709  13.821  0.5708  0.4139 -0.9762
10985TIP3   OH254445   2.526   2.825  11.157  0.2093 -0.0909  0.1362
10985TIP3    H154446   2.443   2.866  11.135  0.5523 -0.1142 -1.2678
10985TIP3    H254447   2.588   2.857  11.091  0.5560 -2.6426 -0.9112
10986TIP3   OH254448   3.434   6.646  17.189  0.1119  0.5798 -0.5464
10986TIP3    H154449   3.344   6.668  17.164 -0.0136  2.1868  1.1359
10986TIP3    H254450   3.473   6.729  17.215  1.6592 -0.2944  0.0815
10987TIP3   OH254451   6.617   2.367   3.575 -0.3995 -0.6080 -0.0854
10987TIP3    H154452   6.712   2.371   3.584 -0.5226 -0.3316  1.1418
10987TIP3    H254453   6.583   2.360   3.664 -1.5633 -0.0946 -0.4583
10988TIP3   OH254454   1.971   2.940   2.179 -0.1244 -0.4012  0.0153
10988TIP3    H154455   1.916   3.018   2.170 -0.6822 -0.6915  0.7796
10988TIP3    H254456   2.029   2.961   2.253 -0.2599 -0.6974  0.2053
10989TIP3   OH254457   6.765   6.020  16.674 -0.1718 -0.1106 -0.2889
10989TIP3    H154458   6.736   5.933  16.700  1.8156 -0.1945  2.0062
10989TIP3    H254459   6.686   6.074  16.680 -1.0057 -1.3495  0.3577
10990TIP3   OH254460   5.718   5.389   3.593 -0.0874 -0.1268  0.3139
10990TIP3    H154461   5.627   5.417   3.581 -0.0602  0.1414  0.6849
10990TIP3    H254462   5.728   5.313   3.536 -0.7627 -0.6142  0.8268
10991TIP3   OH254463   6.719   0.156  16.235 -0.3683  0.2077 -0.2770
10991TIP3    H154464   6.801   0.107  16.229  0.1265  1.0275 -0.4252
10991TIP3    H254465   6.743   0.245  16.208 -0.4634  1.4207  3.2201
10992TIP3   OH254466   1.097   3.100   1.651 -0.2687  0.6984 -0.0528
10992TIP3    H154467   1.046   3.098   1.570 -0.2109  1.1817 -0.1041
10992TIP3    H254468   1.053   3.164   1.706  2.0954  3.6683 -1.3478
10993TIP3   OH254469   4.813   1.270  12.752  0.2750  0.3166  0.2527
10993TIP3    H154470   4.803   1.239  12.842  0.6060 -0.1564  0.1307
10993TIP3    H254471   4.852   1.357  12.761 -0.8426  0.7930  0.6060
10994TIP3   OH254472   1.400   1.264  14.427 -0.2381  0.2194  0.3327
10994TIP3    H154473   1.335   1.296  14.364  0.6438  1.3411 -0.0487
10994TIP3    H254474   1.480   1.255  14.375 -0.1584 -1.4716  0.7223
10995TIP3   OH254475   2.065   0.632  10.655 -0.0883  0.0726  0.1431
10995TIP3    H154476   2.150   0.595  10.632 -0.6174 -1.2503  0.2112
10995TIP3    H254477   2.067   0.722  10.621  1.8577  0.5467  1.4209
10996TIP3   OH254478   3.511   2.644  16.548 -0.5800 -0.4927  0.5955
10996TIP3    H154479   3.499   2.567  16.493 -1.0674 -1.0416  1.4512
10996TIP3    H254480   3.447   2.708  16.515  0.0305 -0.3343 -0.3034
10997TIP3   OH254481   4.221   5.949   5.382 -0.1192  0.1463  0.1287
10997TIP3    H154482   4.213   5.921   5.474 -0.5200  1.5107  0.5328
10997TIP3    H254483   4.143   6.002   5.367 -0.4420 -0.6870 -1.2566
10998TIP3   OH254484   6.771   6.658   3.621 -0.2395  0.3765 -0.2106
10998TIP3    H154485   6.847   6.703   3.659  0.4261  0.1051 -1.1644
10998TIP3    H254486   6.702   6.724   3.617  0.4694  1.1081 -0.8427
10999TIP3   OH254487   4.080   4.456   2.962 -0.3011  0.2367  0.1738
10999TIP3    H154488   4.008   4.490   3.016  1.2510  3.4959  0.4453
10999TIP3    H254489   4.158   4.497   2.999  1.1503  0.5802 -2.9561
11000TIP3   OH254490   6.180   3.564   1.576 -0.2401 -0.2630  0.4496
11000TIP3    H154491   6.102   3.525   1.535 -0.1215  0.0844 -0.1162
11000TIP3    H254492   6.149   3.647   1.611  0.4483  1.1880 -2.1889
11001TIP3   OH254493   4.421   3.282   5.117  0.2980  0.3239 -0.0554
11001TIP3    H154494   4.397   3.198   5.077  0.6654 -0.0987  0.6080
11001TIP3    H254495   4.397   3.347   5.051 -0.2127 -0.2834 -0.4788
11002TIP3   OH254496   0.094   2.628  12.809 -0.7934 -0.4915 -0.1571
11002TIP3    H154497   0.102   2.721  12.832 -0.0195  0.6044 -4.0971
11002TIP3    H254498   0.183   2.602  12.785 -0.9595 -2.3971  1.0809
11003TIP3   OH254499   6.254   0.484  12.591  0.4490  0.6216 -0.4619
11003TIP3    H154500   6.175   0.429  12.595 -0.0873  1.2966 -1.3198
11003TIP3    H254501   6.248   0.539  12.668  0.6388 -0.0584  0.0457
11004TIP3   OH254502   6.471   3.182  10.123 -0.2259  0.0359 -0.0245
11004TIP3    H154503   6.429   3.096  10.119  0.3695 -0.5179  3.0280
11004TIP3    H254504   6.399   3.244  10.115 -1.0427 -0.8122  0.5503
11005TIP3   OH254505   1.585   0.627  16.582 -0.1878 -0.2602  0.0731
11005TIP3    H154506   1.518   0.694  16.597  1.3702  1.4459 -0.1977
11005TIP3    H254507   1.630   0.657  16.503  0.9054 -1.3760  0.2517
11006TIP3   OH254508   2.094   2.384  16.692 -0.0791  0.3215 -0.3321
11006TIP3    H154509   2.116   2.474  16.667 -0.3615  1.0051  1.7103
11006TIP3    H254510   2.056   2.346  16.613 -2.2532  2.7831 -0.6113
11007TIP3   OH254511   2.610   1.178  14.807 -0.0608  0.3566  0.2779
11007TIP3    H154512   2.616   1.098  14.754 -0.0952  0.4285  0.1657
11007TIP3    H254513   2.595   1.146  14.896 -1.9915  0.2677 -0.0369
11008TIP3   OH254514   1.687   4.658   4.321 -0.1824 -0.2462 -0.1742
11008TIP3    H154515   1.748   4.589   4.295 -0.5781  0.3796 -3.1777
11008TIP3    H254516   1.742   4.722   4.366  0.9510 -0.7686 -0.7647
11009TIP3   OH254517   0.841   1.151  17.156 -0.1672  0.1996 -0.4577
11009TIP3    H154518   0.908   1.195  17.209 -0.7619  0.0356  0.4569
11009TIP3    H254519   0.793   1.097  17.219 -1.7230  1.0034 -0.9183
11010TIP3   OH254520   3.455   6.485  13.967  0.6277  0.6277 -0.0626
11010TIP3    H154521   3.378   6.454  13.920  0.0351  0.7315  0.8142
11010TIP3    H254522   3.442   6.454  14.057  0.4574  2.6314  0.6405
11011TIP3   OH254523   6.694   4.831   0.852 -0.1126 -0.8005  0.1332
11011TIP3    H154524   6.771   4.887   0.848  0.7929 -1.7880  2.2687
11011TIP3    H254525   6.728   4.745   0.876 -1.7177 -1.6706 -0.5300
11012TIP3   OH254526   2.062   2.512  11.933  0.1138 -0.0402  0.1388
11012TIP3    H154527   2.115   2.500  11.854  0.9185  0.4770  0.5810
11012TIP3    H254528   1.976   2.537  11.901  0.3635 -0.0716 -0.5785
11013TIP3   OH254529   5.149   1.777   1.985 -0.3940  0.4461  1.0580
11013TIP3    H154530   5.155   1.684   1.965  2.4843  0.1897  2.5006
11013TIP3    H254531   5.075   1.784   2.046 -1.6149 -0.5897 -0.2357
11014TIP3   OH254532   3.502   5.818  12.382 -0.0397 -0.5188  0.1949
11014TIP3    H154533   3.434   5.866  12.336 -0.1423 -3.4017 -3.1275
11014TIP3    H254534   3.580   5.873  12.374 -0.8932  0.6692 -0.2218
11015TIP3   OH254535   4.526   1.255  12.929 -0.0035  0.7103 -0.1131
11015TIP3    H154536   4.433   1.260  12.911  0.1738  2.1831 -0.7782
11015TIP3    H254537   4.551   1.167  12.902 -0.8489  0.9491 -1.7691
11016TIP3   OH254538   5.253   2.800   1.820  0.0142 -0.0909  0.1956
11016TIP3    H154539   5.328   2.777   1.875 -1.0097 -1.3238  1.1513
11016TIP3    H254540   5.197   2.853   1.876 -0.5511 -0.4969  0.0299
11017TIP3   OH254541   1.044   6.058   4.893  0.1257 -0.2894 -0.3821
11017TIP3    H154542   0.966   6.053   4.948 -0.1003  3.4778 -0.0873
11017TIP3    H254543   1.087   5.973   4.904 -2.2618 -1.3471  1.9399
11018TIP3   OH254544   6.784   4.391  16.015  0.1132 -0.2946  1.0762
11018TIP3    H154545   6.863   4.362  15.970 -0.4488 -0.7572  0.3678
11018TIP3    H254546   6.768   4.325  16.083 -0.4520 -0.9835  0.2922
11019TIP3   OH254547   1.506   3.508  11.095 -0.6168  0.3767  0.1579
11019TIP3    H154548   1.538   3.447  11.161  1.8751  1.1210 -0.2598
11019TIP3    H254549   1.435   3.556  11.138 -1.8705 -1.9820  0.8520
11020TIP3   OH254550   3.971   2.214  11.602 -0.8738 -0.0335 -0.0050
11020TIP3    H154551   4.019   2.142  11.644 -0.5207 -0.5328 -1.2205
11020TIP3    H254552   3.894   2.172  11.564 -0.9423  0.3229 -0.2599
11021TIP3   OH254553   1.203   5.349   1.095 -0.2190  0.4561  0.2864
11021TIP3    H154554   1.151   5.276   1.129 -0.0361 -0.3941 -1.1428
11021TIP3    H254555   1.163   5.427   1.132 -1.7968 -0.2499  0.1430
11022TIP3   OH254556   5.750   1.419   4.965 -0.4929  0.3557  0.1005
11022TIP3    H154557   5.809   1.478   4.918 -0.6731  0.4073 -0.0630
11022TIP3    H254558   5.772   1.431   5.057 -0.0214  0.1282  0.0178
11023TIP3   OH254559   5.270   2.639   3.902 -0.3793  0.0242 -0.0255
11023TIP3    H154560   5.179   2.626   3.874  0.0359 -1.0068 -0.9703
11023TIP3    H254561   5.292   2.559   3.950  0.0457  0.2378  0.1351
11024TIP3   OH254562   4.754   3.740   1.761  0.5001 -0.1379  0.1059
11024TIP3    H154563   4.718   3.661   1.801 -0.1986  0.2134  0.2045
11024TIP3    H254564   4.844   3.718   1.739  0.2716 -1.0074 -0.0025
11025TIP3   OH254565   2.075   6.770   3.362 -0.1325 -0.0332  0.3096
11025TIP3    H154566   1.985   6.744   3.381 -0.2241 -0.2437 -0.3861
11025TIP3    H254567   2.108   6.806   3.445 -1.0712  0.6814  0.3858
11026TIP3   OH254568   3.692   6.139  16.664  0.1620 -0.2368 -0.3346
11026TIP3    H154569   3.735   6.059  16.693  1.5889 -0.1054 -1.9114
11026TIP3    H254570   3.761   6.189  16.621 -1.0126  1.2081 -0.6431
11027TIP3   OH254571   2.356   4.679  11.710 -0.2579 -0.1443  0.0482
11027TIP3    H154572   2.447   4.675  11.683 -0.0979 -1.4930  0.7142
11027TIP3    H254573   2.306   4.664  11.630  0.0265  1.9048 -0.5785
11028TIP3   OH254574   6.684   2.851  12.610  0.2164 -0.3347 -0.2156
11028TIP3    H154575   6.766   2.895  12.589 -0.2582  0.0313 -1.3557
11028TIP3    H254576   6.690   2.833  12.704  0.5542  1.8810  0.2473
11029TIP3   OH254577   6.146   0.847   3.466  0.0735  0.0040 -0.0013
11029TIP3    H154578   6.133   0.812   3.554 -1.1056  0.6445  0.1038
11029TIP3    H254579   6.228   0.896   3.472  0.1424 -0.1827  0.6658
11030TIP3   OH254580   0.394   5.203  14.829  0.2041  0.1971 -0.1764
11030TIP3    H154581   0.339   5.217  14.752  1.2176 -0.3446 -1.0246
11030TIP3    H254582   0.434   5.289  14.846  0.5578  0.1479 -0.7316
11031TIP3   OH254583   1.312   2.526   5.731  0.0972  0.2938 -0.4115
11031TIP3    H154584   1.249   2.592   5.760  1.0847  1.1896 -0.2214
11031TIP3    H254585   1.260   2.464   5.681 -1.1976  0.1751  0.9965
11032TIP3   OH254586   4.709   6.008  10.356 -0.5377  0.2683  0.6606
11032TIP3    H154587   4.761   6.059  10.294  0.1533  0.0879  1.0759
11032TIP3    H254588   4.774   5.968  10.413 -1.0926 -0.7017  0.6272
11033TIP3   OH254589   3.516   4.911  12.579  0.1721 -0.1578 -0.4701
11033TIP3    H154590   3.605   4.900  12.613  0.2616 -0.5143 -0.8121
11033TIP3    H254591   3.460   4.903  12.656  0.3026 -1.9905 -0.5111
11034TIP3   OH254592   6.206   4.908   5.354 -0.3160  0.3075  0.0750
11034TIP3    H154593   6.171   4.980   5.302 -0.2155  0.9625  0.8982
11034TIP3    H254594   6.273   4.869   5.298  2.5651  3.3925  1.0360
11035TIP3   OH254595   4.531   5.559   3.702  0.3297 -0.1960 -0.7564
11035TIP3    H154596   4.536   5.463   3.705 -2.5158 -0.3907  0.2610
11035TIP3    H254597   4.453   5.581   3.753  2.0937  2.8494  0.9295
11036TIP3   OH254598   1.642   5.287  14.099 -0.0783  0.0274  0.3176
11036TIP3    H154599   1.576   5.356  14.091 -2.6392 -2.1148  1.3711
11036TIP3    H254600   1.626   5.230  14.024  1.2024 -0.0601  0.0953
11037TIP3   OH254601   1.737   5.858  15.650 -0.4570  0.3648 -0.4166
11037TIP3    H154602   1.670   5.799  15.684  0.2047 -1.4226 -2.0190
11037TIP3    H254603   1.788   5.883  15.727 -0.0489 -2.1369  0.2190
11038TIP3   OH254604   6.647   4.187  14.767  0.2221  0.1942  0.4573
11038TIP3    H154605   6.592   4.261  14.742 -0.9265 -0.1249  1.9049
11038TIP3    H254606   6.726   4.228  14.805  0.4256  0.6520 -0.4333
11039TIP3   OH254607   0.039   1.172  17.142 -0.2007  1.0500  0.4642
11039TIP3    H154608   0.048   1.145  17.233 -3.0155 -0.5530  0.3707
11039TIP3    H254609   0.077   1.100  17.091 -1.8211  0.2430  0.3478
11040TIP3   OH254610   6.595   5.609   3.256  0.0414  0.4039 -0.3108
11040TIP3    H154611   6.671   5.596   3.199  1.3355 -2.2885  1.7887
11040TIP3    H254612   6.533   5.541   3.229  0.5179 -0.6638  1.1640
11041TIP3   OH254613   4.715   5.548   0.828  0.0952 -0.4090 -0.1320
11041TIP3    H154614   4.761   5.550   0.912 -1.9739  3.2671  1.1445
11041TIP3    H254615   4.765   5.607   0.772  1.2501 -2.5501 -1.4918
11042TIP3   OH254616   5.618   3.238   2.780  0.4577 -0.1356 -0.2676
11042TIP3    H154617   5.688   3.242   2.845 -0.2085  0.9258  0.4135
11042TIP3    H254618   5.537   3.240   2.831 -0.1253  2.5140 -1.0986
11043TIP3   OH254619   2.514   6.301  12.282 -0.0567 -0.4462 -0.0276
11043TIP3    H154620   2.551   6.342  12.361  0.7283  0.1151 -0.6695
11043TIP3    H254621   2.451   6.237  12.315  0.9801 -0.9261  1.0908
11044TIP3   OH254622   6.793   2.000   4.262 -0.3398 -0.2135  0.0811
11044TIP3    H154623   6.779   1.982   4.169  1.4008 -0.1681 -0.2177
11044TIP3    H254624   6.748   1.929   4.307  0.4788 -1.3679 -0.8742
11045TIP3   OH254625   1.637   5.224   3.146  0.2703  0.1263 -0.0259
11045TIP3    H154626   1.725   5.255   3.170 -1.3594  2.3308  4.1664
11045TIP3    H254627   1.585   5.304   3.138 -2.5240 -0.9841  3.7444
11046TIP3   OH254628   2.385   4.239   1.246 -0.0515 -0.7246  0.9096
11046TIP3    H154629   2.420   4.187   1.318 -0.1035 -1.5337  0.3674
11046TIP3    H254630   2.290   4.235   1.259 -0.0545 -0.7621  0.8774
11047TIP3   OH254631   6.101   2.429  14.080 -0.3216  0.2048 -0.0804
11047TIP3    H154632   6.171   2.406  14.019 -0.5285  0.5321 -0.4448
11047TIP3    H254633   6.037   2.359  14.071  0.5546 -0.8096  1.2313
11048TIP3   OH254634   5.369   5.537   2.233  0.1734 -0.3351 -0.9335
11048TIP3    H154635   5.304   5.507   2.169  0.3346  0.0233 -1.2665
11048TIP3    H254636   5.322   5.601   2.287 -0.1123 -1.0134 -0.3510
11049TIP3   OH254637   2.894   4.236   3.300  0.2271  0.6527  0.4982
11049TIP3    H154638   2.896   4.298   3.227  1.2166 -0.1432 -0.1677
11049TIP3    H254639   2.836   4.277   3.364 -0.0403  1.7306 -0.4029
11050TIP3   OH254640   2.108   6.089   5.435 -0.3016  0.2943 -0.4756
11050TIP3    H154641   2.066   6.175   5.436 -1.9313 -0.3549  3.0515
11050TIP3    H254642   2.157   6.086   5.517  2.3033 -1.0901 -1.9589
11051TIP3   OH254643   5.775   0.582  11.466 -0.0909  0.1417  0.0946
11051TIP3    H154644   5.717   0.658  11.454 -1.9023 -0.9966  1.2139
11051TIP3    H254645   5.829   0.581  11.387 -1.4986  1.3483 -0.9454
11052TIP3   OH254646   2.557   5.210   5.215  0.2655  0.5920  0.6127
11052TIP3    H154647   2.558   5.119   5.246 -1.1864  0.3241 -0.0508
11052TIP3    H254648   2.464   5.234   5.213  0.5629  1.7814 -0.1260
11053TIP3   OH254649   5.501   0.065  16.959 -0.0742 -0.7330  0.0850
11053TIP3    H154650   5.443  -0.011  16.956 -0.0502 -0.7790  0.5834
11053TIP3    H254651   5.510   0.084  17.053  0.7182 -0.7361  0.0196
11054TIP3   OH254652   6.498   3.813  13.565 -0.2684 -0.0365 -0.6067
11054TIP3    H154653   6.480   3.901  13.532  0.6657  0.6681  0.7186
11054TIP3    H254654   6.412   3.774  13.578 -0.6909  0.7316 -1.0509
11055TIP3   OH254655   1.386   0.423   4.595 -0.1302 -0.2820 -1.0262
11055TIP3    H154656   1.475   0.406   4.563  0.0166 -1.6038 -0.0405
11055TIP3    H254657   1.364   0.344   4.645 -0.3063  1.5937  2.1170
11056TIP3   OH254658   4.502   4.217   6.707  0.0357  0.4556 -0.5473
11056TIP3    H154659   4.454   4.162   6.769  0.7442  0.0014 -0.3938
11056TIP3    H254660   4.591   4.181   6.707  0.7497  2.1457  0.2275
11057TIP3   OH254661   4.876   0.524   2.983 -0.1706  0.5289  0.0138
11057TIP3    H154662   4.929   0.598   2.954  2.3419 -0.8322  0.7479
11057TIP3    H254663   4.864   0.538   3.077  1.9914 -0.8333  0.5668
11058TIP3   OH254664   6.008   3.199   2.148 -1.2418 -0.1466  0.1822
11058TIP3    H154665   6.006   3.292   2.171 -0.4695  0.1719 -0.9466
11058TIP3    H254666   6.061   3.158   2.216 -0.6459  0.4282  0.0700
11059TIP3   OH254667   1.525   3.282   1.519  0.0031  0.4658 -0.0520
11059TIP3    H154668   1.468   3.232   1.578  2.2883 -3.3914 -0.7164
11059TIP3    H254669   1.496   3.258   1.431  0.8245  0.6998 -0.4021
11060TIP3   OH254670   5.965   4.125  14.897  0.2040 -0.3889  0.0825
11060TIP3    H154671   5.909   4.141  14.973  0.8571 -4.1233  1.5711
11060TIP3    H254672   5.936   4.040  14.863  0.9116  0.4968 -3.0136
11061TIP3   OH254673   2.049   2.765   2.435  0.5754  0.1720  0.4184
11061TIP3    H154674   2.002   2.848   2.441 -0.9320 -0.5590 -0.5361
11061TIP3    H254675   2.132   2.787   2.392 -0.3875  0.9856 -1.1038
11062TIP3   OH254676   5.978   6.417   4.751  0.1336  0.0064  0.5596
11062TIP3    H154677   6.040   6.378   4.813  0.6163 -1.2550 -0.6487
11062TIP3    H254678   6.034   6.460   4.686 -0.0583 -2.4246 -1.3939
11063TIP3   OH254679   0.382   6.184   1.982  0.6298 -0.1860 -0.5019
11063TIP3    H154680   0.359   6.124   2.053 -0.9426 -0.7103 -1.3934
11063TIP3    H254681   0.333   6.264   2.002  1.6420  0.3284 -0.0366
11064TIP3   OH254682   4.787   5.861   2.840  0.3888  0.0104 -0.1981
11064TIP3    H154683   4.747   5.791   2.890  1.1870  0.4239  1.0539
11064TIP3    H254684   4.741   5.940   2.868  0.9291  0.2608 -0.0104
11065TIP3   OH254685   4.919   5.496   0.258 -0.1468 -0.0181 -0.3217
11065TIP3    H154686   4.872   5.579   0.265  0.7480  0.4738  0.0758
11065TIP3    H254687   4.968   5.503   0.176 -0.5771 -0.4290 -0.6159
11066TIP3   OH254688   5.167   1.957   0.678  0.9397 -0.4707 -0.1122
11066TIP3    H154689   5.204   1.904   0.607  0.8922  0.0372 -0.5144
11066TIP3    H254690   5.073   1.952   0.666  0.8198 -2.1182  1.1669
11067TIP3   OH254691   1.307   5.021   5.793 -0.4376 -0.5064  0.0272
11067TIP3    H154692   1.287   5.108   5.828  0.1611 -0.7439  0.9891
11067TIP3    H254693   1.232   4.968   5.817  0.3215 -0.8641  1.7047
11068TIP3   OH254694   1.384   1.551  16.588 -0.1904  0.4444 -0.8303
11068TIP3    H154695   1.465   1.602  16.581 -0.1882  0.3769 -1.3563
11068TIP3    H254696   1.402   1.486  16.656  0.9896 -1.0075 -2.4319
11069TIP3   OH254697   0.216   0.276   0.288 -0.2145  0.2550  0.0501
11069TIP3    H154698   0.231   0.209   0.354  1.3681 -0.9782 -1.4461
11069TIP3    H254699   0.167   0.232   0.219  1.6448  0.2849 -1.3768
11070TIP3   OH254700   5.336   2.092   5.125  0.1889  0.4632  0.3406
11070TIP3    H154701   5.270   2.135   5.180  1.2695  0.7427  1.4718
11070TIP3    H254702   5.417   2.139   5.145  1.1876 -1.3556  0.7270
11071TIP3   OH254703   0.418   1.326   1.705 -0.2114 -0.4403  0.2408
11071TIP3    H154704   0.461   1.404   1.671  0.1594 -0.5035  0.5498
11071TIP3    H254705   0.409   1.342   1.799 -3.1726  0.6494 -0.1466
11072TIP3   OH254706   4.943   5.202  11.579  0.4954  0.0452  0.6860
11072TIP3    H154707   5.021   5.177  11.627  2.1521  1.4121 -1.1512
11072TIP3    H254708   4.937   5.297  11.590 -0.5655  0.0397  0.3210
11073TIP3   OH254709   5.290   1.381   3.505  0.3318 -0.9551 -0.2525
11073TIP3    H154710   5.370   1.349   3.547  0.4004 -2.8313 -1.6808
11073TIP3    H254711   5.316   1.462   3.462  0.9320 -0.4766  0.9763
11074TIP3   OH254712   3.163   0.987  13.001 -0.0196 -0.4714 -0.4639
11074TIP3    H154713   3.175   0.978  12.906  1.1120 -0.0511 -0.3849
11074TIP3    H254714   3.132   0.901  13.029 -2.0097 -0.1242 -1.4174
11075TIP3   OH254715   4.297   1.786   6.057 -0.0031 -0.0513  0.5058
11075TIP3    H154716   4.352   1.824   5.989 -1.7628 -0.1835 -1.0792
11075TIP3    H254717   4.301   1.850   6.129 -0.4461  1.6382 -0.8889
11076TIP3   OH254718   2.311   1.805   3.765  0.3663 -0.6591  0.5323
11076TIP3    H154719   2.397   1.772   3.788  0.3073 -0.2737  1.3523
11076TIP3    H254720   2.283   1.855   3.842 -0.3274 -0.2723  0.0419
11077TIP3   OH254721   4.099   0.124  13.834 -0.8242  0.6206  0.0086
11077TIP3    H154722   4.036   0.161  13.895 -0.1226 -0.4224  1.4281
11077TIP3    H254723   4.172   0.095  13.889  0.4327  0.8312 -1.4693
11078TIP3   OH254724   0.677   0.881  13.743  0.3934 -0.1133 -0.1752
11078TIP3    H154725   0.664   0.832  13.662  0.5294 -0.8761  0.2559
11078TIP3    H254726   0.707   0.967  13.715 -1.0313  0.1497 -1.0035
11079TIP3   OH254727   3.683   2.288  12.911 -0.1639  0.1517 -0.4424
11079TIP3    H154728   3.737   2.367  12.902 -0.3699  0.1666 -1.7545
11079TIP3    H254729   3.606   2.318  12.960  1.2312 -0.0181  2.0542
11080TIP3   OH254730   0.877   2.558   0.952  0.1274  0.2002 -0.4174
11080TIP3    H154731   0.892   2.549   0.858  1.4101 -1.5651 -0.0914
11080TIP3    H254732   0.793   2.514   0.967  1.1117 -1.7955 -0.4345
11081TIP3   OH254733   5.919   5.036   4.690  0.2286  0.4145 -0.4838
11081TIP3    H154734   5.971   5.053   4.768 -1.0308 -0.1642  0.5196
11081TIP3    H254735   5.955   4.955   4.654  0.4449  0.3744 -0.1789
11082TIP3   OH254736   5.725   2.514  12.607 -0.2105 -0.0105 -0.9289
11082TIP3    H154737   5.795   2.521  12.673 -1.2253  0.9183  0.1040
11082TIP3    H254738   5.732   2.594  12.556 -1.1311  0.5945 -0.1505
11083TIP3   OH254739   5.893   3.052   3.128 -0.4203  0.2600 -0.0932
11083TIP3    H154740   5.981   3.078   3.154 -0.4595  0.7328 -0.4288
11083TIP3    H254741   5.903   2.962   3.096 -0.6324 -1.0295  3.0726
11084TIP3   OH254742   6.286   4.456  12.482 -0.4116 -0.1703  0.4537
11084TIP3    H154743   6.243   4.452  12.397 -0.0728 -1.3282  0.3185
11084TIP3    H254744   6.330   4.541  12.482 -1.0520  0.1770 -0.2022
11085TIP3   OH254745   6.494   6.687   6.444 -0.4447  0.1131 -0.2607
11085TIP3    H154746   6.485   6.739   6.364 -1.9543  0.7855  0.3143
11085TIP3    H254747   6.549   6.741   6.502 -1.4909  0.8185  0.1002
11086TIP3   OH254748   5.479   6.172   2.965  0.1430  0.0378 -0.4690
11086TIP3    H154749   5.556   6.200   2.915 -1.1552  0.8094 -2.1222
11086TIP3    H254750   5.414   6.147   2.899 -0.9375 -0.9014  0.8858
11087TIP3   OH254751   3.617   1.993  12.260  0.5564 -0.6065 -0.2527
11087TIP3    H154752   3.688   1.950  12.309 -0.4326 -0.2214  1.6325
11087TIP3    H254753   3.540   1.980  12.316 -0.8694 -0.9667 -2.2155
11088TIP3   OH254754   4.184   0.517   1.845  0.5867 -0.3648 -0.3023
11088TIP3    H154755   4.177   0.427   1.814 -0.2051 -0.8070  1.0935
11088TIP3    H254756   4.273   0.544   1.820  0.7503 -1.4502 -0.9327
11089TIP3   OH254757   1.781   3.488   6.622  0.3725 -0.0717  0.4226
11089TIP3    H154758   1.849   3.556   6.614 -0.1682  0.3027 -1.5784
11089TIP3    H254759   1.797   3.430   6.547 -0.6188 -0.8104  0.7716
11090TIP3   OH254760   2.809   2.990   4.965  0.5439  0.5911  0.2441
11090TIP3    H154761   2.883   2.991   5.024  0.6671 -0.3980  0.1293
11090TIP3    H254762   2.746   3.051   5.004  0.6877  0.0828  1.3028
11091TIP3   OH254763   2.134   3.066  16.128 -0.1410 -0.1809  0.2419
11091TIP3    H154764   2.078   3.125  16.179  2.4932  1.9619  0.9028
11091TIP3    H254765   2.218   3.067  16.174  1.5971 -0.2350 -2.6800
11092TIP3   OH254766   1.062   4.781  15.970 -0.2663  0.2512 -0.9287
11092TIP3    H154767   0.968   4.797  15.975 -0.0792  1.4231 -1.0257
11092TIP3    H254768   1.069   4.686  15.962 -1.5212  0.2465 -2.6370
11093TIP3   OH254769   5.475   3.801   3.192  0.2219 -0.0484 -0.0890
11093TIP3    H154770   5.406   3.865   3.174  0.6989  0.8368  1.0911
11093TIP3    H254771   5.500   3.768   3.106 -1.5199 -0.2370 -0.5584
11094TIP3   OH254772   4.104   3.005   1.517 -0.7336  0.4247 -0.7431
11094TIP3    H154773   4.041   2.949   1.561  0.1498  0.3234  0.4382
11094TIP3    H254774   4.138   2.952   1.445 -3.1153  1.0258 -2.4371
11095TIP3   OH254775   4.039   1.783   2.649 -0.2527  0.3137 -0.1669
11095TIP3    H154776   4.054   1.761   2.558 -1.4583 -1.7435  0.0789
11095TIP3    H254777   3.959   1.836   2.648  0.2573  1.0966 -0.3653
11096TIP3   OH254778   3.914   6.156  12.041 -0.3321  0.1024  0.3500
11096TIP3    H154779   3.834   6.185  11.998 -0.3453  0.7907  0.8185
11096TIP3    H254780   3.912   6.061  12.035  0.2499  0.1732 -2.2223
11097TIP3   OH254781   1.453   0.986   0.558  0.6277  0.5536  0.0362
11097TIP3    H154782   1.402   0.909   0.581 -1.5096  1.9591  0.2856
11097TIP3    H254783   1.471   0.975   0.464 -0.5725  0.2303 -0.1764
11098TIP3   OH254784   3.107   3.210  12.724  0.1069 -0.5500 -0.0349
11098TIP3    H154785   3.043   3.254  12.667  0.4885  0.9082  0.6073
11098TIP3    H254786   3.056   3.148  12.775 -0.6170 -0.1872 -0.3080
11099TIP3   OH254787   0.413   0.556   3.619 -0.0830  0.3212 -0.4220
11099TIP3    H154788   0.470   0.583   3.691  0.5002 -0.0983 -0.7142
11099TIP3    H254789   0.333   0.607   3.632  0.1939  0.6131  0.2390
11100TIP3   OH254790   5.334   1.795   6.198  0.1297  0.1878 -0.1539
11100TIP3    H154791   5.322   1.880   6.240  0.8160  0.6755 -0.9174
11100TIP3    H254792   5.426   1.793   6.173 -0.2351 -0.1364 -1.5268
11101TIP3   OH254793   2.689   5.440  11.907  0.1066 -0.5394 -0.8675
11101TIP3    H154794   2.775   5.415  11.872 -0.0553 -0.4142 -1.3561
11101TIP3    H254795   2.684   5.396  11.992  0.4411 -0.9600 -1.0637
11102TIP3   OH254796   0.779   4.805  16.077  0.2483 -0.3416 -0.4778
11102TIP3    H154797   0.738   4.723  16.050  0.1110 -0.3678 -0.1935
11102TIP3    H254798   0.824   4.783  16.159 -0.1607 -0.0305 -0.1654
11103TIP3   OH254799   1.432   5.375  11.489 -0.6221 -0.2773 -0.3072
11103TIP3    H154800   1.527   5.372  11.495 -0.4829 -1.3783 -2.2661
11103TIP3    H254801   1.404   5.287  11.515 -0.8386 -0.9448 -2.5964
11104TIP3   OH254802   6.444   0.114  14.443 -0.4125  0.1677  0.5919
11104TIP3    H154803   6.435   0.209  14.432  1.1830  0.4640  1.5057
11104TIP3    H254804   6.361   0.087  14.482 -1.7176  0.8108 -1.5791
11105TIP3   OH254805   4.864   6.782   2.460 -0.0785  0.0814 -0.3259
11105TIP3    H154806   4.894   6.696   2.429  0.6446  0.4461 -0.6628
11105TIP3    H254807   4.894   6.843   2.392 -0.7713  0.5739 -0.1890
11106TIP3   OH254808   1.986   2.725   0.147  0.4683  0.0918  0.1548
11106TIP3    H154809   2.062   2.778   0.122  0.9982 -0.1867  1.1267
11106TIP3    H254810   2.002   2.639   0.109  1.1293 -0.2458  1.1568
11107TIP3   OH254811   1.317   5.601   1.759  0.5787 -0.4389 -0.1009
11107TIP3    H154812   1.329   5.507   1.768  2.6338 -0.2429 -0.2686
11107TIP3    H254813   1.400   5.632   1.723 -0.9731  1.0999 -2.6639
11108TIP3   OH254814   4.534   4.507   5.284 -0.5116  0.2599  0.6166
11108TIP3    H154815   4.510   4.464   5.367  2.1927  0.4261  1.5696
11108TIP3    H254816   4.585   4.441   5.237 -2.3270  0.0315 -1.1688
11109TIP3   OH254817   4.069   2.685  13.402  0.3183  0.1197  0.2980
11109TIP3    H154818   4.151   2.656  13.361  0.3546  0.1782  0.3288
11109TIP3    H254819   4.069   2.780  13.392  0.4177  0.1539  0.5958
11110TIP3   OH254820   4.356   1.337  13.168  0.0560 -0.0806  0.0320
11110TIP3    H154821   4.280   1.394  13.159  1.4475  1.7278 -1.1057
11110TIP3    H254822   4.348   1.274  13.097 -1.2349 -1.0113  0.9768
11111TIP3   OH254823   3.688   5.500  13.665  0.0288 -0.4542  0.0773
11111TIP3    H154824   3.742   5.569  13.627 -0.9074  0.5025  0.4201
11111TIP3    H254825   3.733   5.476  13.746 -0.7937  1.4255  1.1621
11112TIP3   OH254826   3.842   3.327  13.995  0.3040 -0.1885  0.1505
11112TIP3    H154827   3.756   3.347  14.032  0.7929 -1.2752  2.0251
11112TIP3    H254828   3.861   3.401  13.937 -0.5700  1.6102  2.0344
11113TIP3   OH254829   5.596   5.659   2.124  0.4978  0.3764 -0.2439
11113TIP3    H154830   5.502   5.642   2.128 -0.0844  3.1339  0.2338
11113TIP3    H254831   5.629   5.627   2.208 -0.1789  0.1302 -0.0601
11114TIP3   OH254832   3.631   0.770  14.658  0.1001  0.1276 -0.3983
11114TIP3    H154833   3.704   0.711  14.676 -1.3221 -1.2927  1.0316
11114TIP3    H254834   3.570   0.717  14.606 -1.4477  0.0617  1.3631
11115TIP3   OH254835   4.256   6.044   4.403  0.4367 -0.2851 -0.4794
11115TIP3    H154836   4.226   6.135   4.397 -0.0445 -0.3120  1.1852
11115TIP3    H254837   4.200   6.005   4.470  2.1175 -1.2004  0.4405
11116TIP3   OH254838   1.811   1.584  16.278  0.2776 -0.0716 -0.2790
11116TIP3    H154839   1.857   1.665  16.256 -0.9550  1.0286  0.9899
11116TIP3    H254840   1.858   1.550  16.355 -0.1129  0.2503  0.1040
11117TIP3   OH254841   2.231   1.225  12.804  0.3670 -0.0549 -0.1507
11117TIP3    H154842   2.144   1.250  12.832  0.0710 -0.5238 -0.6283
11117TIP3    H254843   2.290   1.280  12.856 -0.2520  1.9961 -1.5073
11118TIP3   OH254844   4.002   1.439   5.734 -0.6303 -0.3131  0.3556
11118TIP3    H154845   4.048   1.523   5.729 -0.5843 -0.4070 -1.3315
11118TIP3    H254846   3.910   1.463   5.748 -0.3423 -0.0750  2.0157
11119TIP3   OH254847   4.878   2.457   1.847 -0.3901 -0.3517  0.1861
11119TIP3    H154848   4.865   2.549   1.823  0.9086 -0.5972 -1.6825
11119TIP3    H254849   4.799   2.413   1.816  0.9278 -0.5359 -3.2790
11120TIP3   OH254850   0.277   0.975   3.778  0.1021 -0.0118 -0.0844
11120TIP3    H154851   0.240   0.969   3.866  0.4718  0.7175  0.1331
11120TIP3    H254852   0.255   0.892   3.736  0.5551 -0.6687  0.9467
11121TIP3   OH254853   4.236   6.789  15.629  0.2436 -0.0720  0.3583
11121TIP3    H154854   4.203   6.878  15.634 -1.8686 -0.7573 -0.2399
11121TIP3    H254855   4.259   6.777  15.537 -1.1230 -0.6453  0.0659
11122TIP3   OH254856   5.254   4.842  13.194  1.3126  0.7783 -0.5028
11122TIP3    H154857   5.348   4.852  13.177  0.7992  2.3898 -2.8562
11122TIP3    H254858   5.219   4.931  13.187 -0.1889  0.4960  2.2181
11123TIP3   OH254859   5.090   5.933  11.976 -0.3076  0.1049  0.6757
11123TIP3    H154860   5.096   5.980  11.893  1.7554  1.6238  1.5874
11123TIP3    H254861   5.155   5.864  11.970  0.8798  1.0987  1.4821
11124TIP3   OH254862   1.207   3.520   3.741  0.5150 -0.4107 -0.2084
11124TIP3    H154863   1.236   3.462   3.811  0.5036 -1.3279 -0.9423
11124TIP3    H254864   1.125   3.480   3.710  0.8223 -0.3458 -1.1241
11125TIP3   OH254865   5.652   5.673  14.148  0.5149 -0.2289  0.0967
11125TIP3    H154866   5.693   5.737  14.205  0.8020 -0.8991  0.6571
11125TIP3    H254867   5.638   5.596  14.204 -3.0597  0.5059  0.4128
11126TIP3   OH254868   5.179   4.876  15.016 -0.6868  0.2275  0.5007
11126TIP3    H154869   5.086   4.862  15.001 -0.8615  2.8317 -1.4999
11126TIP3    H254870   5.220   4.860  14.932  0.1900  2.1724  0.4887
11127TIP3   OH254871   0.612   0.233   1.405  0.2643 -0.4941  0.1655
11127TIP3    H154872   0.656   0.256   1.487 -1.3504 -0.7070  1.1189
11127TIP3    H254873   0.519   0.246   1.422 -0.2117 -1.7208 -1.2426
11128TIP3   OH254874   3.535   5.508   5.321  0.0668  0.1319 -0.0176
11128TIP3    H154875   3.476   5.552   5.383 -0.2617  1.9000 -1.5063
11128TIP3    H254876   3.480   5.441   5.281  0.4751 -1.5398  2.0303
11129TIP3   OH254877   0.793   3.928  17.286 -0.2143  0.0889  0.2248
11129TIP3    H154878   0.811   3.911  17.193  2.9339  2.6369  0.1904
11129TIP3    H254879   0.812   3.845  17.329  1.0165 -0.3978 -1.1536
11130TIP3   OH254880   5.518   3.151   3.303 -0.6776  0.5009  0.1919
11130TIP3    H154881   5.528   3.216   3.234 -0.1085 -1.4643 -1.7027
11130TIP3    H254882   5.607   3.131   3.331 -0.8854  1.0190  1.2602
11131TIP3   OH254883   1.857   4.868   1.467 -0.6599  0.3348 -1.2999
11131TIP3    H154884   1.795   4.843   1.398 -1.0655  1.8958 -1.5337
11131TIP3    H254885   1.801   4.904   1.537 -0.1496 -0.0190 -0.7002
11132TIP3   OH254886   4.136   3.203  15.412 -0.3281  0.3686 -0.1793
11132TIP3    H154887   4.045   3.234  15.405 -0.1479  1.2825  1.1669
11132TIP3    H254888   4.152   3.197  15.506  1.2825  1.0422 -0.3900
11133TIP3   OH254889   2.630   5.432   3.222  0.0419 -0.6001  0.0266
11133TIP3    H154890   2.568   5.360   3.234 -1.1893  0.1372 -1.4733
11133TIP3    H254891   2.577   5.511   3.236  0.2786  0.0841 -2.4573
11134TIP3   OH254892   5.144   4.822   2.411 -0.2023  0.5807  0.3958
11134TIP3    H154893   5.082   4.844   2.481  0.0657 -0.6992  1.0754
11134TIP3    H254894   5.090   4.790   2.340 -0.3934  0.4834  0.5826
11135TIP3   OH254895   3.443   2.011   1.228 -0.5410 -0.5098  0.4318
11135TIP3    H154896   3.504   1.949   1.189 -1.9572 -0.9098 -1.3295
11135TIP3    H254897   3.466   2.015   1.321  2.4685 -0.1938 -0.2407
11136TIP3   OH254898   3.051   2.048   2.432  0.0159  0.3667  0.3701
11136TIP3    H154899   3.040   2.105   2.356 -1.5715 -0.2095  0.1242
11136TIP3    H254900   3.049   1.959   2.397  2.3195  0.0931  0.7736
11137TIP3   OH254901   6.198   1.627  11.897  0.0243 -0.3716  0.2480
11137TIP3    H154902   6.121   1.663  11.853 -0.1195 -1.4074 -0.3899
11137TIP3    H254903   6.232   1.562  11.835  0.8496 -0.6060  0.9342
11138TIP3   OH254904   0.620   4.481  15.452 -0.1083  0.2736 -0.1256
11138TIP3    H154905   0.529   4.453  15.465  0.4884 -2.2456 -0.6845
11138TIP3    H254906   0.655   4.418  15.390  2.9523 -1.0990  2.6642
11139TIP3   OH254907   3.180   1.068   1.523  0.7363 -0.2574  0.3440
11139TIP3    H154908   3.194   1.058   1.617  1.6044  1.6513  0.4733
11139TIP3    H254909   3.269   1.068   1.486  0.3969 -1.0908 -0.4906
11140TIP3   OH254910   0.116   4.180  17.185  0.7971 -0.3148 -0.2640
11140TIP3    H154911   0.171   4.138  17.119 -0.0477 -2.1422  0.1546
11140TIP3    H254912   0.111   4.116  17.256  0.3239  0.9383  0.8727
11141TIP3   OH254913   4.335   3.672  14.985  0.2858  0.3930 -0.0431
11141TIP3    H154914   4.306   3.692  14.896 -0.3388 -2.5052 -0.5767
11141TIP3    H254915   4.254   3.672  15.037  0.4000  0.2057  0.1364
11142TIP3   OH254916   5.525   2.692   5.017 -0.2846  0.0993 -0.1680
11142TIP3    H154917   5.518   2.688   4.922 -0.4274 -0.4575 -0.1379
11142TIP3    H254918   5.601   2.638   5.038 -1.7016 -1.8904  0.1962
11143TIP3   OH254919   5.459   3.776   4.980 -0.3223  0.3423 -0.5491
11143TIP3    H154920   5.464   3.708   5.046 -0.1621  0.8069 -0.0804
11143TIP3    H254921   5.371   3.813   4.990 -1.3283 -1.3605 -2.3792
11144TIP3   OH254922   2.129   4.675  17.111  0.0218 -0.8147  0.1839
11144TIP3    H154923   2.187   4.615  17.158 -0.9481 -0.8856  1.3306
11144TIP3    H254924   2.181   4.755  17.100  1.1480 -1.6557 -0.9124
11145TIP3   OH254925   5.136   2.391   1.823  0.5568 -0.5639  0.0069
11145TIP3    H154926   5.151   2.393   1.729  1.9066 -1.2631  0.1735
11145TIP3    H254927   5.042   2.399   1.833  0.4047 -0.3795 -1.3979
11146TIP3   OH254928   2.565   6.340   5.845  0.1249 -0.1387  0.0180
11146TIP3    H154929   2.564   6.297   5.930 -0.2070 -3.7209 -1.6396
11146TIP3    H254930   2.651   6.320   5.809  0.4749  1.8027 -0.3500
11147TIP3   OH254931   4.230   6.461   2.345  0.2960 -0.1030 -0.0081
11147TIP3    H154932   4.159   6.445   2.283  1.2654 -0.5132 -1.0668
11147TIP3    H254933   4.219   6.552   2.372 -1.9515 -0.7853  1.6309
11148TIP3   OH254934   2.768   1.196   0.559  0.2060 -0.2419  0.2478
11148TIP3    H154935   2.689   1.228   0.516 -0.0649 -1.2699 -0.0485
11148TIP3    H254936   2.783   1.109   0.521  2.9713  0.9256 -1.6300
11149TIP3   OH254937   3.467   3.415  17.193  0.8790 -0.0065  0.6907
11149TIP3    H154938   3.443   3.353  17.124 -2.5471  0.0668  1.6061
11149TIP3    H254939   3.399   3.482  17.190  1.8595  1.1814  2.7034
11150TIP3   OH254940   0.736   0.555   5.368  0.9624  0.0808 -0.0334
11150TIP3    H154941   0.768   0.508   5.291  0.7628 -1.1647  0.6154
11150TIP3    H254942   0.643   0.569   5.351  0.6489 -1.2417  0.4583
11151TIP3   OH254943   5.471   6.327  11.119  0.2798  0.1441  0.1903
11151TIP3    H154944   5.404   6.262  11.140 -0.2255  1.2435  2.2626
11151TIP3    H254945   5.444   6.406  11.166  1.3535  1.6107 -1.5042
11152TIP3   OH254946   5.612   2.602  17.019  0.0255 -0.0685 -0.3561
11152TIP3    H154947   5.662   2.570  17.094 -1.3222 -1.7873 -0.1244
11152TIP3    H254948   5.523   2.613  17.053 -0.7095 -1.2779 -1.7632
11153TIP3   OH254949   4.122   1.390  13.429 -0.2168 -0.0152  0.2465
11153TIP3    H154950   4.212   1.386  13.463 -0.3737 -2.4208  0.5970
11153TIP3    H254951   4.068   1.380  13.507 -0.7569  0.3783 -0.0790
11154TIP3   OH254952   1.758   0.775  14.014 -0.1262 -0.0043  0.0635
11154TIP3    H154953   1.828   0.739  13.959 -0.0357  0.3929 -0.0847
11154TIP3    H254954   1.742   0.707  14.079  0.7551  0.1061  0.4105
11155TIP3   OH254955   6.162   1.331   2.003  0.3124 -0.2687 -0.2715
11155TIP3    H154956   6.131   1.242   2.013 -1.2010  0.2932  0.2735
11155TIP3    H254957   6.096   1.374   1.949  1.2922  0.4051 -0.9898
11156TIP3   OH254958   0.460   0.677  11.333 -0.1993  0.7200 -0.1303
11156TIP3    H154959   0.499   0.663  11.419 -0.0328  0.2468 -0.2793
11156TIP3    H254960   0.455   0.590  11.295 -2.8046  0.5329  0.4651
11157TIP3   OH254961   0.443   4.480  11.510  0.0899 -0.1813  0.7964
11157TIP3    H154962   0.353   4.507  11.525  0.4024  0.3070  1.8676
11157TIP3    H254963   0.496   4.545  11.556  1.0907  0.6918 -1.4094
11158TIP3   OH254964   3.479   6.355   5.263 -0.0950  0.3602  0.0383
11158TIP3    H154965   3.442   6.356   5.175  0.3334 -0.7407 -0.1648
11158TIP3    H254966   3.466   6.444   5.295 -2.1332  0.2501 -0.3530
11159TIP3   OH254967   2.462   2.835  13.662  0.2163 -0.1753 -0.5068
11159TIP3    H154968   2.420   2.908  13.708  1.4771 -0.2196  0.7855
11159TIP3    H254969   2.392   2.770  13.652 -0.2399  0.0557  0.9170
11160TIP3   OH254970   0.745   2.638  11.023 -0.0467 -0.3202  0.4994
11160TIP3    H154971   0.685   2.632  10.949  0.9147 -1.2002 -0.2397
11160TIP3    H254972   0.689   2.654  11.098 -1.1602 -0.6485 -0.2404
11161TIP3   OH254973   0.621   5.685  13.348 -0.2166 -0.4091 -0.2892
11161TIP3    H154974   0.688   5.719  13.407 -1.4006 -0.7414  1.3105
11161TIP3    H254975   0.586   5.763  13.304 -1.6992  0.3577  2.0467
11162TIP3   OH254976   2.837   1.122   4.392  0.3176 -0.4904  0.2846
11162TIP3    H154977   2.848   1.206   4.436  1.0159 -2.1358  3.5004
11162TIP3    H254978   2.921   1.078   4.402  0.2176 -1.3499 -2.0007
11163TIP3   OH254979   0.099   4.153  15.173 -0.0590  0.9080  0.1295
11163TIP3    H154980   0.193   4.168  15.167 -0.0468  1.3062  1.0596
11163TIP3    H254981   0.063   4.195  15.096  0.6421 -0.4582 -0.9882
11164TIP3   OH254982   2.587   4.499  16.355  0.0706 -0.0178  0.0592
11164TIP3    H154983   2.522   4.491  16.285  0.7824  1.7717 -0.8568
11164TIP3    H254984   2.565   4.428  16.416 -0.6566 -1.5564 -1.8873
11165TIP3   OH254985   6.027   6.084  10.895 -0.1418  0.4235 -1.0144
11165TIP3    H154986   5.990   6.076  10.807  1.0478  0.1526 -1.5088
11165TIP3    H254987   5.951   6.083  10.953 -0.8802 -0.5733 -1.9555
11166TIP3   OH254988   4.848   2.913   0.121 -0.0226 -0.4840 -0.3407
11166TIP3    H154989   4.883   3.000   0.099 -0.0237 -0.9345 -2.2948
11166TIP3    H254990   4.883   2.895   0.208  1.7478  0.5699 -0.7713
11167TIP3   OH254991   4.769   6.292   5.955  0.2375 -0.9804  0.0036
11167TIP3    H154992   4.746   6.319   6.044 -2.1034 -0.2669 -0.7396
11167TIP3    H254993   4.865   6.290   5.954  0.4995  3.0174  1.4138
11168TIP3   OH254994   2.516   4.520  12.213 -0.2262  0.6829  0.3578
11168TIP3    H154995   2.596   4.573  12.218  0.3689 -0.0927 -0.6336
11168TIP3    H254996   2.465   4.561  12.143  1.3940 -1.4829 -2.2749
11169TIP3   OH254997   6.696   1.021   4.338 -0.1869 -0.7882 -0.1574
11169TIP3    H154998   6.696   1.032   4.433 -2.4878  1.0105 -0.2772
11169TIP3    H254999   6.624   0.961   4.320 -2.1134  1.5996 -0.8945
11170TIP3   OH255000   5.621   6.793   6.379 -0.3964 -0.1555 -0.1491
11170TIP3    H155001   5.568   6.809   6.456 -0.0597  0.7078 -0.0926
11170TIP3    H255002   5.601   6.865   6.320 -0.6854 -0.8278 -0.8958
11171TIP3   OH255003   2.903   2.953   4.365  0.1968  0.0046  0.2449
11171TIP3    H155004   2.940   2.875   4.405 -1.2302 -0.6304  0.3888
11171TIP3    H255005   2.833   2.920   4.308 -0.9804  1.2004  0.9290
11172TIP3   OH255006   5.575   5.644   0.940  0.3565 -0.1373 -0.4401
11172TIP3    H155007   5.564   5.566   0.887  0.2136 -0.1215 -0.4352
11172TIP3    H255008   5.550   5.716   0.882 -0.8231 -0.2004 -0.0420
11173TIP3   OH255009   1.517   6.459  14.217  0.3366 -0.2910 -0.1523
11173TIP3    H155010   1.436   6.506  14.197  0.5221  0.3242  0.4622
11173TIP3    H255011   1.516   6.451  14.312  0.8322 -0.5782 -0.1718
11174TIP3   OH255012   1.906   5.190   2.961 -0.3819  0.1474  0.7274
11174TIP3    H155013   1.992   5.223   2.989  0.1502 -0.7229  0.1708
11174TIP3    H255014   1.905   5.203   2.866 -1.2869  1.0656  0.8428
11175TIP3   OH255015   6.363   0.972   4.762 -0.3974 -0.0991 -0.5503
11175TIP3    H155016   6.442   0.977   4.708  0.3367 -0.2503  0.4717
11175TIP3    H255017   6.389   1.009   4.846 -1.1450 -1.0302  0.1086
11176TIP3   OH255018   2.713   2.935  11.973 -0.7358  0.3926  0.7811
11176TIP3    H155019   2.642   2.991  12.006  0.4183  1.5328  1.4482
11176TIP3    H255020   2.769   2.995  11.923  0.1696 -0.3091  0.9350
11177TIP3   OH255021   4.934   0.309   4.388 -0.2571  0.2516 -0.1264
11177TIP3    H155022   4.948   0.381   4.327 -1.7513  1.1002  0.4938
11177TIP3    H255023   4.928   0.350   4.474 -0.4780 -0.6774  0.3230
11178TIP3   OH255024   2.667   0.756   3.819 -0.1733  0.7551  0.0074
11178TIP3    H155025   2.689   0.722   3.732 -0.6057  0.3681  0.0467
11178TIP3    H255026   2.702   0.845   3.819  1.4247  0.1515  0.0908
11179TIP3   OH255027   4.866   2.896   1.535 -0.4785  0.2714  0.7493
11179TIP3    H155028   4.848   2.803   1.525 -1.8479  0.3211  2.3210
11179TIP3    H255029   4.916   2.920   1.456 -2.3122 -1.2142 -0.9707
11180TIP3   OH255030   2.484   4.373   5.353 -0.5367  0.0095  0.0993
11180TIP3    H155031   2.525   4.313   5.415  0.0500  1.7182  1.4585
11180TIP3    H255032   2.453   4.317   5.282 -0.5446 -1.9372  1.5592
11181TIP3   OH255033   3.555   6.162   3.376  0.1259  0.8017 -0.0012
11181TIP3    H155034   3.550   6.115   3.459  1.9282  0.3946 -0.0774
11181TIP3    H255035   3.561   6.254   3.401  0.4241  0.7001  0.3163
11182TIP3   OH255036   6.017   1.538   5.152  0.0919 -0.2082  0.4278
11182TIP3    H155037   5.956   1.594   5.200 -1.1409 -1.3622  0.2724
11182TIP3    H255038   6.055   1.595   5.086 -1.6823  0.3088 -0.2144
11183TIP3   OH255039   0.338   6.239   0.507  0.5813  0.0064 -0.1096
11183TIP3    H155040   0.369   6.172   0.447 -0.4834  0.9221 -1.7634
11183TIP3    H255041   0.331   6.195   0.592  0.9537 -1.6461 -0.9061
11184TIP3   OH255042   1.979   0.097   2.425 -0.8337  0.5039 -0.8348
11184TIP3    H155043   1.914   0.045   2.378 -1.5412 -0.1328  0.7601
11184TIP3    H255044   2.034   0.034   2.470 -0.0155  1.0827 -0.9988
11185TIP3   OH255045   1.448   6.018  16.826  0.2339  0.7588 -0.1641
11185TIP3    H155046   1.373   5.967  16.796  0.7946  0.5671 -1.2860
11185TIP3    H255047   1.518   5.953  16.836  0.9891  1.2842 -1.7236
11186TIP3   OH255048   2.101   6.504  12.679 -0.4862 -0.5982 -0.7855
11186TIP3    H155049   2.095   6.586  12.631 -0.2340 -0.4602 -0.5845
11186TIP3    H255050   2.189   6.505  12.718 -0.4736 -0.9682 -0.7953
11187TIP3   OH255051   2.454   6.415   2.057  0.3491 -0.6168 -0.3631
11187TIP3    H155052   2.512   6.484   2.023  1.0450 -0.3174  1.3364
11187TIP3    H255053   2.368   6.437   2.023  0.6044  0.9807 -0.0588
11188TIP3   OH255054   5.815   1.286   3.982 -0.2009 -0.5068 -0.1079
11188TIP3    H155055   5.838   1.360   3.925 -0.2835 -0.7760 -0.4956
11188TIP3    H255056   5.743   1.319   4.036  1.2789  0.4810  1.3971
11189TIP3   OH255057   2.357   6.179   4.731 -0.2555 -0.3929 -0.0525
11189TIP3    H155058   2.383   6.089   4.751 -1.4590 -0.8840 -0.5911
11189TIP3    H255059   2.266   6.185   4.759  0.2781  1.1791  1.5098
11190TIP3   OH255060   5.264   3.761  17.040  0.2478 -0.6522  0.4609
11190TIP3    H155061   5.259   3.802  17.127  2.0198 -2.6878  1.6390
11190TIP3    H255062   5.184   3.711  17.032  0.5602 -1.3329  1.4482
11191TIP3   OH255063   5.639   1.401  11.935  0.3573  0.0220  0.1611
11191TIP3    H155064   5.646   1.435  11.846  0.7313 -0.8623 -0.1529
11191TIP3    H255065   5.694   1.323  11.936 -1.2380 -1.1381  0.5966
11192TIP3   OH255066   5.252   3.892  11.170  0.1584 -0.0403 -0.5478
11192TIP3    H155067   5.187   3.940  11.119  0.8405  1.0459 -0.4270
11192TIP3    H255068   5.325   3.953  11.180  0.4267 -0.5510  0.9169
11193TIP3   OH255069   5.442   4.572   2.317 -0.0120 -0.3583  0.3615
11193TIP3    H155070   5.425   4.666   2.315  0.8645 -0.1970  0.3149
11193TIP3    H255071   5.411   4.541   2.231  1.1355  0.1519 -0.2567
11194TIP3   OH255072   1.799   0.379   2.723  0.2287 -1.0990  0.0306
11194TIP3    H155073   1.865   0.330   2.673  0.0156 -0.6644 -0.7005
11194TIP3    H255074   1.817   0.471   2.702 -0.0911 -0.9320  0.4802
11195TIP3   OH255075   0.113   0.403   4.308 -0.0353 -0.1077 -0.2068
11195TIP3    H155076   0.175   0.463   4.266 -1.8661  1.7233 -0.4615
11195TIP3    H255077   0.112   0.430   4.400 -0.1770 -0.3524 -0.1375
11196TIP3   OH255078   3.159   1.945  14.981 -0.2751  0.1042  0.9226
11196TIP3    H155079   3.150   1.984  15.068  0.1960  0.8590  0.6448
11196TIP3    H255080   3.254   1.941  14.967 -0.3222 -1.0118  0.8842
11197TIP3   OH255081   3.328   1.110  12.484 -0.7134 -0.3490  0.5207
11197TIP3    H155082   3.299   1.196  12.456 -2.5156 -1.0558  0.0794
11197TIP3    H255083   3.330   1.057  12.404 -2.9815 -1.5863  1.2051
11198TIP3   OH255084   4.942   0.967  13.741  0.5711  0.2644  0.3538
11198TIP3    H155085   4.908   0.887  13.782 -0.8733 -0.1747 -1.5345
11198TIP3    H255086   4.875   1.033  13.758  0.4816  0.3596 -0.3160
11199TIP3   OH255087   3.004   6.421  12.717 -0.3928 -0.3210 -0.1726
11199TIP3    H155088   3.047   6.337  12.730  2.5416  0.6760 -2.3647
11199TIP3    H255089   2.973   6.418  12.626 -1.1351  0.6346  0.0252
11200TIP3   OH255090   4.272   4.217   1.682 -0.3682 -0.2735 -0.1289
11200TIP3    H155091   4.242   4.277   1.750 -2.8850 -1.2075 -0.2856
11200TIP3    H255092   4.238   4.254   1.601 -0.8021 -1.1947 -0.3798
11201TIP3   OH255093   3.405   6.347  11.844 -0.3653 -0.0689 -0.0162
11201TIP3    H155094   3.435   6.281  11.782 -1.2182  0.3443 -0.9004
11201TIP3    H255095   3.316   6.320  11.867 -1.4818  1.6920 -1.8443
11202TIP3   OH255096   0.786   6.199  11.843  0.6339  0.2492  0.7076
11202TIP3    H155097   0.714   6.231  11.897 -2.0189 -0.5352 -2.0944
11202TIP3    H255098   0.840   6.277  11.827 -0.3447  1.1831  1.7435
11203TIP3   OH255099   3.088   6.152   1.621 -0.5797 -0.5494 -0.3786
11203TIP3    H155100   3.115   6.110   1.703 -0.2082  0.5354  0.0670
11203TIP3    H255101   3.055   6.238   1.647  0.1231  0.0612 -1.4272
11204TIP3   OH255102   0.397   6.740  11.833 -0.1306  0.2028 -0.2281
11204TIP3    H155103   0.376   6.828  11.867 -0.8870  0.0444 -0.2589
11204TIP3    H255104   0.343   6.681  11.885  2.1077 -0.5065  1.4238
11205TIP3   OH255105   6.153   6.417  15.092 -0.3167 -0.3406 -0.3726
11205TIP3    H155106   6.239   6.375  15.095 -0.0543 -0.2515 -3.3180
11205TIP3    H255107   6.171   6.507  15.063 -1.2750  0.2728  0.8469
11206TIP3   OH255108   5.530   4.218  12.706  0.2445  0.1644 -0.7139
11206TIP3    H155109   5.446   4.198  12.664 -0.9269 -2.3802  2.4326
11206TIP3    H255110   5.531   4.163  12.785  3.7448  2.0483  0.7656
11207TIP3   OH255111   4.259   5.773  13.358 -0.4387 -0.0692  0.3732
11207TIP3    H155112   4.190   5.751  13.296 -2.0106  1.6060  1.4383
11207TIP3    H255113   4.256   5.703  13.423 -0.2135 -0.6897 -0.2630
11208TIP3   OH255114   4.380   1.355   1.922 -0.3912 -0.1534 -0.7454
11208TIP3    H155115   4.351   1.265   1.905 -0.8941 -0.2321  0.3814
11208TIP3    H255116   4.475   1.352   1.915 -0.2296 -1.2586  1.2010
11209TIP3   OH255117   2.425   3.270   4.405  0.7166  0.0923  0.5915
11209TIP3    H155118   2.389   3.317   4.480  1.4944  0.3875  0.7890
11209TIP3    H255119   2.357   3.276   4.338 -1.3832 -2.9002  2.2453
11210TIP3   OH255120   6.170   6.474   6.156 -0.3354 -0.1851  0.0796
11210TIP3    H155121   6.195   6.453   6.246 -0.8314 -1.4036 -0.0420
11210TIP3    H255122   6.120   6.397   6.127 -1.9675  1.0521 -0.5304
11211TIP3   OH255123   6.767   0.913  16.835  0.0438 -0.3976 -0.0164
11211TIP3    H155124   6.853   0.917  16.877  0.6103  0.4945 -1.1901
11211TIP3    H255125   6.705   0.930  16.907  1.0707  3.2184  0.2501
11212TIP3   OH255126   4.954   3.989  13.706  0.4419  0.5807  0.1834
11212TIP3    H155127   5.023   3.926  13.685 -1.5184 -0.8181 -2.6717
11212TIP3    H255128   4.914   3.955  13.786  1.4020 -0.0282  0.4204
11213TIP3   OH255129   3.800   4.873   6.439  0.2391 -0.2275 -0.1612
11213TIP3    H155130   3.832   4.810   6.375  0.4362 -1.8171  1.4378
11213TIP3    H255131   3.805   4.828   6.522 -0.2304  1.6999  0.9794
11214TIP3   OH255132   6.611   5.180   2.954  0.6043  0.5341  0.3325
11214TIP3    H155133   6.676   5.168   2.885  1.0634  2.0916  0.4486
11214TIP3    H255134   6.628   5.108   3.016  2.0419  0.7461  0.2162
11215TIP3   OH255135   0.954   0.601   2.331 -0.0308  0.2099 -0.1300
11215TIP3    H155136   0.941   0.555   2.249 -0.7999  1.5123 -0.7693
11215TIP3    H255137   1.040   0.642   2.322  0.2944 -0.4003  0.1112
11216TIP3   OH255138   5.496   3.221   0.751 -0.6001 -0.1659  0.1860
11216TIP3    H155139   5.453   3.266   0.824 -1.9124 -0.5038 -0.3480
11216TIP3    H255140   5.499   3.129   0.777  1.3953  0.0616  0.9480
11217TIP3   OH255141   3.381   2.913   6.020 -0.4797 -0.1011 -0.2461
11217TIP3    H155142   3.405   2.992   5.971 -0.2324 -0.2259 -0.3308
11217TIP3    H255143   3.465   2.876   6.048 -0.6032 -0.2281 -0.0403
11218TIP3   OH255144   4.011   3.683   3.809  0.2231 -0.0212  0.0740
11218TIP3    H155145   4.031   3.717   3.896  0.4183 -0.7838  0.3326
11218TIP3    H255146   4.034   3.754   3.750 -2.4348  1.5803  0.7920
11219TIP3   OH255147   4.939   0.673  13.149 -0.2601  0.0488  0.2066
11219TIP3    H155148   5.017   0.727  13.157  0.5521 -0.9619 -0.6098
11219TIP3    H255149   4.871   0.734  13.120  0.5373  0.6972 -0.3415
11220TIP3   OH255150   3.167   2.356   5.680  0.2091  0.2176  0.1154
11220TIP3    H155151   3.165   2.433   5.623  1.8955  1.1560  1.2475
11220TIP3    H255152   3.260   2.338   5.694 -0.1605 -1.3850  0.7327
11221TIP3   OH255153   0.854   1.828   0.944  0.4585  0.3648 -0.3151
11221TIP3    H155154   0.891   1.767   1.008  0.5600  1.6607  0.9249
11221TIP3    H255155   0.855   1.913   0.989 -0.1533  1.1897 -1.7902
11222TIP3   OH255156   5.324   4.700   4.328  0.2297 -0.4597  0.2589
11222TIP3    H155157   5.235   4.735   4.328  0.4311  0.0921 -0.8911
11222TIP3    H255158   5.381   4.777   4.330  0.6756 -0.7645 -0.2345
11223TIP3   OH255159   1.363   1.787  12.797 -0.0873  0.6191  0.0725
11223TIP3    H155160   1.410   1.726  12.740 -0.9296 -1.3199  1.3532
11223TIP3    H255161   1.282   1.806  12.750 -0.7240 -0.8775  0.4868
11224TIP3   OH255162   3.854   5.290  13.452  0.3406 -0.0854 -0.3894
11224TIP3    H155163   3.853   5.281  13.547  1.8143 -0.1709 -0.3489
11224TIP3    H255164   3.924   5.231  13.423 -1.3206 -1.5213 -1.7179
11225TIP3   OH255165   6.056   4.344  13.722  0.0418  0.3224  0.1913
11225TIP3    H155166   5.960   4.338  13.723 -0.0985  1.9706 -0.5006
11225TIP3    H255167   6.078   4.370  13.632  1.2335 -1.0270  0.0532
11226TIP3   OH255168   4.067   3.877   3.600 -0.1966 -0.1122  0.3505
11226TIP3    H155169   4.046   3.878   3.507 -0.1631 -0.9897  0.3253
11226TIP3    H255170   4.043   3.965   3.631 -1.7005 -0.3085 -0.1547
11227TIP3   OH255171   0.170   1.211  14.989 -0.0701 -0.1135 -0.2062
11227TIP3    H155172   0.239   1.274  14.972  1.4810 -1.1943  1.5980
11227TIP3    H255173   0.193   1.172  15.074 -2.1547 -1.5192 -0.1876
11228TIP3   OH255174   2.151   0.404   0.450 -0.2982  0.0760  0.6728
11228TIP3    H155175   2.159   0.489   0.492  1.0998 -0.3485  1.3120
11228TIP3    H255176   2.151   0.423   0.356  1.1210  0.7177  0.7835
11229TIP3   OH255177   4.902   5.928   5.999  0.2764 -0.7138 -0.2773
11229TIP3    H155178   4.977   5.969   6.042  0.1713 -0.5221 -0.2734
11229TIP3    H255179   4.862   5.873   6.067 -1.2869  1.3947  0.6275
11230TIP3   OH255180   3.605   2.355   4.879  0.3989  0.4393 -0.3476
11230TIP3    H155181   3.584   2.331   4.789 -1.2895  0.7912 -0.0790
11230TIP3    H255182   3.611   2.450   4.879  0.3850  0.4424 -0.0747
11231TIP3   OH255183   3.411   4.167   4.909 -0.3332  0.4830  0.2507
11231TIP3    H155184   3.356   4.244   4.926 -0.6841  0.0535  1.1680
11231TIP3    H255185   3.500   4.202   4.901 -0.8164  1.2992 -2.1978
11232TIP3   OH255186   5.473   3.395   2.487  0.3158  0.1105 -0.4409
11232TIP3    H155187   5.532   3.362   2.419  2.9942  1.7501  0.8936
11232TIP3    H255188   5.420   3.461   2.442 -0.5407 -1.3318 -1.6610
11233TIP3   OH255189   5.552   4.913  12.232 -0.1297  0.0739  0.0708
11233TIP3    H155190   5.544   4.822  12.261 -0.0117 -0.5022 -1.5984
11233TIP3    H255191   5.577   4.907  12.140  0.2175  1.8097  0.0097
11234TIP3   OH255192   6.498   5.461   0.269  0.4760 -0.7073  0.4437
11234TIP3    H155193   6.496   5.489   0.361 -1.4972 -0.8157  0.4810
11234TIP3    H255194   6.409   5.428   0.253 -0.3019  2.3003 -2.4116
11235TIP3   OH255195   0.808   0.417  11.164 -0.0705 -0.3368 -0.4014
11235TIP3    H155196   0.832   0.437  11.254  2.9276 -2.1233 -0.6745
11235TIP3    H255197   0.863   0.474  11.110 -1.5736  0.4677 -1.1561
11236TIP3   OH255198   2.248   1.115  16.329  0.1913  0.1393 -0.7787
11236TIP3    H155199   2.323   1.174  16.326 -1.4888  2.4691 -0.1339
11236TIP3    H255200   2.182   1.157  16.273 -1.1600 -1.0305 -0.1398
11237TIP3   OH255201   1.650   4.676   1.325 -0.2861 -0.0930 -0.0325
11237TIP3    H155202   1.665   4.691   1.232  1.4827  0.5879  0.3267
11237TIP3    H255203   1.699   4.596   1.344  0.6878  0.6328  0.6130
11238TIP3   OH255204   6.359   6.282  11.591 -0.7035  0.4705  0.4956
11238TIP3    H155205   6.339   6.189  11.605 -2.0892  0.7778  0.6880
11238TIP3    H255206   6.337   6.297  11.499 -1.1750  0.7820  0.6616
11239TIP3   OH255207   2.486   3.903   1.952 -0.3032  0.1606  0.0647
11239TIP3    H155208   2.580   3.894   1.971  0.0980  3.4000  0.2326
11239TIP3    H255209   2.442   3.865   2.029  0.8006 -1.6188 -0.1236
11240TIP3   OH255210   3.422   0.249   3.801 -0.4103  0.5939 -0.3553
11240TIP3    H155211   3.365   0.204   3.862  1.6470 -1.3175  0.3295
11240TIP3    H255212   3.445   0.181   3.736  0.6701  1.4235 -0.8707
11241TIP3   OH255213   1.852   6.410  13.855  0.0409 -0.3426 -0.1655
11241TIP3    H155214   1.868   6.480  13.917  0.0715 -2.3747  2.2828
11241TIP3    H255215   1.762   6.384  13.870  0.4917 -1.8414  0.1376
11242TIP3   OH255216   6.794   4.056   3.902 -0.1958  0.1542 -0.3109
11242TIP3    H155217   6.846   4.022   3.975  2.3542  0.5062 -1.8461
11242TIP3    H255218   6.803   4.151   3.908  0.5798  0.1577 -1.4521
11243TIP3   OH255219   5.672   6.011  15.751 -0.1630 -0.3699 -0.0578
11243TIP3    H155220   5.715   5.926  15.741 -0.5965 -0.7979  1.4424
11243TIP3    H255221   5.583   5.989  15.779 -0.6420  0.5655 -0.8023
11244TIP3   OH255222   0.589   1.632  12.957 -0.2931  0.2959 -0.0279
11244TIP3    H155223   0.652   1.565  12.930  0.6292  0.4624  1.5474
11244TIP3    H255224   0.508   1.583  12.971 -0.0663 -0.2194 -0.4597
11245TIP3   OH255225   6.512   0.182  16.058  0.2320 -0.6143 -0.0877
11245TIP3    H155226   6.591   0.160  16.106  0.8670 -0.2321 -0.9359
11245TIP3    H255227   6.483   0.100  16.019  0.8887 -0.5404 -0.7517
11246TIP3   OH255228   0.446   2.222  12.681 -0.2421 -0.1708  0.1259
11246TIP3    H155229   0.399   2.277  12.743 -1.8771 -0.1566 -1.0532
11246TIP3    H255230   0.434   2.133  12.714  0.1069 -0.0490  0.5846
11247TIP3   OH255231   5.993   5.281   5.807 -0.1557  0.9399  0.2219
11247TIP3    H155232   5.957   5.277   5.895  1.6626  0.6339  0.9925
11247TIP3    H255233   6.082   5.248   5.815 -0.5622 -0.9997 -2.1149
11248TIP3   OH255234   4.435   4.793   3.733  0.1218 -0.0990  0.2669
11248TIP3    H155235   4.528   4.773   3.728 -0.1271 -1.1587 -0.3956
11248TIP3    H255236   4.431   4.888   3.734  1.1725 -0.0356 -0.4240
11249TIP3   OH255237   5.458   6.151  16.735 -0.4771 -0.1531 -0.2084
11249TIP3    H155238   5.505   6.187  16.810 -0.0646  0.1110 -0.5884
11249TIP3    H255239   5.440   6.227  16.679 -1.8706 -0.1472  0.1911
11250TIP3   OH255240   3.173   6.696  17.106 -0.1500 -0.3655 -0.1577
11250TIP3    H155241   3.087   6.668  17.075 -0.3116 -0.3425  0.2527
11250TIP3    H255242   3.176   6.790  17.088  0.0631 -0.4912 -0.7884
11251TIP3   OH255243   3.565   6.790   2.112 -0.1177  0.4433 -0.3712
11251TIP3    H155244   3.524   6.735   2.046 -3.1080  0.9072  0.9477
11251TIP3    H255245   3.502   6.861   2.127  0.5444  0.5104  2.7391
11252TIP3   OH255246   2.725   5.033   6.345 -0.3569  0.0168  0.1200
11252TIP3    H155247   2.810   5.024   6.302 -0.0528  0.0519  0.7077
11252TIP3    H255248   2.673   5.086   6.285 -0.7124 -1.8476 -1.3094
11253TIP3   OH255249   0.725   1.853   1.865  0.1989  0.2928 -0.4051
11253TIP3    H155250   0.749   1.910   1.938  0.9514 -0.9435  0.3605
11253TIP3    H255251   0.735   1.908   1.787  1.3925  1.0593  0.2582
11254TIP3   OH255252   1.601   3.153  13.554 -0.5862  0.5385 -0.0244
11254TIP3    H155253   1.638   3.068  13.532  0.4284  0.9283  0.1457
11254TIP3    H255254   1.675   3.205  13.586 -0.7605  2.1748 -2.0463
11255TIP3   OH255255   1.896   3.799  13.758 -0.4380 -0.2626  0.3306
11255TIP3    H155256   1.933   3.885  13.778 -0.8615  0.0527 -0.2273
11255TIP3    H255257   1.887   3.798  13.663 -1.1088 -0.6448  0.3925
11256TIP3   OH255258   6.148   5.966  13.738  0.3373  0.7090  0.0776
11256TIP3    H155259   6.109   6.054  13.738 -3.2866 -0.7018  0.2356
11256TIP3    H255260   6.174   5.952  13.829  1.6108  1.8087 -0.0842
11257TIP3   OH255261   1.966   3.815   1.787  0.0192  0.0319  0.0329
11257TIP3    H155262   1.958   3.724   1.815  1.6035 -0.1103  0.1241
11257TIP3    H255263   1.876   3.847   1.782 -0.6496 -1.8244 -0.9881
11258TIP3   OH255264   4.596   0.380  11.532 -0.3792  0.2047 -0.0773
11258TIP3    H155265   4.650   0.401  11.456 -1.2305 -1.4619 -1.2198
11258TIP3    H255266   4.607   0.454  11.591  2.4963  0.2965 -0.5924
11259TIP3   OH255267   4.099   0.777  12.481 -0.1663 -0.2260  0.3587
11259TIP3    H155268   4.097   0.798  12.575  1.4012  0.0905  0.3578
11259TIP3    H255269   4.187   0.805  12.453 -0.0778 -1.6575 -0.8864
11260TIP3   OH255270   0.909   4.391  11.478 -0.3473 -0.9243 -0.0431
11260TIP3    H155271   0.839   4.328  11.464 -0.7097 -0.6220  0.4137
11260TIP3    H255272   0.956   4.358  11.555 -0.5712 -0.6101  0.2291
11261TIP3   OH255273   3.927   1.622   5.333  0.3740  0.5141 -0.3571
11261TIP3    H155274   3.929   1.608   5.238  0.8350 -1.4873 -0.0935
11261TIP3    H255275   3.975   1.547   5.369 -0.7201  0.6646  1.5186
11262TIP3   OH255276   3.489   6.230  12.886 -0.0436 -0.7960  0.8136
11262TIP3    H155277   3.425   6.282  12.933 -0.5061 -1.3895  0.8594
11262TIP3    H255278   3.571   6.245  12.931  0.5244  2.3013 -0.9825
11263TIP3   OH255279   0.916   2.116   4.141  0.2583  0.1124  0.1711
11263TIP3    H155280   0.948   2.067   4.217 -0.3238 -0.1251  0.2708
11263TIP3    H255281   0.981   2.099   4.072 -0.0076 -0.9404  0.1596
11264TIP3   OH255282   5.480   1.801  15.329  0.5530  0.0434  0.1821
11264TIP3    H155283   5.565   1.756  15.330  0.0887 -0.8506  0.3286
11264TIP3    H255284   5.467   1.825  15.237  0.9879  0.2537  0.1706
11265TIP3   OH255285   6.606   1.361  14.766  0.4481  0.5622  0.3174
11265TIP3    H155286   6.640   1.306  14.696 -1.1683  0.4493 -0.4190
11265TIP3    H255287   6.574   1.299  14.832 -1.1936  0.5532 -0.4255
11266TIP3   OH255288   0.186   1.180   1.096  0.3420  0.0731  0.3920
11266TIP3    H155289   0.249   1.159   1.027 -0.1676 -0.0087 -0.0603
11266TIP3    H255290   0.234   1.234   1.158  0.9923 -0.3972  0.3038
11267TIP3   OH255291   6.592   6.778  15.726  0.1293 -0.4286 -0.1253
11267TIP3    H155292   6.568   6.866  15.699 -0.4785  0.1043  1.9956
11267TIP3    H255293   6.523   6.722  15.690  0.2943 -0.0078 -1.1308
11268TIP3   OH255294   0.906   6.471   5.244 -0.2248  0.1488 -0.4113
11268TIP3    H155295   0.940   6.381   5.246 -2.0487 -0.5810  1.8866
11268TIP3    H255296   0.906   6.499   5.335 -0.8062  2.0808 -0.9525
11269TIP3   OH255297   1.563   2.779  13.748 -0.0233 -0.7339  0.2937
11269TIP3    H155298   1.630   2.833  13.789 -1.7082  1.3784  0.4145
11269TIP3    H255299   1.491   2.839  13.729 -1.8062 -2.8383 -0.0602
11270TIP3   OH255300   3.488   2.975   2.856  0.3996  0.0567  0.4524
11270TIP3    H155301   3.486   2.987   2.951  1.4788 -0.6027  0.5846
11270TIP3    H255302   3.577   2.999   2.831  1.0247 -2.3916  0.0322
11271TIP3   OH255303   3.159   6.047  16.729 -0.3106  0.2985 -0.2925
11271TIP3    H155304   3.252   6.053  16.709 -0.2234 -1.6337 -0.6363
11271TIP3    H255305   3.149   5.960  16.768 -2.0015  0.4238 -0.3918
11272TIP3   OH255306   5.494   0.895  12.667 -0.0960 -0.4545 -0.1829
11272TIP3    H155307   5.404   0.865  12.660  0.3261 -1.8038 -0.1358
11272TIP3    H255308   5.534   0.872  12.583 -0.0507  1.1076 -0.6153
11273TIP3   OH255309   5.403   3.472   5.602 -0.0823 -0.1849 -0.4529
11273TIP3    H155310   5.442   3.555   5.630 -4.1052  1.7353  0.1008
11273TIP3    H255311   5.396   3.421   5.683 -1.0526  0.5827 -0.0221
11274TIP3   OH255312   1.985   1.878   5.431  0.5294  0.2844 -0.6204
11274TIP3    H155313   1.919   1.874   5.362  0.4905  0.7720 -0.6145
11274TIP3    H255314   2.012   1.970   5.433 -2.0534  1.1372  2.4222
11275TIP3   OH255315   6.181   3.770  10.776  0.8109 -0.5245  0.8968
11275TIP3    H155316   6.253   3.822  10.740 -1.5441  1.1640 -1.8380
11275TIP3    H255317   6.144   3.825  10.845 -0.0399  0.3400 -0.2032
11276TIP3   OH255318   2.403   0.987  15.142 -0.0944  0.3397 -0.5311
11276TIP3    H155319   2.489   1.028  15.149  0.5710 -0.6818 -2.2007
11276TIP3    H255320   2.354   1.043  15.081 -0.4454  0.6208 -0.0016
11277TIP3   OH255321   3.920   6.065  13.878  0.1758 -0.0464  0.1715
11277TIP3    H155322   3.897   6.032  13.964 -0.9768 -2.3851 -0.9236
11277TIP3    H255323   3.874   6.148  13.870 -2.7132 -1.5037  0.5179
11278TIP3   OH255324   1.716   0.118  14.385  0.0736  0.9614  0.0741
11278TIP3    H155325   1.769   0.091  14.310 -1.6300 -0.7007 -0.6263
11278TIP3    H255326   1.666   0.193  14.352  1.4046  2.0530  0.4966
11279TIP3   OH255327   1.266   0.277  15.448 -0.5750  0.3003 -0.3233
11279TIP3    H155328   1.349   0.320  15.429  0.6308 -1.2104  1.2390
11279TIP3    H255329   1.201   0.348  15.447  0.4994  1.3749 -2.5727
11280TIP3   OH255330   5.370   1.045   2.270 -0.0197  0.5211  0.2832
11280TIP3    H155331   5.404   1.135   2.273  1.1737  0.1051 -0.0170
11280TIP3    H255332   5.434   0.997   2.217 -1.1622 -0.2980 -0.3913
11281TIP3   OH255333   3.679   0.673  13.698 -0.0470  0.0466 -0.9720
11281TIP3    H155334   3.751   0.692  13.638 -0.4792  2.6351 -0.7769
11281TIP3    H255335   3.615   0.625  13.645  0.5182  0.3891 -1.9788
11282TIP3   OH255336   2.638   2.700   2.535 -0.0826  0.3149  0.7694
11282TIP3    H155337   2.579   2.766   2.498 -1.3840 -0.4882  1.3197
11282TIP3    H255338   2.703   2.685   2.467 -0.7565  0.9373 -0.0342
11283TIP3   OH255339   1.978   5.845   5.335 -0.4623 -0.1796  0.2170
11283TIP3    H155340   2.059   5.806   5.368  0.2625  0.9762 -0.1304
11283TIP3    H255341   1.986   5.938   5.356 -0.4063  0.4557 -2.2799
11284TIP3   OH255342   6.538   4.032  11.322 -0.1811 -0.2014 -0.0588
11284TIP3    H155343   6.551   4.002  11.412 -0.8090  0.7879  0.3829
11284TIP3    H255344   6.443   4.032  11.310 -0.0620 -2.3436 -1.4631
11285TIP3   OH255345   2.703   0.206   5.931  0.8017  0.1633  1.0928
11285TIP3    H155346   2.659   0.121   5.939 -2.2714  1.5042  0.0639
11285TIP3    H255347   2.685   0.250   6.014  0.7459  0.5029  0.9018
11286TIP3   OH255348   2.932   0.559   1.401  0.2789  0.3359  0.3491
11286TIP3    H155349   2.954   0.648   1.372 -0.4381  0.3229 -0.2560
11286TIP3    H255350   2.965   0.502   1.331  1.6985  0.0186  1.2268
11287TIP3   OH255351   0.932   1.142  15.079 -0.4797  0.2601 -0.0194
11287TIP3    H155352   1.001   1.208  15.076 -0.0150 -0.0873  1.8973
11287TIP3    H255353   0.979   1.059  15.093 -1.2686  0.1232  2.2280
11288TIP3   OH255354   3.496   5.159  13.064  0.5525  0.0574  0.2831
11288TIP3    H155355   3.533   5.162  13.152 -0.2831 -0.2377  0.6562
11288TIP3    H255356   3.517   5.072  13.031  2.8134  0.9050 -0.7067
11289TIP3   OH255357   0.182   4.729   4.075  0.0098  0.2870  0.2339
11289TIP3    H155358   0.228   4.810   4.054 -1.3174  1.4619  1.6228
11289TIP3    H255359   0.142   4.701   3.992  0.4324  1.0793 -0.2420
11290TIP3   OH255360   0.691   3.408   4.886  0.7667 -0.1392 -0.0918
11290TIP3    H155361   0.718   3.316   4.899  4.3721  0.5147 -1.5484
11290TIP3    H255362   0.732   3.455   4.959  1.8328  0.6605 -1.1700
11291TIP3   OH255363   0.931   0.125   6.054  0.0374 -0.2424 -0.1563
11291TIP3    H155364   0.865   0.158   5.993 -0.1684  0.5450  0.4712
11291TIP3    H255365   0.889   0.050   6.096 -1.5066  1.7230  2.0650
11292TIP3   OH255366   1.488   4.794  11.895  0.0951 -0.0549 -0.2539
11292TIP3    H155367   1.492   4.873  11.842  1.9639  1.0026  1.3125
11292TIP3    H255368   1.531   4.818  11.977 -1.1567 -2.1039  1.0956
11293TIP3   OH255369   5.354   2.788  15.534  0.6950 -0.0505  0.0769
11293TIP3    H155370   5.287   2.821  15.594 -0.5622 -1.1196 -0.7029
11293TIP3    H255371   5.432   2.779  15.588  0.1111  0.8052  1.1020
11294TIP3   OH255372   2.934   1.154  13.041 -0.3155 -0.3856  0.3448
11294TIP3    H155373   2.987   1.228  13.069  0.0537 -0.7801  0.7038
11294TIP3    H255374   2.997   1.083  13.025 -0.7108 -0.7999  0.5813
11295TIP3   OH255375   2.342   1.708   2.479  0.4986 -0.5555  0.0423
11295TIP3    H155376   2.341   1.613   2.475 -0.6225 -0.5528 -0.0884
11295TIP3    H255377   2.261   1.731   2.525  1.4833  0.2847  1.3924
11296TIP3   OH255378   0.105   5.984  16.321 -0.4400 -0.0659 -0.0259
11296TIP3    H155379   0.109   6.057  16.383 -1.8018 -0.1974  0.2475
11296TIP3    H255380   0.195   5.950  16.319 -0.3098  0.0358  1.7566
11297TIP3   OH255381   3.565   5.803   2.208  0.1398  0.1586  0.0988
11297TIP3    H155382   3.637   5.836   2.262  0.4195  0.3419 -0.3812
11297TIP3    H255383   3.514   5.881   2.185  0.2964  0.1456 -0.2994
11298TIP3   OH255384   5.800   4.096   4.623 -0.1126 -0.0837  0.3874
11298TIP3    H155385   5.805   4.000   4.619 -0.0410 -0.0834  0.4708
11298TIP3    H255386   5.807   4.124   4.532  0.9361 -0.1087  0.4391
11299TIP3   OH255387   1.136   2.854  14.170 -0.2289 -0.2439 -0.0590
11299TIP3    H155388   1.142   2.802  14.090  0.9034 -1.2399  0.6425
11299TIP3    H255389   1.163   2.942  14.144  1.0599 -0.7767 -0.5891
11300TIP3   OH255390   0.969   4.196  12.662 -0.5675 -0.2880 -0.0070
11300TIP3    H155391   0.970   4.240  12.577 -0.8314 -0.0856  0.0952
11300TIP3    H255392   0.877   4.194  12.687 -0.3288  1.2269  1.1031
11301TIP3   OH255393   6.140   0.564  17.276 -0.0308  0.8510 -0.1326
11301TIP3    H155394   6.126   0.554  17.182 -1.5450  1.0817  0.0337
11301TIP3    H255395   6.163   0.477  17.307 -0.3309  0.6037 -0.5990
11302TIP3   OH255396   2.815   4.057  12.082 -0.0838 -0.1771  0.1085
11302TIP3    H155397   2.848   3.981  12.130  1.1269 -1.5991 -2.8026
11302TIP3    H255398   2.892   4.096  12.040 -0.8640  1.9836  0.5115
11303TIP3   OH255399   1.524   2.586   5.881  0.1123  0.2912 -0.1761
11303TIP3    H155400   1.454   2.574   5.816  1.1390 -2.3420 -0.9183
11303TIP3    H255401   1.516   2.511   5.939  1.0985  1.0426  0.9690
11304TIP3   OH255402   3.708   0.904   1.665 -0.0235  0.1032  0.3600
11304TIP3    H155403   3.749   0.818   1.652 -1.3495 -0.4493 -0.4671
11304TIP3    H255404   3.751   0.961   1.602 -1.0227 -0.6613 -1.0810
11305TIP3   OH255405   4.797   4.241  12.918  0.4810  0.0536 -0.2255
11305TIP3    H155406   4.707   4.220  12.894  0.2524  0.4287  0.3099
11305TIP3    H255407   4.814   4.326  12.877  0.0249  0.7920  1.0647
11306TIP3   OH255408   5.427   3.551   1.833 -0.4232 -0.9242 -0.3546
11306TIP3    H155409   5.405   3.617   1.899  0.3719 -0.1286 -0.8648
11306TIP3    H255410   5.466   3.480   1.884 -1.6820 -1.2248  0.2515
11307TIP3   OH255411   0.882   5.118  17.235  0.3751 -0.2500 -0.4880
11307TIP3    H155412   0.937   5.136  17.311  0.5193  0.4399 -0.7507
11307TIP3    H255413   0.794   5.109  17.271  0.7338 -2.0576  0.0211
11308TIP3   OH255414   3.259   3.193   5.152  0.1597 -0.6583  0.2219
11308TIP3    H155415   3.246   3.287   5.156 -4.4691 -1.0914  0.3273
11308TIP3    H255416   3.279   3.167   5.242  1.4670  0.1422  0.1883
11309TIP3   OH255417   5.840   3.058   3.807  0.2233 -0.0790  0.7236
11309TIP3    H155418   5.783   3.129   3.778  0.4223  0.9094  2.5891
11309TIP3    H255419   5.882   3.026   3.727 -0.0759  1.7276 -0.1982
11310TIP3   OH255420   0.343   1.467   2.889 -0.3313  0.0669 -0.9023
11310TIP3    H155421   0.360   1.475   2.795  0.6507 -1.2542 -0.8640
11310TIP3    H255422   0.369   1.378   2.910 -3.5607 -0.7827  0.0134
11311TIP3   OH255423   4.848   0.665   3.943 -0.0503 -0.3949  0.6164
11311TIP3    H155424   4.842   0.755   3.911  3.6229 -0.3387 -0.2883
11311TIP3    H255425   4.782   0.617   3.891  0.3876  1.1439 -1.4807
11312TIP3   OH255426   4.625   4.184   4.144  0.3810  0.6986 -0.0249
11312TIP3    H155427   4.552   4.241   4.165  1.5421  1.9104  0.8781
11312TIP3    H255428   4.631   4.186   4.048 -1.6060 -0.5726 -0.2493
11313TIP3   OH255429   2.900   2.054  10.656 -0.2350 -0.5234  0.4929
11313TIP3    H155430   2.900   2.085  10.566  1.0073  1.9789  1.2662
11313TIP3    H255431   2.942   1.968  10.653  1.9418  0.5101 -1.0510
11314TIP3   OH255432   2.552   6.734  11.471  0.5357 -0.6669 -0.6682
11314TIP3    H155433   2.498   6.665  11.508 -2.2352  0.7469 -1.8162
11314TIP3    H255434   2.556   6.801  11.539 -0.2788 -0.2252 -1.0459
11315TIP3   OH255435   1.197   4.219   0.195  0.4251 -0.0851  0.3222
11315TIP3    H155436   1.237   4.142   0.236 -0.8572 -0.2735  1.2694
11315TIP3    H255437   1.129   4.183   0.138  0.4223  0.3081  0.0740
11316TIP3   OH255438   4.007   1.998   3.711  0.1887 -0.0126  0.3006
11316TIP3    H155439   4.048   2.079   3.681  0.4837 -0.1156  0.4235
11316TIP3    H255440   4.057   1.973   3.789  0.7251 -0.8228 -0.2890
11317TIP3   OH255441   0.625   1.961   1.387  0.3409 -0.6430  0.1896
11317TIP3    H155442   0.584   1.887   1.343 -0.2304 -0.3094  0.1536
11317TIP3    H255443   0.691   1.922   1.444 -1.5867 -1.3991  2.0458
11318TIP3   OH255444   6.289   3.321  14.505 -0.6411  0.3333 -0.0917
11318TIP3    H155445   6.354   3.364  14.560  1.1622 -3.0100  0.6618
11318TIP3    H255446   6.266   3.241  14.552 -0.2580 -1.9001 -3.3491
11319TIP3   OH255447   4.535   0.880   1.224  0.2013  0.4900 -0.1609
11319TIP3    H155448   4.623   0.902   1.253 -0.3701  0.8090  1.4204
11319TIP3    H255449   4.498   0.962   1.194 -0.9438  1.3163  3.0845
11320TIP3   OH255450   5.749   1.823   2.633 -0.3726 -0.1166 -0.8755
11320TIP3    H155451   5.768   1.801   2.542 -2.7857  0.0671 -1.4869
11320TIP3    H255452   5.673   1.769   2.655 -0.4870  0.6274  0.6785
11321TIP3   OH255453   5.253   0.425  11.128 -0.3400 -0.3047  0.1684
11321TIP3    H155454   5.245   0.337  11.091 -0.9045 -0.5031  0.7376
11321TIP3    H255455   5.337   0.457  11.096 -1.2042 -0.0890 -2.0687
11322TIP3   OH255456   6.520   0.643   5.379  0.1621  0.0617 -0.0318
11322TIP3    H155457   6.451   0.667   5.316  1.5390  1.5862 -1.0488
11322TIP3    H255458   6.483   0.666   5.464 -1.0370 -0.2578 -0.4445
11323TIP3   OH255459   5.147   0.887  17.167  0.9807 -0.2676  0.8274
11323TIP3    H155460   5.116   0.805  17.128  0.8049  0.0102  0.3764
11323TIP3    H255461   5.127   0.878  17.260  1.9543 -1.2032  0.9759
11324TIP3   OH255462   2.365   2.049   3.337 -0.1555  0.0244 -0.1498
11324TIP3    H155463   2.406   1.989   3.399  0.3208  0.5893  0.0975
11324TIP3    H255464   2.279   2.069   3.375  0.5331  1.1696  0.8858
11325TIP3   OH255465   1.635   4.944   2.070  0.1741  0.5324 -0.8372
11325TIP3    H155466   1.683   4.912   2.146  1.1070  0.7857 -1.3009
11325TIP3    H255467   1.622   5.037   2.087  0.5450  0.6283 -1.0620
11326TIP3   OH255468   4.172   1.315   0.264  0.0682 -0.1389  0.0853
11326TIP3    H155469   4.247   1.367   0.235  2.0798 -1.6708  2.1775
11326TIP3    H255470   4.186   1.228   0.226  0.1754 -0.8357  1.6434
11327TIP3   OH255471   5.473   5.352   3.008  0.0209  0.0181 -0.1344
11327TIP3    H155472   5.437   5.403   3.081 -0.4670 -0.4602 -0.0382
11327TIP3    H255473   5.488   5.265   3.045  1.4810  0.2451 -0.1096
11328TIP3   OH255474   2.615   2.350   0.037 -0.0431  0.3314  0.2712
11328TIP3    H155475   2.541   2.290   0.039 -0.8688  1.2649 -0.7263
11328TIP3    H255476   2.619   2.387   0.125 -2.0306  1.7103 -0.1594
11329TIP3   OH255477   4.556   0.029   1.710  0.3940  0.6140 -0.0281
11329TIP3    H155478   4.633  -0.005   1.756  0.2624 -0.0210 -0.2570
11329TIP3    H255479   4.591   0.070   1.631  0.4419 -0.5300 -0.6265
11330TIP3   OH255480   2.424   5.340  12.977  0.0294 -0.5771 -0.0933
11330TIP3    H155481   2.352   5.390  13.016 -0.7042  0.1295 -2.1997
11330TIP3    H255482   2.502   5.393  12.994 -0.5308  0.5947 -1.0343
11331TIP3   OH255483   0.920   1.439   3.233 -0.4597  0.1730  0.3446
11331TIP3    H155484   0.938   1.373   3.165  1.5014 -0.1724  1.1324
11331TIP3    H255485   0.965   1.518   3.202 -0.2026  0.2382  0.8887
11332TIP3   OH255486   5.345   1.640   0.668 -0.1173  0.3130  0.6017
11332TIP3    H155487   5.271   1.580   0.669 -0.1022  0.2904  0.3271
11332TIP3    H255488   5.377   1.641   0.758  1.4389 -2.0254  0.1595
11333TIP3   OH255489   1.520   6.603  11.123 -0.2434 -0.0985 -0.4275
11333TIP3    H155490   1.552   6.540  11.188 -1.8044 -0.6348 -0.1081
11333TIP3    H255491   1.556   6.573  11.040 -0.1389 -0.8186 -0.1287
11334TIP3   OH255492   4.914   3.560   5.733 -0.2211 -0.5093 -0.1574
11334TIP3    H155493   4.830   3.605   5.732  0.5926  1.0780 -1.2913
11334TIP3    H255494   4.925   3.531   5.824 -1.0853  1.0262  0.4714
11335TIP3   OH255495   0.607   1.694  14.820 -0.5070 -0.7218 -0.0197
11335TIP3    H155496   0.544   1.689  14.892 -0.6035  0.7904  0.0303
11335TIP3    H255497   0.692   1.688  14.863 -0.5186  1.5990  0.4288
11336TIP3   OH255498   0.427   2.487   2.132  0.4144  0.7613  0.0483
11336TIP3    H155499   0.440   2.424   2.062  1.0007  0.6165  0.2807
11336TIP3    H255500   0.514   2.526   2.146 -0.0397  2.0271 -0.4775
11337TIP3   OH255501   5.420   0.536   1.802 -0.2571  0.0408 -0.2276
11337TIP3    H155502   5.438   0.466   1.739  0.4835 -0.6728  0.7550
11337TIP3    H255503   5.501   0.587   1.804  0.1820 -0.6604  1.0281
11338TIP3   OH255504   2.870   5.262  15.391 -0.0774 -0.3833 -0.6639
11338TIP3    H155505   2.910   5.281  15.306 -0.0776 -0.6211 -0.7187
11338TIP3    H255506   2.779   5.291  15.382  0.0857  0.1785 -0.5307
11339TIP3   OH255507   4.481   3.117  12.365 -0.3489 -0.0400  0.6983
11339TIP3    H155508   4.437   3.154  12.441  0.4859  1.4446  0.4907
11339TIP3    H255509   4.477   3.022  12.379 -2.0466  0.1221  1.5288
11340TIP3   OH255510   6.565   2.320  14.483  0.0836  0.3258 -0.0743
11340TIP3    H155511   6.476   2.336  14.451  0.4913  0.0306 -1.4405
11340TIP3    H255512   6.557   2.319  14.578 -1.1417  1.6275 -0.1379
11341TIP3   OH255513   4.350   2.496  15.760  0.7243  0.0991 -0.1691
11341TIP3    H155514   4.285   2.428  15.777  0.3139  0.5503  0.0552
11341TIP3    H255515   4.386   2.473  15.674 -1.3804  1.1539 -1.3912
11342TIP3   OH255516   2.188   5.540  12.252 -0.2719  0.3949  0.0959
11342TIP3    H155517   2.261   5.506  12.304 -1.7009 -1.0198  1.3021
11342TIP3    H255518   2.158   5.617  12.301 -0.8674 -0.2377  0.7439
11343TIP3   OH255519   4.689   5.001   4.283 -0.3124  0.3715  0.1297
11343TIP3    H155520   4.603   4.998   4.240 -1.2686 -2.8605  1.9499
11343TIP3    H255521   4.748   4.959   4.221 -0.5871  0.2654 -0.0618
11344TIP3   OH255522   3.726   3.215   6.004 -0.2111 -0.3217  0.5755
11344TIP3    H155523   3.810   3.206   5.961  1.1143  1.7848  2.4986
11344TIP3    H255524   3.722   3.140   6.064  1.8034  1.1028  2.6595
11345TIP3   OH255525   6.705   4.592   2.851 -0.7376 -0.1427 -0.6807
11345TIP3    H155526   6.780   4.607   2.794  0.5838 -2.3832  0.3197
11345TIP3    H255527   6.650   4.531   2.802 -0.4760 -0.6958 -0.2989
11346TIP3   OH255528   4.307   2.176   2.651 -0.2453 -0.1032  0.2404
11346TIP3    H155529   4.298   2.237   2.724  1.0712  0.1080  0.2414
11346TIP3    H255530   4.319   2.091   2.692 -1.1586 -0.2416  0.2434
11347TIP3   OH255531   4.657   4.517   1.691 -0.4919  0.2831 -0.8005
11347TIP3    H155532   4.677   4.570   1.614 -0.2332  0.6394 -0.4922
11347TIP3    H255533   4.713   4.553   1.760 -0.4564 -0.2692 -0.5375
11348TIP3   OH255534   0.880   0.576  12.679  0.0558  0.2562  0.4197
11348TIP3    H155535   0.806   0.516  12.684 -0.3449  0.7268  0.1476
11348TIP3    H255536   0.887   0.598  12.586  1.6601 -1.1812  0.1515
11349TIP3   OH255537   1.438   5.021   0.731 -0.0683  0.9975  0.1066
11349TIP3    H155538   1.500   4.952   0.707 -0.8841  0.3077 -0.1020
11349TIP3    H255539   1.353   4.977   0.731 -0.7666  2.2778 -1.1978
11350TIP3   OH255540   6.722   4.415   3.298  0.3626 -0.2640  0.3017
11350TIP3    H155541   6.629   4.396   3.287 -0.2868  2.4377  0.5215
11350TIP3    H255542   6.766   4.333   3.277 -2.0402 -1.5446 -0.0337
11351TIP3   OH255543   0.160   2.420   3.009 -0.3370 -0.0092 -0.5279
11351TIP3    H155544   0.068   2.444   2.998 -0.4043 -0.6183 -1.3751
11351TIP3    H255545   0.208   2.501   2.994 -0.7086  0.2324 -0.4422
11352TIP3   OH255546   0.869   6.692  11.746 -0.2638  0.1453  0.6463
11352TIP3    H155547   0.832   6.691  11.834 -1.3035  1.9575  0.2795
11352TIP3    H255548   0.822   6.762  11.701  0.2905 -0.7003 -1.3447
11353TIP3   OH255549   4.260   0.026  14.659  0.1381 -0.2106  0.7214
11353TIP3    H155550   4.262   0.094  14.725  0.7507  0.7897 -0.3011
11353TIP3    H255551   4.203   0.060  14.590  1.5637 -0.0887 -0.4470
11354TIP3   OH255552   4.142   0.357   3.762  0.3073  0.0137 -0.5032
11354TIP3    H155553   4.202   0.424   3.729  1.1237  0.2260  1.3184
11354TIP3    H255554   4.057   0.383   3.726  0.3892  2.6880  0.9819
11355TIP3   OH255555   4.408   4.567   1.338  0.2963 -0.5611 -0.4019
11355TIP3    H155556   4.429   4.494   1.281  0.6471  0.2922 -1.3926
11355TIP3    H255557   4.336   4.612   1.295 -1.7951 -1.8449  1.5646
11356TIP3   OH255558   4.068   4.626   3.495  0.1117 -0.0087  0.2802
11356TIP3    H155559   4.132   4.615   3.566  0.2141  1.0526  0.3627
11356TIP3    H255560   3.986   4.592   3.532  0.0123  1.1233  1.1500
11357TIP3   OH255561   5.031   5.771  14.538 -0.1839  0.2817  0.1302
11357TIP3    H155562   5.096   5.808  14.597  1.5840 -0.1235 -1.4438
11357TIP3    H255563   5.046   5.677  14.541 -1.4719  0.0640  0.5541
11358TIP3   OH255564   1.294   3.672  14.471 -0.1464 -0.1836 -0.3705
11358TIP3    H155565   1.269   3.665  14.563 -1.2360  0.7362 -0.5783
11358TIP3    H255566   1.331   3.586  14.450  1.5033  0.0416  1.2922
11359TIP3   OH255567   3.222   0.297   0.111 -0.4610 -0.3372 -0.3641
11359TIP3    H155568   3.167   0.256   0.177 -0.7557  0.0463 -0.3657
11359TIP3    H255569   3.282   0.228   0.082  0.8866 -0.0685  1.5918
11360TIP3   OH255570   5.151   2.993   4.257  0.1604  0.0186  0.2506
11360TIP3    H155571   5.219   2.953   4.202 -0.5221 -0.8581  0.0155
11360TIP3    H255572   5.194   3.007   4.341  1.2462  1.4540 -0.5012
11361TIP3   OH255573   3.272   6.730   0.742  0.2898 -0.1991 -0.0043
11361TIP3    H155574   3.183   6.720   0.776  0.5826 -0.7763  0.6159
11361TIP3    H255575   3.288   6.825   0.744  0.3299 -0.2148  1.5889
11362TIP3   OH255576   2.393   2.450  16.772  0.1302 -0.0588  0.4096
11362TIP3    H155577   2.393   2.534  16.818 -0.2181  1.1415 -1.6356
11362TIP3    H255578   2.300   2.427  16.764  0.0038  0.9031 -1.5440
11363TIP3   OH255579   0.070   5.170   0.515  0.5116 -0.0318  0.3753
11363TIP3    H155580   0.058   5.207   0.427  0.7668  1.0465  0.7834
11363TIP3    H255581   0.143   5.109   0.505  0.0652 -0.4791 -0.3149
11364TIP3   OH255582   1.101   4.015   1.290 -0.2781 -0.1547  0.0024
11364TIP3    H155583   1.116   3.922   1.268  2.2843  0.5314 -1.6520
11364TIP3    H255584   1.007   4.021   1.304 -1.1509 -2.3567 -3.4248
11365TIP3   OH255585   3.494   0.272   5.344 -0.9718 -0.1250 -0.0987
11365TIP3    H155586   3.410   0.307   5.372 -1.0673  0.9527 -1.6694
11365TIP3    H255587   3.558   0.318   5.398 -1.3367 -0.6701  0.8284
11366TIP3   OH255588   5.720   2.504   2.243  0.0457  0.0608 -0.0879
11366TIP3    H155589   5.645   2.541   2.290  0.8525  1.3618  0.2189
11366TIP3    H255590   5.689   2.418   2.213 -1.0178 -0.1191  1.4193
11367TIP3   OH255591   2.192   3.264  11.649  0.5397 -0.1773  0.2864
11367TIP3    H155592   2.155   3.199  11.589 -1.3227  0.1132  1.0413
11367TIP3    H255593   2.262   3.306  11.599  0.3384 -1.2837 -0.9766
11368TIP3   OH255594   0.029   6.375   4.374  0.6727 -0.1483  0.3489
11368TIP3    H155595  -0.023   6.326   4.438 -0.5123  0.5282 -0.0583
11368TIP3    H255596   0.114   6.331   4.373 -0.1638 -1.8548  0.3988
11369TIP3   OH255597   1.997   5.675   0.608 -0.1400 -0.2490  0.0850
11369TIP3    H155598   1.911   5.662   0.567 -0.5547  0.7438  0.5935
11369TIP3    H255599   1.995   5.766   0.637  0.6456 -0.5598  1.1545
11370TIP3   OH255600   0.158   2.743  13.213 -0.0166  0.1588  0.2245
11370TIP3    H155601   0.104   2.760  13.290 -0.4450  0.1829 -0.0827
11370TIP3    H255602   0.106   2.772  13.139  0.0204 -0.6988 -0.1573
11371TIP3   OH255603   6.489   1.508  11.107 -0.2225 -0.1059 -0.2887
11371TIP3    H155604   6.415   1.525  11.166 -0.5212 -2.9459  0.2930
11371TIP3    H255605   6.462   1.544  11.023 -2.9738 -2.2809 -0.4612
11372TIP3   OH255606   5.742   4.858   2.368  0.5270 -0.2015 -0.6152
11372TIP3    H155607   5.799   4.915   2.316  2.1814 -0.4214  0.8508
11372TIP3    H255608   5.655   4.895   2.356  0.9153  0.0680 -3.0576
11373TIP3   OH255609   4.005   4.457   1.442  0.5292  0.0629 -0.0342
11373TIP3    H155610   3.948   4.419   1.376  0.6326 -0.2452  0.0513
11373TIP3    H255611   3.955   4.530   1.479 -0.5496 -1.2829  1.2902
11374TIP3   OH255612   0.412   5.477   4.975  0.2329  0.0001 -0.1886
11374TIP3    H155613   0.417   5.431   5.059  0.4866 -0.8652 -0.6663
11374TIP3    H255614   0.322   5.465   4.946  0.2532 -0.0521 -0.2312
11375TIP3   OH255615   0.044   2.563  15.841  0.3520 -0.2411 -0.5468
11375TIP3    H155616   0.087   2.647  15.851 -2.0840  1.0545 -0.1884
11375TIP3    H255617   0.042   2.525  15.929 -2.5109  1.5036  0.2782
11376TIP3   OH255618   4.657   1.463  14.361  0.0640  0.0984 -0.4491
11376TIP3    H155619   4.657   1.555  14.387  0.1573 -0.3928  1.4789
11376TIP3    H255620   4.691   1.417  14.438 -0.6394 -1.6086 -1.1126
11377TIP3   OH255621   1.947   6.644  15.386 -0.3706  0.0235  0.0521
11377TIP3    H155622   1.997   6.667  15.307  0.1238 -0.0435  0.3397
11377TIP3    H255623   1.914   6.727  15.419  1.4567  0.3851  1.1203
11378TIP3   OH255624   0.149   6.351   6.298  0.3921 -0.4608  0.8434
11378TIP3    H155625   0.226   6.407   6.306  1.3784 -1.3969 -1.2298
11378TIP3    H255626   0.183   6.262   6.292 -0.9349 -1.0257  1.1558
11379TIP3   OH255627   5.466   3.546   0.306 -0.0066 -0.2701 -0.0682
11379TIP3    H155628   5.445   3.460   0.342 -1.6171 -0.5826 -1.6156
11379TIP3    H255629   5.453   3.537   0.212 -1.0329  1.8708 -0.1977
11380TIP3   OH255630   4.118   3.496   2.876 -0.4843 -0.7269  0.0865
11380TIP3    H155631   4.082   3.578   2.908 -2.1027 -1.7617  1.0309
11380TIP3    H255632   4.144   3.515   2.786  0.5851  1.2003  0.7533
11381TIP3   OH255633   0.778   3.536   5.116 -0.5737 -0.5780  0.5532
11381TIP3    H155634   0.700   3.580   5.149 -0.1417  0.2581  0.4788
11381TIP3    H255635   0.851   3.583   5.155 -0.1022 -2.0904  1.5707
11382TIP3   OH255636   6.069   2.900   1.318  0.4624 -0.2419  0.3427
11382TIP3    H155637   6.026   2.826   1.275  0.1400  0.7387 -1.0840
11382TIP3    H255638   6.010   2.925   1.388  0.7279 -1.5197  1.0635
11383TIP3   OH255639   5.711   0.723  13.870  0.0024 -0.1539  0.3164
11383TIP3    H155640   5.767   0.799  13.889 -0.6229  0.1775  0.8794
11383TIP3    H255641   5.631   0.760  13.834 -0.4678 -0.5149  0.9744
11384TIP3   OH255642   2.235   5.963   2.490 -0.3043  0.3010  0.3966
11384TIP3    H155643   2.153   5.941   2.446 -0.1862  0.8613 -0.1032
11384TIP3    H255644   2.278   6.026   2.433  0.9168 -0.6731  0.1872
11385TIP3   OH255645   3.815   0.249  16.488  0.6575  0.2027  0.3072
11385TIP3    H155646   3.801   0.342  16.473 -1.9709 -0.2083 -0.2728
11385TIP3    H255647   3.796   0.236  16.582 -0.5960  0.0353  0.0460
11386TIP3   OH255648   5.286   6.333  13.956  0.1963 -0.1521 -0.2321
11386TIP3    H155649   5.344   6.295  13.889 -1.0746  1.1677 -2.1858
11386TIP3    H255650   5.222   6.265  13.974  0.2095 -0.3214 -0.8083
11387TIP3   OH255651   3.578   1.015   0.803  0.0071  0.0500 -0.4668
11387TIP3    H155652   3.535   0.993   0.720 -1.4674 -0.7231  0.4689
11387TIP3    H255653   3.546   1.104   0.823 -0.2631 -0.0690 -0.3553
11388TIP3   OH255654   0.795   0.735  13.953  0.6349 -0.0558  0.1393
11388TIP3    H155655   0.744   0.787  13.890  0.2091  0.8325  1.1837
11388TIP3    H255656   0.840   0.670  13.899 -0.7454 -0.1626 -0.9446
11389TIP3   OH255657   0.816   3.474   1.880  0.0879 -0.5857  0.6160
11389TIP3    H155658   0.752   3.508   1.817  0.8906 -0.3125 -0.0669
11389TIP3    H255659   0.772   3.482   1.965 -0.8252 -0.5027  0.1516
11390TIP3   OH255660   2.756   4.843   5.847  0.3560  0.1306 -0.2497
11390TIP3    H155661   2.728   4.770   5.902 -0.7492  0.1890 -0.7156
11390TIP3    H255662   2.791   4.802   5.768  0.0202  0.0977 -0.3809
11391TIP3   OH255663   5.305   3.828  13.180 -0.3196 -0.3408 -0.1191
11391TIP3    H155664   5.362   3.885  13.232 -0.3362 -0.6477  0.2422
11391TIP3    H255665   5.361   3.798  13.108  0.1957 -1.1822  0.6044
11392TIP3   OH255666   4.954   5.775  10.966 -0.5287  0.0016  0.7253
11392TIP3    H155667   4.901   5.705  10.927  0.1735 -1.0774  1.6476
11392TIP3    H255668   4.899   5.853  10.960 -1.7458 -0.8386  0.6009
11393TIP3   OH255669   2.293   1.573   2.773  0.3202  0.0826  0.4248
11393TIP3    H155670   2.212   1.599   2.730  0.3646 -1.5706 -0.7494
11393TIP3    H255671   2.281   1.480   2.793  1.8264 -0.1326  0.4496
11394TIP3   OH255672   1.242   1.384  13.693 -0.2671 -0.4284  0.2645
11394TIP3    H155673   1.266   1.470  13.656 -0.4605 -0.4697  0.0398
11394TIP3    H255674   1.256   1.393  13.787  1.7043 -0.7753  0.0645
11395TIP3   OH255675   1.257   3.610   5.532 -0.3129 -0.0485 -0.0623
11395TIP3    H155676   1.196   3.554   5.579 -0.9484  0.5454 -0.1768
11395TIP3    H255677   1.329   3.625   5.594 -1.5195  1.3968  1.0409
11396TIP3   OH255678   2.534   0.560  15.091  0.0288 -0.4800 -0.2473
11396TIP3    H155679   2.538   0.486  15.030 -0.1492 -0.6207 -0.0911
11396TIP3    H255680   2.571   0.633  15.043 -0.9009 -0.3806 -0.8473
11397TIP3   OH255681   5.150   3.278   2.728  0.4338  0.1735 -0.1738
11397TIP3    H155682   5.220   3.264   2.791  0.6756 -0.3138 -0.5420
11397TIP3    H255683   5.107   3.359   2.756  2.1752  1.4169 -0.8985
11398TIP3   OH255684   0.997   2.921  16.831  0.0886 -0.1143  0.1958
11398TIP3    H155685   0.990   2.955  16.920  0.5607 -2.8190  1.3715
11398TIP3    H255686   0.907   2.912  16.802 -0.0565  1.3422  0.1404
11399TIP3   OH255687   4.309   0.324   5.444 -0.5715 -0.2569  0.0479
11399TIP3    H155688   4.325   0.418   5.444 -0.3442 -0.2603  1.9087
11399TIP3    H255689   4.388   0.286   5.407 -0.1085  0.2142  0.5482
11400TIP3   OH255690   0.633   5.398   2.649 -0.7225 -0.3233  0.1693
11400TIP3    H155691   0.700   5.467   2.657 -0.5155 -0.4182 -0.7198
11400TIP3    H255692   0.579   5.425   2.575 -1.2564 -0.6101  0.4451
11401TIP3   OH255693   5.772   6.462   4.378 -0.2549 -0.0588  0.1559
11401TIP3    H155694   5.775   6.403   4.454  0.4341  0.2660  0.3842
11401TIP3    H255695   5.755   6.548   4.415 -2.3087 -0.2301 -0.2580
11402TIP3   OH255696   5.201   5.071  12.705  0.3796  0.2661  0.1712
11402TIP3    H155697   5.181   5.093  12.614 -0.5620 -0.1958  0.2486
11402TIP3    H255698   5.160   4.985  12.718  1.6348 -0.2866  0.6524
11403TIP3   OH255699   5.238   6.591  13.900  0.4015  0.0119  0.4238
11403TIP3    H155700   5.308   6.596  13.835 -0.6265  0.3500 -0.6978
11403TIP3    H255701   5.245   6.502  13.935  0.5465 -0.4206 -0.6536
11404TIP3   OH255702   5.326   3.578  10.912 -0.5350 -0.2851  0.1435
11404TIP3    H155703   5.324   3.659  10.861  0.0542 -0.8365 -0.7793
11404TIP3    H255704   5.278   3.515  10.859 -0.1883 -0.7897  0.4199
11405TIP3   OH255705   2.327   0.833  15.467 -0.1351  0.1207 -0.3963
11405TIP3    H155706   2.388   0.762  15.488 -0.9530 -0.3740  0.4424
11405TIP3    H255707   2.293   0.811  15.381 -0.5156 -0.6270 -0.0692
11406TIP3   OH255708   6.082   2.152  11.095  0.5583 -0.7732 -0.5307
11406TIP3    H155709   6.059   2.067  11.058 -0.6087 -0.1553 -1.2845
11406TIP3    H255710   6.081   2.138  11.190 -0.7836 -1.3267 -0.6090
11407TIP3   OH255711   2.274   2.758  10.555  0.1082 -0.0758 -0.3828
11407TIP3    H155712   2.191   2.799  10.530 -0.1566 -0.9749 -1.0036
11407TIP3    H255713   2.284   2.684  10.496  1.1466 -0.2410 -0.0271
11408TIP3   OH255714   5.371   1.533   5.426  0.0093 -0.7359  0.2269
11408TIP3    H155715   5.340   1.542   5.516  0.6997  1.9619  0.2890
11408TIP3    H255716   5.296   1.560   5.372  1.0820  2.7620  0.2711
11409TIP3   OH255717   5.699   2.613  13.969 -0.5020 -0.0003  0.6518
11409TIP3    H155718   5.613   2.591  14.004 -1.7396  2.4255 -0.6364
11409TIP3    H255719   5.687   2.615  13.874  0.4672  2.1087  0.5162
11410TIP3   OH255720   5.224   5.554  11.618 -0.4185  0.4096 -0.2075
11410TIP3    H155721   5.243   5.535  11.526 -0.1037 -2.1706  0.3187
11410TIP3    H255722   5.149   5.499  11.639 -1.0468  1.6144  0.9005
11411TIP3   OH255723   0.874   3.976   4.385  0.2861 -0.7568 -0.0575
11411TIP3    H155724   0.882   4.053   4.442 -2.7423  0.2562 -0.8225
11411TIP3    H255725   0.894   4.008   4.297 -1.0091 -0.7807 -0.3860
11412TIP3   OH255726   0.926   4.041  14.218 -0.3753  0.0116  0.2130
11412TIP3    H155727   0.833   4.048  14.240 -0.2927 -1.5382  1.2157
11412TIP3    H255728   0.947   3.949  14.232  1.9008  0.7674  2.4339
11413TIP3   OH255729   6.113   0.264   4.745  0.1888 -0.4846 -0.0301
11413TIP3    H155730   6.059   0.322   4.799 -0.3439 -1.8646  0.9740
11413TIP3    H255731   6.149   0.200   4.806  0.2832 -1.5755 -1.1834
11414TIP3   OH255732   2.097   5.141   3.608  0.0193  0.2348  0.6151
11414TIP3    H155733   2.013   5.159   3.651 -0.7194 -2.7932  0.6995
11414TIP3    H255734   2.073   5.123   3.517  1.1919  3.4340 -0.4650
11415TIP3   OH255735   6.532   6.536  12.820 -0.2783  0.7029  0.0932
11415TIP3    H155736   6.445   6.500  12.803  0.2772 -0.1774 -1.0404
11415TIP3    H255737   6.553   6.586  12.741  1.0796 -0.8580 -0.5981
11416TIP3   OH255738   4.203   4.412   3.376 -0.4609  0.0133  0.8856
11416TIP3    H155739   4.128   4.353   3.374  1.2079 -2.2446  0.8671
11416TIP3    H255740   4.165   4.499   3.386 -3.2120 -0.6761 -2.1080
11417TIP3   OH255741   5.812   1.613  17.132 -0.3964  0.2191  0.2325
11417TIP3    H155742   5.834   1.531  17.175 -0.4902  0.6799  1.1943
11417TIP3    H255743   5.896   1.647  17.101 -0.2623  0.1162  0.4821
11418TIP3   OH255744   3.145   6.235  17.007  0.6510  0.2381 -0.9095
11418TIP3    H155745   3.132   6.145  17.034  0.9228  0.0527 -1.3867
11418TIP3    H255746   3.066   6.281  17.036 -1.1413 -0.8485 -3.6713
11419TIP3   OH255747   4.001   3.334  14.557 -0.3951  0.0037  0.4799
11419TIP3    H155748   4.027   3.352  14.647  2.3488  0.2715 -0.2752
11419TIP3    H255749   3.952   3.412  14.530  2.6778  2.1028  0.4185
11420TIP3   OH255750   6.125   2.789  14.010 -0.3479  0.1902  0.5509
11420TIP3    H155751   6.146   2.873  13.970  1.4185 -1.0935 -1.4373
11420TIP3    H255752   6.113   2.729  13.936  0.1978 -1.6922  1.9063
11421TIP3   OH255753   2.275   1.860   5.098  0.3433  0.2185 -0.2160
11421TIP3    H155754   2.320   1.893   5.177 -0.1613  1.8705 -0.5683
11421TIP3    H255755   2.300   1.922   5.029 -1.9099  0.8199 -0.5707
11422TIP3   OH255756   1.686   0.306  11.553  0.6765  0.1388 -0.1198
11422TIP3    H155757   1.731   0.342  11.629  0.5615  0.9864 -0.4506
11422TIP3    H255758   1.594   0.329  11.567  0.4276 -0.9637  0.1936
11423TIP3   OH255759   5.490   6.275   5.803  0.3634 -0.7123  0.1254
11423TIP3    H155760   5.541   6.341   5.851 -0.0283 -0.3860  0.1028
11423TIP3    H255761   5.425   6.327   5.755 -0.2748 -1.1601  0.5042
11424TIP3   OH255762   0.102   4.248   3.561  1.0149  0.0306 -0.2167
11424TIP3    H155763   0.167   4.236   3.631  0.6967  0.4602  0.1584
11424TIP3    H255764   0.147   4.219   3.481  2.5315  2.4896 -0.3657
11425TIP3   OH255765   1.631   4.631   2.181  0.2308  0.2576  0.1448
11425TIP3    H155766   1.545   4.671   2.166  0.0472 -0.6995 -1.4991
11425TIP3    H255767   1.692   4.690   2.136  0.6482  1.6130  2.3287
11426TIP3   OH255768   1.591   5.117  17.301  0.0069 -0.1425  0.4258
11426TIP3    H155769   1.684   5.125  17.282 -0.5979  0.8818 -2.7631
11426TIP3    H255770   1.557   5.206  17.298 -1.1989 -0.5598  0.8042
11427TIP3   OH255771   0.768   3.582  12.881 -0.0153 -0.7463  0.1298
11427TIP3    H155772   0.709   3.648  12.918 -1.1586 -1.6086 -0.1185
11427TIP3    H255773   0.713   3.529  12.823  1.2470 -0.8931 -0.9809
11428TIP3   OH255774   1.005   0.910   3.940 -0.5906 -0.3387  0.2475
11428TIP3    H155775   0.939   0.925   4.007  1.0477 -0.1853  1.9260
11428TIP3    H255776   1.013   0.994   3.896 -0.9800 -0.1433  0.5407
11429TIP3   OH255777   6.114   0.979   0.660 -0.2638  0.0314 -0.3289
11429TIP3    H155778   6.094   0.889   0.685 -1.2913  0.8861  2.2580
11429TIP3    H255779   6.183   0.971   0.595 -0.1991 -2.6130 -0.0382
11430TIP3   OH255780   4.952   0.578   0.980  0.1514 -0.3241  0.2676
11430TIP3    H155781   4.942   0.525   0.901  0.6545  0.5882 -0.4231
11430TIP3    H255782   4.933   0.667   0.952  2.1392  0.2992  0.7391
11431TIP3   OH255783   1.741   1.089   4.148 -0.4707  0.1094  0.4174
11431TIP3    H155784   1.737   1.180   4.180  0.3756  0.4694 -0.4516
11431TIP3    H255785   1.783   1.041   4.219 -2.0321  0.1157  1.4154
11432TIP3   OH255786   4.337   1.650   4.905  0.3663 -0.0896  0.4527
11432TIP3    H155787   4.289   1.580   4.950  1.3486 -0.3032  1.2037
11432TIP3    H255788   4.375   1.608   4.829 -0.7200  0.1095 -0.2179
11433TIP3   OH255789   5.058   6.557  13.323 -0.2134 -0.3395 -0.2463
11433TIP3    H155790   5.057   6.466  13.295  0.5276 -0.8115  1.1267
11433TIP3    H255791   5.140   6.565  13.372  0.8491  1.6628 -2.1800
11434TIP3   OH255792   5.217   6.669  12.107 -0.4451  0.0303 -0.0145
11434TIP3    H155793   5.240   6.687  12.198  0.8701 -0.8870 -0.1418
11434TIP3    H255794   5.300   6.651  12.064 -1.2133 -1.4769 -0.9450
11435TIP3   OH255795   4.689   6.277  12.608  0.5781 -0.1620  0.9826
11435TIP3    H155796   4.770   6.272  12.659  1.0198 -0.5268  0.2571
11435TIP3    H255797   4.717   6.289  12.518 -0.1503 -0.7917  0.6525
11436TIP3   OH255798   4.241   1.762   1.646  0.1116  0.1499  0.2479
11436TIP3    H155799   4.301   1.688   1.647 -1.5553 -1.2870  2.3970
11436TIP3    H255800   4.179   1.744   1.717 -2.8238  1.5964 -1.7662
11437TIP3   OH255801   5.813   4.978   3.966  0.1863  0.0630 -0.1559
11437TIP3    H155802   5.744   5.037   3.997 -0.7743 -0.0403 -1.9576
11437TIP3    H255803   5.793   4.893   4.005  0.3058  0.4076  0.6842
11438TIP3   OH255804   4.341   3.960  16.627  0.0717 -0.1505 -0.3974
11438TIP3    H155805   4.255   4.001  16.613  0.4314  0.8702  0.3079
11438TIP3    H255806   4.329   3.905  16.704  0.7445  2.2176  1.5172
11439TIP3   OH255807   3.564   0.873   2.581  0.6429 -0.6979  0.6914
11439TIP3    H155808   3.643   0.830   2.614 -0.0024 -1.6646  1.0040
11439TIP3    H255809   3.533   0.926   2.655  1.1101 -0.1357  0.4948
11440TIP3   OH255810   0.064   5.477   3.496 -0.4056  0.1786  0.1765
11440TIP3    H155811   0.039   5.385   3.508  0.4222 -0.0219  0.4481
11440TIP3    H255812  -0.019   5.525   3.500 -0.7791 -0.4893  0.6867
11441TIP3   OH255813   0.354   3.885   4.327  0.1171  0.0243 -0.6062
11441TIP3    H155814   0.302   3.931   4.392 -0.4677 -0.2221 -0.8896
11441TIP3    H255815   0.436   3.865   4.371 -1.0956 -2.1212  0.8254
11442TIP3   OH255816   3.314   1.349  17.088  0.0256 -0.2564  0.2180
11442TIP3    H155817   3.286   1.279  17.029 -0.5425  0.7267 -0.7006
11442TIP3    H255818   3.240   1.410  17.090  1.4274  1.5505 -0.9289
11443TIP3   OH255819   6.311   4.325  13.339  0.4339 -0.1609 -0.0244
11443TIP3    H155820   6.318   4.237  13.302  0.8532 -0.2445  0.2510
11443TIP3    H255821   6.243   4.367  13.287  0.6851 -0.4323 -0.5848
11444TIP3   OH255822   0.720   5.661   0.153  0.2013  0.3028  0.2525
11444TIP3    H155823   0.721   5.577   0.107 -0.1032 -0.3354  1.3704
11444TIP3    H255824   0.805   5.700   0.133 -0.0732  0.2342 -1.1589
11445TIP3   OH255825   3.523   0.956   4.360  0.6090 -0.2582  0.6243
11445TIP3    H155826   3.458   0.914   4.416 -0.2197 -1.1044 -0.9033
11445TIP3    H255827   3.557   0.886   4.305  1.8294  0.4383  0.4473
11446TIP3   OH255828   2.641   3.459   3.896  0.4442 -0.0600  0.3504
11446TIP3    H155829   2.716   3.407   3.864 -0.7454 -1.5783 -0.0737
11446TIP3    H255830   2.673   3.549   3.894  2.0523 -0.5965 -0.4596
11447TIP3   OH255831   4.604   0.587   5.181  0.8923 -0.0851 -0.3522
11447TIP3    H155832   4.529   0.529   5.191 -0.5724  1.9367  1.1195
11447TIP3    H255833   4.586   0.637   5.102  1.4398 -0.5994 -0.8128
11448TIP3   OH255834   4.925   5.584  13.412  0.5420 -0.3199 -0.0224
11448TIP3    H155835   4.927   5.604  13.319  0.6102 -0.0008  0.0463
11448TIP3    H255836   4.867   5.649  13.450  0.2010 -0.6910  0.1018
11449TIP3   OH255837   1.329   6.010   6.141  0.0087  0.0896 -0.8572
11449TIP3    H155838   1.310   6.079   6.205 -0.2891  0.1902 -1.0484
11449TIP3    H255839   1.418   5.982   6.161 -0.0363  0.2088 -0.4814
11450TIP3   OH255840   5.855   3.616   5.438  0.5641  0.0223 -0.9989
11450TIP3    H155841   5.842   3.543   5.378  0.1736 -0.3124 -0.5135
11450TIP3    H255842   5.860   3.693   5.381 -0.5829 -0.1902 -1.4245
11451TIP3   OH255843   5.625   0.921   3.742  0.4832 -0.3742 -0.0182
11451TIP3    H155844   5.558   0.877   3.794 -0.2258 -0.1558 -0.7178
11451TIP3    H255845   5.660   0.989   3.800 -0.1672 -0.2512  0.2335
11452TIP3   OH255846   3.963   2.441   5.693  0.5560  0.3416 -0.2375
11452TIP3    H155847   4.043   2.400   5.725  1.1097  1.4236 -0.2105
11452TIP3    H255848   3.943   2.510   5.756  0.4242  1.0412 -1.0288
11453TIP3   OH255849   1.683   4.334  13.122 -0.4556  0.4067  0.4278
11453TIP3    H155850   1.689   4.305  13.031  1.4821 -2.0906  1.2272
11453TIP3    H255851   1.717   4.424  13.121 -0.7938  0.5525 -1.3318
11454TIP3   OH255852   3.028   0.562   0.804 -0.0319  0.1028  0.7718
11454TIP3    H155853   2.969   0.580   0.877 -1.0342 -1.2194  0.3317
11454TIP3    H255854   3.115   0.564   0.843 -0.6126 -2.0761  2.3781
11455TIP3   OH255855   0.137   0.927  16.100 -0.4139 -0.1105 -0.5796
11455TIP3    H155856   0.048   0.896  16.119  0.1202 -0.7457  1.0499
11455TIP3    H255857   0.130   0.969  16.014 -2.3997  0.3096 -0.2605
11456TIP3   OH255858   2.363   0.872   4.141  0.6664 -0.0772 -0.8818
11456TIP3    H155859   2.361   0.900   4.050  0.0248  2.2084 -0.2483
11456TIP3    H255860   2.271   0.871   4.168  0.9387  1.1382  0.2081
11457TIP3   OH255861   0.842   1.536  17.051 -0.0929 -0.2004  0.4071
11457TIP3    H155862   0.936   1.548  17.043 -0.2145  1.8543  1.6551
11457TIP3    H255863   0.808   1.553  16.963  0.6882 -1.3328 -0.1421
11458TIP3   OH255864   6.474   0.532   2.929  0.0056  0.2736  0.7724
11458TIP3    H155865   6.443   0.443   2.946  1.8960 -0.7618 -0.7653
11458TIP3    H255866   6.395   0.586   2.929 -1.2579 -1.4931  1.1759
11459TIP3   OH255867   3.917   3.400  12.033  0.8872  0.2689 -0.6970
11459TIP3    H155868   3.913   3.495  12.018 -0.8396  0.1652 -1.0819
11459TIP3    H255869   3.979   3.368  11.968  1.4530  1.1223 -0.5921
11460TIP3   OH255870   6.360   3.957  16.759 -0.3242  0.4435 -0.0240
11460TIP3    H155871   6.351   4.038  16.707 -1.4346  0.4376  0.1374
11460TIP3    H255872   6.353   3.887  16.694 -1.1899  0.4477  0.0529
11461TIP3   OH255873   2.332   0.822  13.677  0.0663  0.0895  0.3219
11461TIP3    H155874   2.242   0.849  13.661 -0.0767 -0.3983  0.3058
11461TIP3    H255875   2.380   0.905  13.688  0.3768  0.6176 -3.5396
11462TIP3   OH255876   2.105   1.564   1.763 -0.1460 -0.0486 -0.2733
11462TIP3    H155877   2.090   1.518   1.845 -0.8678  0.3762 -0.1614
11462TIP3    H255878   2.018   1.577   1.726 -0.0226  1.6659 -0.0623
11463TIP3   OH255879   4.003   3.748  15.393  0.3275 -0.5530  0.0742
11463TIP3    H155880   3.964   3.835  15.397 -0.1145 -0.7522  0.1241
11463TIP3    H255881   4.065   3.746  15.466  0.6425 -0.1374 -0.1769
11464TIP3   OH255882   6.469   6.536   0.249  0.2906  0.0957  0.4307
11464TIP3    H155883   6.525   6.488   0.310  0.3908  0.5276  0.6852
11464TIP3    H255884   6.394   6.479   0.235  0.6638 -0.3687  0.3025
11465TIP3   OH255885   0.827   3.341  10.888 -0.0986 -0.2414  0.5035
11465TIP3    H155886   0.879   3.418  10.912 -0.4317  0.4918 -1.0585
11465TIP3    H255887   0.886   3.267  10.903  0.2172  0.2767  2.0518
11466TIP3   OH255888   5.243   4.095  10.832 -0.4769 -0.4583  0.4368
11466TIP3    H155889   5.220   4.011  10.793 -1.0722 -0.9161  1.7334
11466TIP3    H255890   5.294   4.139  10.764 -1.6669 -1.1150 -0.9550
11467TIP3   OH255891   6.375   0.175   4.382  0.0485 -0.0682  0.1808
11467TIP3    H155892   6.370   0.266   4.351  0.1262 -0.3446 -0.6712
11467TIP3    H255893   6.285   0.154   4.408 -0.1191  0.0324 -0.2972
11468TIP3   OH255894   3.143   4.235  16.733  0.8336  0.0228 -0.3826
11468TIP3    H155895   3.231   4.211  16.763  2.2129  1.4036 -2.9206
11468TIP3    H255896   3.104   4.280  16.808  2.0348 -1.1426  1.0126
11469TIP3   OH255897   3.237   1.803  11.897  0.0906  0.2917  0.2771
11469TIP3    H155898   3.203   1.870  11.838 -1.1984  0.2080  0.8961
11469TIP3    H255899   3.308   1.847  11.945  0.7121  0.5467 -0.8332
11470TIP3   OH255900   1.136   1.633  12.204  0.2745 -0.8328  0.1967
11470TIP3    H155901   1.186   1.709  12.234  1.0333 -1.8440  1.6235
11470TIP3    H255902   1.152   1.629  12.110 -2.4607  2.6826 -0.6506
11471TIP3   OH255903   2.412   2.565  12.658  0.2865 -0.3416 -0.1471
11471TIP3    H155904   2.388   2.658  12.660 -0.9949 -0.6642  0.8010
11471TIP3    H255905   2.338   2.523  12.614  0.6241 -0.9666 -0.1177
11472TIP3   OH255906   6.487   0.309  17.292 -0.1897 -0.3778  0.1066
11472TIP3    H155907   6.466   0.310  17.386  1.1037 -0.0441  0.3993
11472TIP3    H255908   6.505   0.400  17.270  1.6833 -0.7181  0.0568
11473TIP3   OH255909   5.985   1.823  16.895  0.0986  0.4678 -0.2894
11473TIP3    H155910   6.070   1.779  16.886 -0.3382 -0.4291 -0.0571
11473TIP3    H255911   5.997   1.880  16.972  0.5789  0.5681 -0.4327
11474TIP3   OH255912   4.571   2.344  14.518 -0.4254 -0.3005 -0.2274
11474TIP3    H155913   4.628   2.287  14.570  0.1234  2.4323  2.5208
11474TIP3    H255914   4.482   2.318  14.543 -0.1762  0.7523  2.0508
11475TIP3   OH255915   4.281   1.323  13.669 -0.1735  0.2375 -0.3553
11475TIP3    H155916   4.257   1.381  13.741  0.8883  0.3364 -0.0700
11475TIP3    H255917   4.260   1.235  13.701  0.9039  0.2202  0.3505
11476TIP3   OH255918   5.454   2.072   1.950 -0.6765  0.0327 -0.1194
11476TIP3    H155919   5.406   1.998   1.913  1.2418 -0.2315 -2.3739
11476TIP3    H255920   5.522   2.091   1.884  0.7277  1.9121  1.7396
11477TIP3   OH255921   3.238   2.685  11.329  0.6434 -0.1053 -1.0289
11477TIP3    H155922   3.191   2.607  11.358  0.4465  0.6656  0.8930
11477TIP3    H255923   3.293   2.655  11.257  1.0913 -2.1678  0.1126
11478TIP3   OH255924   0.303   0.608   5.155 -0.5167 -0.1719  0.0499
11478TIP3    H155925   0.391   0.582   5.128 -0.6614 -0.8689  0.2304
11478TIP3    H255926   0.278   0.678   5.094  0.4776  0.6070  0.5115
11479TIP3   OH255927   3.819   4.809  16.103  0.1311 -0.6614  0.6913
11479TIP3    H155928   3.905   4.814  16.062 -0.5725 -1.4023 -0.9626
11479TIP3    H255929   3.765   4.760  16.041 -1.6627  0.3323  1.3661
11480TIP3   OH255930   1.568   0.434   2.578  0.3570  0.1555 -0.4414
11480TIP3    H155931   1.601   0.424   2.489  0.3679 -0.5031 -0.3729
11480TIP3    H255932   1.644   0.416   2.634  0.1079 -0.4703 -0.2945
11481TIP3   OH255933   2.900   4.650  12.801  0.4881 -0.3371  0.0487
11481TIP3    H155934   2.985   4.643  12.844 -0.0694 -0.7871  1.1236
11481TIP3    H255935   2.845   4.587  12.846 -0.6261  0.4706 -0.1323
11482TIP3   OH255936   2.572   3.313   1.536 -0.0675 -0.1625  0.4719
11482TIP3    H155937   2.495   3.368   1.521  1.2031  2.0385  1.4967
11482TIP3    H255938   2.629   3.329   1.461 -0.0836 -0.8134  0.3191
11483TIP3   OH255939   6.199   4.087  11.771 -0.1414 -0.2662 -0.3747
11483TIP3    H155940   6.176   4.027  11.842  0.6570 -0.5207 -0.3276
11483TIP3    H255941   6.174   4.041  11.691 -0.4377 -0.2500 -0.2935
11484TIP3   OH255942   4.682   0.330   0.723  0.5739 -0.4477  0.0713
11484TIP3    H155943   4.642   0.389   0.658  0.3205 -1.8643 -1.1034
11484TIP3    H255944   4.614   0.265   0.740 -0.0062  0.7602  3.0567
11485TIP3   OH255945   1.588   3.823   0.991 -0.1341 -0.4149 -0.0770
11485TIP3    H155946   1.619   3.790   1.075  0.2568  0.8628  0.3009
11485TIP3    H255947   1.509   3.772   0.973  0.1937 -1.2206  0.6866
11486TIP3   OH255948   2.180   6.448   1.994 -0.0134 -0.0847  0.0598
11486TIP3    H155949   2.116   6.463   2.064 -0.2782 -1.5812  0.1613
11486TIP3    H255950   2.128   6.454   1.913  0.0171  0.2197  0.0620
11487TIP3   OH255951   5.255   2.542   4.321 -0.4708  0.2526  0.7544
11487TIP3    H155952   5.274   2.524   4.229 -0.5810 -1.2940  1.0113
11487TIP3    H255953   5.160   2.539   4.327 -0.4714  0.5122  0.9018
11488TIP3   OH255954   1.815   0.037   3.459  0.3334  0.2734  0.8012
11488TIP3    H155955   1.744   0.054   3.521  1.8221  1.4312  2.2627
11488TIP3    H255956   1.791   0.088   3.381 -0.6146  0.3331  1.1197
11489TIP3   OH255957   1.448   4.783   1.468  0.1866 -0.6110 -0.2583
11489TIP3    H155958   1.497   4.838   1.530  0.9235  0.0881 -1.4337
11489TIP3    H255959   1.515   4.735   1.421 -0.4056 -1.6414 -0.0723
11490TIP3   OH255960   5.162   5.352   2.611 -0.4227 -0.1144  0.0754
11490TIP3    H155961   5.110   5.276   2.585  1.4420 -1.5020  0.2230
11490TIP3    H255962   5.236   5.353   2.550  0.1494  0.9501  0.7472
11491TIP3   OH255963   1.319   5.071  10.901  0.3432 -0.0374 -0.1450
11491TIP3    H155964   1.333   5.165  10.889 -1.3228  0.0851 -1.5794
11491TIP3    H255965   1.327   5.057  10.996 -2.8140  2.2499  0.6462
11492TIP3   OH255966   0.476   6.106  17.039  0.2752  0.3816 -0.3367
11492TIP3    H155967   0.479   6.011  17.028  1.2483  0.5253 -1.4256
11492TIP3    H255968   0.387   6.130  17.014 -0.4441 -0.3781  1.3254
11493TIP3   OH255969   3.911   1.793   4.278 -0.2365  0.2843 -0.5401
11493TIP3    H155970   3.916   1.796   4.374  0.1501  0.3911 -0.5605
11493TIP3    H255971   3.856   1.869   4.255 -0.3830  0.2218 -0.4015
11494TIP3   OH255972   0.141   1.431   1.830 -0.4419 -0.1579 -0.0011
11494TIP3    H155973   0.210   1.438   1.896 -0.8132 -1.3986  0.5458
11494TIP3    H255974   0.161   1.351   1.781 -2.1250 -1.2550  0.9847
11495TIP3   OH255975   1.905   5.896  12.908 -0.1985 -0.7474  0.0801
11495TIP3    H155976   1.965   5.970  12.896 -0.4207 -0.5727  0.0286
11495TIP3    H255977   1.945   5.843  12.976 -0.9598  0.3964  1.4746
11496TIP3   OH255978   3.321   3.087   0.213  0.1071  0.1369 -0.2754
11496TIP3    H155979   3.391   3.108   0.274  0.1985 -0.3466 -0.2129
11496TIP3    H255980   3.346   3.003   0.174  0.0756  0.4544 -1.0112
11497TIP3   OH255981   3.516   0.081   3.604 -0.3693  0.4763 -0.0992
11497TIP3    H155982   3.509  -0.011   3.630 -0.6916  0.6049  0.2564
11497TIP3    H255983   3.552   0.077   3.515  2.1163  0.0682  0.8202
11498TIP3   OH255984   4.155   1.847   0.252 -0.1964  0.4500 -0.0928
11498TIP3    H155985   4.125   1.837   0.342 -1.2942  0.9821 -0.3758
11498TIP3    H255986   4.183   1.938   0.245 -0.2688  0.4567 -0.3222
11499TIP3   OH255987   5.751   6.763  12.916  0.0139 -0.3405 -0.2134
11499TIP3    H155988   5.795   6.685  12.882 -0.5126 -0.7239 -0.0330
11499TIP3    H255989   5.661   6.755  12.885 -0.2054 -0.1430  0.3591
11500TIP3   OH255990   3.468   3.329  15.688 -0.6103 -0.1641  0.1531
11500TIP3    H155991   3.402   3.329  15.619 -0.2889 -1.3424 -0.1884
11500TIP3    H255992   3.548   3.298  15.644 -0.5168 -1.4049  1.1348
11501TIP3   OH255993   3.455   0.950  10.532 -0.2667 -0.1849  0.1993
11501TIP3    H155994   3.431   1.040  10.510 -0.2350 -0.0058  0.8766
11501TIP3    H255995   3.373   0.902  10.525 -0.8762  0.4249  2.4936
11502TIP3   OH255996   5.375   3.818  16.493  0.2353 -0.2587 -0.2302
11502TIP3    H155997   5.326   3.840  16.572 -2.0972  1.2220 -1.9740
11502TIP3    H255998   5.393   3.724  16.501  0.4412 -0.0808  2.1791
11503TIP3   OH255999   1.365   3.664   0.918 -0.2130 -0.3703  0.0272
11503TIP3    H156000   1.366   3.569   0.906 -1.0540 -0.4719  0.7299
11503TIP3    H256001   1.318   3.678   1.000 -0.9931  0.7069 -0.5797
11504TIP3   OH256002   0.868   4.153   0.625  0.1010  0.3871  0.3027
11504TIP3    H156003   0.871   4.218   0.554  0.9043  1.6329  1.4387
11504TIP3    H256004   0.820   4.196   0.695  0.9237 -0.1167  1.1953
11505TIP3   OH256005   1.186   0.983   5.616  0.6550  0.0615 -0.0765
11505TIP3    H156006   1.125   1.025   5.556  0.4781 -1.0922 -0.7294
11505TIP3    H256007   1.269   0.982   5.570  1.1321  1.3759  0.7008
11506TIP3   OH256008   1.345   3.953  14.335 -0.2810 -0.1038 -0.8532
11506TIP3    H156009   1.440   3.958  14.331 -0.1872 -1.9598 -2.7175
11506TIP3    H256010   1.327   3.875  14.388 -0.7627  0.1694 -0.6126
11507TIP3   OH256011   1.117   4.270  13.070 -0.6327 -0.4027  0.4129
11507TIP3    H156012   1.203   4.295  13.104  0.8623 -2.5100 -1.4928
11507TIP3    H256013   1.096   4.337  13.005 -0.0727 -0.2423  0.3909
11508TIP3   OH256014   3.853   0.920  12.994  0.1363 -0.4561  0.3248
11508TIP3    H156015   3.850   0.860  13.069  0.0433 -1.5830 -0.5571
11508TIP3    H256016   3.764   0.919  12.959  0.2247 -0.0776  0.0814
11509TIP3   OH256017   2.830   0.203   5.573  0.1934 -0.3072 -0.3501
11509TIP3    H156018   2.817   0.185   5.480  0.4424  1.9443 -0.8713
11509TIP3    H256019   2.747   0.180   5.614 -0.6784  0.6798 -1.4884
11510TIP3   OH256020   4.373   0.962   0.390 -0.5760  0.1365 -0.4734
11510TIP3    H156021   4.347   0.888   0.335 -1.2064 -0.3996  0.5247
11510TIP3    H256022   4.386   0.924   0.477  2.4421  0.5670 -0.6116
11511TIP3   OH256023   4.902   4.260  17.242  0.0600  0.4346  0.2512
11511TIP3    H156024   4.909   4.341  17.294  0.5550 -0.1520  1.1100
11511TIP3    H256025   4.827   4.214  17.281  0.3603  0.0470  0.3714
11512TIP3   OH256026   0.792   1.227   6.486 -0.3936 -0.3545  0.4553
11512TIP3    H156027   0.813   1.134   6.488  0.4813 -0.3989 -3.4777
11512TIP3    H256028   0.867   1.268   6.531  0.1205 -1.4266  0.6247
11513TIP3   OH256029   6.686   2.519   4.790 -0.5135  0.4743  0.4623
11513TIP3    H156030   6.699   2.571   4.711  0.4510 -0.8634 -0.2966
11513TIP3    H256031   6.596   2.488   4.784 -0.5382  0.6239  0.0377
11514TIP3   OH256032   0.557   3.078  12.353  0.2737  0.7342  0.9228
11514TIP3    H156033   0.542   3.017  12.426 -1.4403 -0.8623 -0.6846
11514TIP3    H256034   0.644   3.114  12.371  1.1752 -1.8119  2.2350
11515TIP3   OH256035   1.034   6.399   2.961 -0.9324 -0.1381  0.4290
11515TIP3    H156036   1.006   6.331   3.022 -0.6358 -0.2779  0.4066
11515TIP3    H256037   1.120   6.426   2.992 -1.2823  0.6082  0.7574
11516TIP3   OH256038   5.159   1.478  11.677 -0.3133  0.0554  0.0747
11516TIP3    H156039   5.185   1.570  11.682 -3.6625  1.3961 -2.8546
11516TIP3    H256040   5.077   1.473  11.727 -0.5671 -1.1338 -0.4211
11517TIP3   OH256041   3.238   5.407   5.301  0.8792 -0.2514 -0.2083
11517TIP3    H156042   3.164   5.406   5.241  0.7780  0.6094 -0.1142
11517TIP3    H256043   3.218   5.340   5.366 -1.2301  1.8762  1.4844
11518TIP3   OH256044   4.963   1.699   5.671 -0.2450 -0.0205  0.3489
11518TIP3    H156045   5.010   1.776   5.639 -0.6169  0.3646  0.7133
11518TIP3    H256046   4.914   1.731   5.747 -1.8499 -0.1698 -0.5712
11519TIP3   OH256047   5.455   2.055   6.571 -0.0598  0.3065 -0.2970
11519TIP3    H156048   5.475   2.114   6.643  0.3304 -0.9232  0.6189
11519TIP3    H256049   5.423   1.975   6.612  0.6461 -0.6071 -1.4505
11520TIP3   OH256050   0.960   5.326   6.335  0.6026  0.0688 -0.2674
11520TIP3    H156051   1.034   5.358   6.283  1.4358  0.2223  0.9841
11520TIP3    H256052   0.998   5.259   6.392  0.0639  1.0308  1.2868
11521TIP3   OH256053   1.856   3.330   1.725 -0.3006 -0.2612  0.2672
11521TIP3    H156054   1.761   3.333   1.736 -0.3166  0.7943 -0.0317
11521TIP3    H256055   1.868   3.298   1.635 -0.3190 -1.8468  0.7928
11522TIP3   OH256056   0.015   1.257  13.176  1.0389  0.3809  0.3269
11522TIP3    H156057   0.047   1.284  13.091 -1.3775 -1.7201 -1.4215
11522TIP3    H256058   0.092   1.225  13.222  2.5268  2.2666 -0.6871
11523TIP3   OH256059   2.671   6.564  12.421 -0.4585  0.2538 -0.0953
11523TIP3    H156060   2.758   6.524  12.421  0.1243  1.4771 -0.9486
11523TIP3    H256061   2.664   6.605  12.507 -0.6231 -0.7061  0.3675
11524TIP3   OH256062   5.248   1.262  15.875  0.8183  0.7782 -0.1567
11524TIP3    H156063   5.329   1.276  15.925 -0.0354 -0.6279  1.7448
11524TIP3    H256064   5.194   1.338  15.896 -0.0110 -0.3655  2.1904
11525TIP3   OH256065   3.062   4.669  13.792 -0.2632  0.8095  0.4372
11525TIP3    H156066   3.095   4.746  13.840 -0.6890  2.4105 -1.6828
11525TIP3    H256067   2.971   4.691  13.771 -0.1662  0.0852 -0.8655
11526TIP3   OH256068   5.108   3.429  16.552  0.5085 -0.2162 -0.1876
11526TIP3    H156069   5.039   3.367  16.530  0.1861  0.5435 -1.4384
11526TIP3    H256070   5.127   3.474  16.469  2.6698 -0.5654  0.0471
11527TIP3   OH256071   6.706   6.120  11.947  0.4266  0.2466 -0.2464
11527TIP3    H156072   6.726   6.052  12.012  1.4912  1.0271  0.2712
11527TIP3    H256073   6.611   6.112  11.933 -0.0328  0.6589  2.1456
11528TIP3   OH256074   1.836   0.516  17.198  0.3560 -0.3673 -0.0967
11528TIP3    H156075   1.781   0.439  17.186  0.0843 -0.0143 -1.2271
11528TIP3    H256076   1.904   0.508  17.131 -0.2590  0.8577 -0.9158
11529TIP3   OH256077   6.321   3.372   4.410 -0.0822 -0.0839 -0.3585
11529TIP3    H156078   6.241   3.344   4.365  1.3006  1.2775 -3.9841
11529TIP3    H256079   6.324   3.466   4.398  2.4894 -0.2047 -1.0968
11530TIP3   OH256080   2.900   0.893  11.608 -0.3895 -0.8143  0.3219
11530TIP3    H156081   2.965   0.824  11.619  1.2692  0.5824 -0.4083
11530TIP3    H256082   2.918   0.955  11.679 -0.2736  0.0593 -0.4492
11531TIP3   OH256083   6.027   1.131  16.781 -0.3357 -0.4075  0.1757
11531TIP3    H156084   5.978   1.204  16.818  1.1512  0.6502  0.1765
11531TIP3    H256085   6.105   1.124  16.836  0.2392 -1.0611 -0.6906
11532TIP3   OH256086   5.819   1.111  13.550  0.5278  0.0145 -0.4429
11532TIP3    H156087   5.876   1.069  13.485 -0.5006 -2.4598  0.1499
11532TIP3    H256088   5.734   1.068  13.538  0.7441 -2.1060  3.7776
11533TIP3   OH256089   0.525   3.351   0.020  0.0879 -0.5296  0.3739
11533TIP3    H156090   0.552   3.293  -0.050  1.1850 -0.3539  0.6413
11533TIP3    H256091   0.571   3.319   0.098  0.1738  0.2733  0.6637
11534TIP3   OH256092   5.215   2.570   2.942  0.1621  0.0545  0.1209
11534TIP3    H156093   5.301   2.589   2.979  0.5901  0.1716 -0.9123
11534TIP3    H256094   5.217   2.608   2.854 -1.6710  1.8933  0.7804
11535TIP3   OH256095   6.395   1.826   1.451  0.1056  0.6071 -0.6736
11535TIP3    H156096   6.412   1.915   1.482 -0.4640  1.2052 -1.9911
11535TIP3    H256097   6.474   1.803   1.402  0.4146  0.2250 -0.0037
11536TIP3   OH256098   4.920   6.467  13.759  0.3037  0.1928  0.2653
11536TIP3    H156099   4.901   6.464  13.666 -3.1552  3.6146  0.6375
11536TIP3    H256100   4.988   6.534  13.768 -0.2432  0.7489  0.2803
11537TIP3   OH256101   5.920   5.051  15.063 -0.3538 -0.0454  0.3965
11537TIP3    H156102   5.959   5.023  14.981  0.1459  0.2485  0.5320
11537TIP3    H256103   5.883   5.137  15.044  1.0305  0.6803  0.8420
11538TIP3   OH256104   3.670   6.237  13.855 -0.6036  0.2698 -0.2323
11538TIP3    H156105   3.605   6.180  13.897 -1.9970  1.8891 -0.0554
11538TIP3    H256106   3.645   6.238  13.763  0.8611 -1.2214 -0.6811
11539TIP3   OH256107   4.503   0.965   5.178  0.5506 -0.1500 -0.1142
11539TIP3    H156108   4.515   1.060   5.189  1.6693 -0.3997  1.0516
11539TIP3    H256109   4.426   0.945   5.231  0.0212  0.1576 -0.7448
11540TIP3   OH256110   4.820   3.638  17.115  0.4139  0.5260 -0.0505
11540TIP3    H156111   4.827   3.731  17.093 -2.8597  0.8625 -0.0353
11540TIP3    H256112   4.857   3.632  17.203  2.4197  1.3901 -0.7616
11541TIP3   OH256113   5.485   6.313  14.143  0.3478  0.0346 -0.5978
11541TIP3    H156114   5.408   6.341  14.094 -0.1001  1.2972  0.7398
11541TIP3    H256115   5.450   6.281  14.226  1.2771  3.0199  1.1228
11542TIP3   OH256116   4.156   3.764   4.693 -0.3361  0.1050  0.3324
11542TIP3    H156117   4.218   3.795   4.760  0.6520  0.5667 -0.7486
11542TIP3    H256118   4.197   3.789   4.610 -1.3822 -0.7243 -0.4584
11543TIP3   OH256119   0.639   1.042  14.884  0.1320  0.3633  0.1518
11543TIP3    H156120   0.683   1.112  14.837 -2.7203  1.4125 -1.2343
11543TIP3    H256121   0.555   1.031  14.837 -0.2324 -2.8742  1.2961
11544TIP3   OH256122   2.833   6.446  14.295  0.7847  0.1437  0.0487
11544TIP3    H156123   2.860   6.378  14.357 -0.0511 -1.5060 -1.3288
11544TIP3    H256124   2.827   6.401  14.211  1.7859  2.2858 -1.2611
11545TIP3   OH256125   4.360   2.771  11.273 -0.0449 -0.7090  0.0045
11545TIP3    H156126   4.415   2.787  11.197 -0.6077 -1.1963 -0.5195
11545TIP3    H256127   4.385   2.684  11.304 -0.8058 -1.1269 -0.5078
11546TIP3   OH256128   0.354   6.199   1.518  0.5229  0.0255  0.0312
11546TIP3    H156129   0.407   6.275   1.539 -0.1227  1.1114 -2.0606
11546TIP3    H256130   0.403   6.125   1.555  2.2929  1.2094  0.1699
11547TIP3   OH256131   2.424   4.328  11.945  0.2410  0.3937  0.0046
11547TIP3    H156132   2.375   4.400  11.985  1.4646  0.5249  1.3513
11547TIP3    H256133   2.358   4.260  11.929 -0.9057  1.7299 -1.1419
11548TIP3   OH256134   2.343   5.125  13.234 -0.0146 -0.0889 -0.4548
11548TIP3    H156135   2.302   5.102  13.318  0.7036  1.0930  0.2475
11548TIP3    H256136   2.377   5.214  13.247  0.6800 -0.1297 -1.7930
11549TIP3   OH256137   2.191   0.638  12.195 -0.4028 -0.6490 -0.4596
11549TIP3    H156138   2.126   0.571  12.178  0.7783 -2.1499  0.6581
11549TIP3    H256139   2.275   0.591  12.195  0.3756  0.6158  1.3422
11550TIP3   OH256140   1.419   1.722   4.024  0.1930 -0.4289  0.2548
11550TIP3    H156141   1.411   1.817   4.014 -2.5638 -0.6685 -0.7991
11550TIP3    H256142   1.437   1.690   3.935 -2.4486 -1.0548 -0.1488
11551TIP3   OH256143   0.624   3.813  14.107 -0.7943 -0.9980 -0.0945
11551TIP3    H156144   0.717   3.832  14.113 -1.1140  1.3893 -1.3407
11551TIP3    H256145   0.584   3.868  14.174 -1.4797 -0.1939 -1.1402
11552TIP3   OH256146   4.997   2.980  15.993 -0.0486  0.3912 -0.4762
11552TIP3    H156147   5.092   2.984  15.977  0.4845  0.5660  2.2005
11552TIP3    H256148   4.984   2.895  16.035 -1.4015 -0.3733 -2.3382
11553TIP3   OH256149   5.053   6.718  13.079 -0.9059  0.1040 -0.0203
11553TIP3    H156150   5.040   6.668  13.159  0.0029 -0.2052 -0.0520
11553TIP3    H256151   5.037   6.656  13.008  0.8467 -0.3552 -0.0608
11554TIP3   OH256152   1.790   3.731   5.652  0.5588  0.0282  0.3725
11554TIP3    H156153   1.787   3.827   5.657  0.6957  0.0237  0.5642
11554TIP3    H256154   1.699   3.704   5.657  0.6081  0.0757  1.9110
11555TIP3   OH256155   6.731   2.015  13.668 -0.3398  0.1252 -0.7329
11555TIP3    H156156   6.718   1.934  13.716 -0.5055  0.6135  0.0804
11555TIP3    H256157   6.766   1.989  13.584 -1.3626 -0.8638 -0.8742
11556TIP3   OH256158   5.477   6.550   5.156  0.1455  0.1354 -0.0271
11556TIP3    H156159   5.504   6.635   5.121 -0.7936  0.3557 -0.2604
11556TIP3    H256160   5.462   6.496   5.079  2.0644 -0.6957  0.1464
11557TIP3   OH256161   6.172   4.866  13.202  0.0834 -0.4225  0.3958
11557TIP3    H156162   6.158   4.957  13.228 -1.1973 -1.0994  2.3190
11557TIP3    H256163   6.114   4.853  13.127  0.6567  0.4657 -0.2120
11558TIP3   OH256164   2.012   0.471   1.407  0.4407 -0.2990  0.2882
11558TIP3    H156165   2.049   0.424   1.482  0.8970  0.3345  0.4687
11558TIP3    H256166   2.085   0.480   1.346  0.5465  0.7626  0.5486
11559TIP3   OH256167   2.576   5.248   2.554 -0.2159 -0.2128 -0.5506
11559TIP3    H156168   2.658   5.293   2.534  0.5477 -1.6899 -0.9726
11559TIP3    H256169   2.597   5.192   2.629 -1.0868  0.0069 -0.1253
11560TIP3   OH256170   0.033   0.868   4.588  0.0584  0.1162  0.0955
11560TIP3    H156171   0.101   0.931   4.561 -0.1700  0.3394  0.0425
11560TIP3    H256172   0.076   0.815   4.655  0.5998 -0.3800 -0.6302
11561TIP3   OH256173   6.052   0.305  14.703 -0.2059  1.2597  0.0750
11561TIP3    H156174   6.026   0.347  14.622 -1.8488 -1.0183 -0.7008
11561TIP3    H256175   5.975   0.255  14.730  1.3975 -0.8389  1.1341
11562TIP3   OH256176   2.983   4.977  12.668  0.3453 -0.4188 -0.1751
11562TIP3    H156177   2.923   4.918  12.714  0.3590 -1.6687 -1.6866
11562TIP3    H256178   2.926   5.030  12.613  0.4175  0.3562  0.4797
11563TIP3   OH256179   1.083   3.221   4.479  0.2663 -0.0505 -0.5604
11563TIP3    H156180   1.107   3.183   4.564  3.0638 -0.6542 -1.5385
11563TIP3    H256181   1.108   3.313   4.486  1.3296 -0.2994 -1.0139
11564TIP3   OH256182   1.195   1.557   0.677  0.2350 -0.1266  0.0686
11564TIP3    H156183   1.206   1.510   0.594  1.3622 -0.2628  0.2791
11564TIP3    H256184   1.204   1.649   0.653  1.2589 -0.1996  0.1278
11565TIP3   OH256185   1.089   6.039  15.501  0.2849  0.4240  0.6286
11565TIP3    H156186   1.087   5.974  15.571 -0.5228 -0.5962 -0.3073
11565TIP3    H256187   1.020   6.012  15.441  2.5076 -0.1931 -1.8367
11566TIP3   OH256188   3.868   6.422  12.989 -0.2997  0.1269  0.4515
11566TIP3    H156189   3.808   6.404  13.061 -0.3857  0.9830  0.6086
11566TIP3    H256190   3.849   6.513  12.964  2.8479  1.5022  2.4277
11567TIP3   OH256191   2.032   6.077   1.054  0.0949  0.6011 -0.1003
11567TIP3    H156192   1.945   6.101   1.087  0.7644  0.9654  1.5245
11567TIP3    H256193   2.036   5.982   1.068  0.2724  0.7136  0.6500
11568TIP3   OH256194   4.667   1.825   0.606  0.5929 -0.4268  0.5913
11568TIP3    H156195   4.622   1.744   0.583  0.8396 -0.5767  0.6350
11568TIP3    H256196   4.749   1.796   0.647  0.7175 -0.1561  0.5338
11569TIP3   OH256197   6.637   5.464  17.177 -0.1092 -0.0698  0.3656
11569TIP3    H156198   6.684   5.469  17.094 -0.7285 -0.9433 -0.0612
11569TIP3    H256199   6.602   5.552  17.190  1.8576  0.6727  0.8457
11570TIP3   OH256200   5.252   6.210   2.076  0.0176 -0.5089  0.0423
11570TIP3    H156201   5.261   6.279   2.142 -1.6347  0.3032 -0.5343
11570TIP3    H256202   5.286   6.248   1.996 -0.9539 -0.3213 -0.2927
11571TIP3   OH256203   0.927   0.656  12.947  0.0444 -0.7271  0.1680
11571TIP3    H156204   0.995   0.723  12.934  1.2279 -1.7671  0.8331
11571TIP3    H256205   0.915   0.618  12.860 -0.3460  0.0448 -0.1344
11572TIP3   OH256206   6.407   5.244  12.983  0.7114  0.4225  0.1958
11572TIP3    H156207   6.330   5.193  12.959  0.7156  0.3970  0.2356
11572TIP3    H256208   6.428   5.214  13.072  0.8029  0.3854  0.1622
11573TIP3   OH256209   3.151   1.014   4.111 -0.4268 -0.0590  0.0099
11573TIP3    H156210   3.204   1.007   4.032  0.0993  0.8060  0.2732
11573TIP3    H256211   3.072   1.061   4.084 -0.6339 -0.5072 -0.1752
11574TIP3   OH256212   6.039   3.304  14.696 -0.4715 -0.4235  0.3918
11574TIP3    H156213   6.070   3.392  14.672 -1.4830 -0.3774 -0.8506
11574TIP3    H256214   5.957   3.320  14.743 -1.0906 -0.7111 -0.5602
11575TIP3   OH256215   4.343   0.210  16.266 -0.3177  0.0856  0.0654
11575TIP3    H156216   4.389   0.293  16.277  0.0896 -0.2063  0.6354
11575TIP3    H256217   4.390   0.165  16.195  0.6970 -0.4820  1.0724
11576TIP3   OH256218   5.918   2.836   0.419 -0.5335  0.0447  0.0613
11576TIP3    H156219   5.898   2.906   0.481 -0.9221 -0.0234  0.0137
11576TIP3    H256220   5.956   2.767   0.473 -3.4443 -1.1632  0.7121
11577TIP3   OH256221   2.849   3.784   1.598  0.0989 -0.5732  0.0785
11577TIP3    H156222   2.852   3.829   1.513  2.1932 -1.8187 -0.5942
11577TIP3    H256223   2.758   3.756   1.608 -0.2602 -0.1073 -1.5975
11578TIP3   OH256224   6.426   3.868  10.995  0.0711  0.7307 -0.5134
11578TIP3    H156225   6.519   3.862  10.973  0.3035  2.6487 -0.2159
11578TIP3    H256226   6.417   3.819  11.076  0.9353  0.9534 -0.2741
11579TIP3   OH256227   5.794   0.873  16.866  0.0504  0.1235  0.0037
11579TIP3    H156228   5.839   0.947  16.827 -0.6510  0.3286 -0.4376
11579TIP3    H256229   5.706   0.875  16.828 -1.0142  0.9256  2.2877
11580TIP3   OH256230   2.673   2.290   2.907 -0.2398 -0.0372  0.3467
11580TIP3    H156231   2.725   2.210   2.905 -1.0443 -0.6263  1.4914
11580TIP3    H256232   2.583   2.259   2.923 -0.5233  1.0987  1.0806
11581TIP3   OH256233   1.471   2.862   4.311 -0.4492  0.4280  0.5258
11581TIP3    H156234   1.449   2.917   4.235  1.0271  1.3555  0.7370
11581TIP3    H256235   1.516   2.786   4.273  0.0428  0.7566  0.4484
11582TIP3   OH256236   1.746   2.792  16.471 -1.0595  0.3163  0.2018
11582TIP3    H156237   1.828   2.808  16.424 -2.1153  0.8747 -1.5092
11582TIP3    H256238   1.771   2.796  16.564  1.0040 -0.4332 -0.2763
11583TIP3   OH256239   6.356   6.581  13.838  0.2340 -0.1582 -0.2600
11583TIP3    H156240   6.335   6.653  13.777 -1.3375 -0.3497 -0.0013
11583TIP3    H256241   6.299   6.597  13.913 -0.0345 -1.5782 -0.1396
11584TIP3   OH256242   4.462   4.857  15.527 -0.1593  0.0201  0.3339
11584TIP3    H156243   4.503   4.831  15.609  1.1064  1.6382  0.2608
11584TIP3    H256244   4.482   4.950  15.518 -0.0908 -0.1478 -1.8913
11585TIP3   OH256245   0.852   6.676  16.169  0.6362  0.0626 -0.4100
11585TIP3    H156246   0.801   6.600  16.200  1.0957  0.2469  0.8467
11585TIP3    H256247   0.862   6.661  16.075  0.6596 -1.4107 -0.2009
11586TIP3   OH256248   1.863   5.927  15.877  0.1399  0.2446 -0.0842
11586TIP3    H156249   1.957   5.923  15.856 -0.1955  2.5799 -2.5857
11586TIP3    H256250   1.859   5.980  15.957  0.9045  0.9576 -0.5054
11587TIP3   OH256251   6.584   5.653   1.847  0.7370  0.0046 -0.0249
11587TIP3    H156252   6.669   5.632   1.809  1.8803  1.7217  1.4337
11587TIP3    H256253   6.605   5.702   1.926 -1.6283  1.3979 -0.1766
11588TIP3   OH256254   4.685   5.246   2.258  0.4223  0.0283 -0.2494
11588TIP3    H156255   4.700   5.153   2.243 -1.3139 -0.4401  0.6955
11588TIP3    H256256   4.695   5.258   2.352 -1.2712  0.3739 -0.0754
11589TIP3   OH256257   0.421   0.325   6.484  0.1426 -0.1968  0.8521
11589TIP3    H156258   0.434   0.356   6.394 -0.5029 -0.9379  0.4902
11589TIP3    H256259   0.340   0.367   6.512  0.4138  0.1389  1.1450
11590TIP3   OH256260   3.107   3.725  11.242 -0.2033 -0.2219 -0.0708
11590TIP3    H156261   3.056   3.648  11.269  0.7321 -0.8106  0.0580
11590TIP3    H256262   3.162   3.745  11.317 -0.0608  0.2515 -0.3001
11591TIP3   OH256263   6.372   1.404   3.088  0.4820  0.4452  0.5080
11591TIP3    H156264   6.384   1.324   3.038  1.2657  1.3742 -0.8612
11591TIP3    H256265   6.286   1.436   3.061 -0.2240 -0.3582  1.7223
11592TIP3   OH256266   0.297   4.348  14.184  0.2119  0.0721  0.4304
11592TIP3    H156267   0.264   4.295  14.257  2.0803 -1.2026  0.4092
11592TIP3    H256268   0.392   4.345  14.193  0.4611  0.6620 -1.5411
11593TIP3   OH256269   0.335   5.049   2.671  0.4361 -0.0409  0.1394
11593TIP3    H156270   0.377   5.079   2.752  1.3873  1.5744 -0.8897
11593TIP3    H256271   0.250   5.016   2.699  0.3194  1.4343  1.7087
11594TIP3   OH256272   3.229   4.549  15.586  0.0082  0.1354 -0.5146
11594TIP3    H156273   3.134   4.535  15.583  0.0167 -0.3927  0.7996
11594TIP3    H256274   3.258   4.537  15.496 -0.7033 -3.3644 -0.4144
11595TIP3   OH256275   2.166   3.129  13.078  0.2876 -0.0073 -0.8100
11595TIP3    H156276   2.082   3.129  13.124  0.5935 -1.1156 -0.2133
11595TIP3    H256277   2.221   3.190  13.127 -0.2100  0.8397 -1.2945
11596TIP3   OH256278   4.002   0.110   0.827 -0.2393 -0.0424  0.3633
11596TIP3    H156279   3.993   0.197   0.789  1.0794 -0.4085 -0.8554
11596TIP3    H256280   3.974   0.051   0.757 -0.1111 -0.6493  0.8173
11597TIP3   OH256281   6.676   3.224   2.578  0.0989 -0.5278  0.5889
11597TIP3    H156282   6.772   3.226   2.580  0.0833  0.1823  0.8607
11597TIP3    H256283   6.650   3.233   2.670 -0.2407  0.8394  0.3723
11598TIP3   OH256284   2.115   3.331   4.553 -0.2298 -0.2298 -0.7704
11598TIP3    H156285   2.146   3.287   4.632 -3.6629 -0.7080  0.4994
11598TIP3    H256286   2.058   3.267   4.511 -1.0854  1.1768 -1.8366
11599TIP3   OH256287   1.608   1.090   2.676 -0.8029 -0.2202  0.2740
11599TIP3    H156288   1.512   1.091   2.672 -0.8405 -2.5268 -0.8882
11599TIP3    H256289   1.630   1.165   2.731 -3.2542  0.4792  0.4372
11600TIP3   OH256290   1.348   1.425   2.663 -0.0777 -0.2752  0.1351
11600TIP3    H156291   1.291   1.478   2.607 -1.1042 -1.7095 -0.2486
11600TIP3    H256292   1.433   1.426   2.618 -0.8167 -1.2069 -1.3988
11601TIP3   OH256293   2.835   5.258  16.808 -0.0592  0.8750 -0.0901
11601TIP3    H156294   2.759   5.199  16.815  0.7921 -0.3522 -0.8534
11601TIP3    H256295   2.905   5.202  16.776  0.3861  2.6584 -2.4218
11602TIP3   OH256296   0.941   6.022  12.380  0.0435 -0.0357  0.1568
11602TIP3    H156297   0.892   5.940  12.388 -0.5172  0.3071  0.2503
11602TIP3    H256298   1.029   5.994  12.353 -0.5957 -0.5765 -1.5402
11603TIP3   OH256299   1.126   3.232  14.384  0.3306 -0.0986  0.1148
11603TIP3    H156300   1.162   3.171  14.449 -0.5582 -0.4820  0.2670
11603TIP3    H256301   1.048   3.268  14.426 -0.5142 -0.6872 -0.8825
11604TIP3   OH256302   1.680   2.697   0.700  0.8767  0.1202  0.0427
11604TIP3    H156303   1.760   2.746   0.718  0.7403 -0.5523  3.0955
11604TIP3    H256304   1.709   2.609   0.678  1.0066  0.1773 -0.0122
11605TIP3   OH256305   2.251   5.275   4.258 -0.8094  0.0586  0.2165
11605TIP3    H156306   2.264   5.281   4.163  0.1148  1.1920  0.3984
11605TIP3    H256307   2.336   5.245   4.292 -0.5152  1.5262  0.8501
11606TIP3   OH256308   5.051   1.236  11.118  0.1970 -0.1492 -0.9433
11606TIP3    H156309   5.143   1.209  11.125  0.5184  1.2138  0.8812
11606TIP3    H256310   5.054   1.315  11.062 -0.0680 -0.8633 -1.9945
11607TIP3   OH256311   4.955   2.521   5.936  0.4573 -0.6678 -0.2293
11607TIP3    H156312   4.960   2.543   5.843 -1.3919 -0.8622 -0.4070
11607TIP3    H256313   4.870   2.555   5.964  1.3007  0.0718  1.5897
11608TIP3   OH256314   0.166   5.041   6.456 -0.3621  0.1209 -0.0896
11608TIP3    H156315   0.227   5.115   6.451  1.2539 -1.1762 -0.1627
11608TIP3    H256316   0.215   4.966   6.423 -1.9577 -1.0180 -0.0074
11609TIP3   OH256317   4.937   1.178   4.253 -0.2391  0.0786  0.1164
11609TIP3    H156318   4.944   1.250   4.315 -1.0346 -0.0058  0.3218
11609TIP3    H256319   4.961   1.100   4.304 -2.2076 -0.1810  0.7511
11610TIP3   OH256320   0.975   5.517   3.793  0.3400 -0.0281  0.2655
11610TIP3    H156321   1.052   5.510   3.736 -1.2448 -1.1660 -1.9274
11610TIP3    H256322   0.978   5.606   3.827  0.9619  1.0397 -2.3222
11611TIP3   OH256323   4.276   0.136  14.920  0.2706 -0.0745 -0.1491
11611TIP3    H156324   4.357   0.171  14.885 -0.8726  1.3891 -1.4922
11611TIP3    H256325   4.208   0.193  14.885 -1.3465 -1.2010  0.9863
11612TIP3   OH256326   3.885   1.465   4.647  0.4484  0.4370  0.0983
11612TIP3    H156327   3.844   1.400   4.590  1.0768  0.4665 -0.3955
11612TIP3    H256328   3.852   1.549   4.616  0.2548  0.4080  0.2239
11613TIP3   OH256329   5.885   1.596  11.841  0.0600 -0.0304 -0.2090
11613TIP3    H156330   5.811   1.565  11.790  0.3030  0.5225 -0.9210
11613TIP3    H256331   5.901   1.685  11.809  0.7415  0.0276  0.2526
11614TIP3   OH256332   5.032   4.019  12.205 -0.1947  0.1212 -0.2540
11614TIP3    H156333   5.034   3.944  12.146  3.1801 -0.1081 -0.0365
11614TIP3    H256334   5.096   4.080  12.169 -0.3090  1.3485  1.4833
11615TIP3   OH256335   5.117   0.018   1.918  0.3224  0.3242  0.2706
11615TIP3    H156336   5.063   0.079   1.968 -0.0268 -0.5159  0.9391
11615TIP3    H256337   5.076  -0.067   1.931  2.4042 -0.5530  1.7255
11616TIP3   OH256338   2.639   3.512   3.445  0.3891  0.1485  0.4151
11616TIP3    H156339   2.651   3.607   3.447  1.0182  0.0851 -0.1942
11616TIP3    H256340   2.547   3.500   3.467 -0.1904  1.0202 -1.3138
11617TIP3   OH256341   0.387   6.644  16.228  0.0441  0.0263  0.1064
11617TIP3    H156342   0.303   6.599  16.231 -1.0698  1.9553 -0.8811
11617TIP3    H256343   0.416   6.636  16.137  0.5177  0.1438  0.2418
11618TIP3   OH256344   5.795   3.164  10.771 -0.1445 -0.4976 -0.1101
11618TIP3    H156345   5.813   3.257  10.784 -0.0890 -0.6775  1.2469
11618TIP3    H256346   5.786   3.154  10.676  1.0953  0.6635 -0.3737
11619TIP3   OH256347   1.022   5.591  15.933 -0.6469  0.1558  0.1434
11619TIP3    H156348   1.035   5.496  15.938 -2.4473 -0.0738  1.5989
11619TIP3    H256349   1.110   5.628  15.945  0.0934 -1.3143 -0.5665
11620TIP3   OH256350   5.843   5.190  12.765  0.3828  0.4498 -0.2728
11620TIP3    H156351   5.771   5.250  12.787 -0.4839 -0.8919  0.6498
11620TIP3    H256352   5.801   5.121  12.714  0.3318 -1.9384  2.7428
11621TIP3   OH256353   3.977   5.488   0.795  0.3790  0.7486 -0.0859
11621TIP3    H156354   3.946   5.563   0.744 -0.9313 -0.0866 -0.5799
11621TIP3    H256355   3.941   5.412   0.749  0.4114 -0.1097  1.2533
11622TIP3   OH256356   0.323   4.527  10.717 -0.0601 -0.1481  0.0013
11622TIP3    H156357   0.231   4.519  10.691  0.2789 -2.1007 -0.7992
11622TIP3    H256358   0.354   4.437  10.719  2.3359  0.5682 -1.5748
11623TIP3   OH256359   3.457   1.255   2.374  0.1625  0.0308 -0.3654
11623TIP3    H156360   3.473   1.305   2.294  0.6126 -0.3257 -0.5001
11623TIP3    H256361   3.361   1.246   2.378  0.0635  0.9635 -0.2916
11624TIP3   OH256362   4.447   6.645  17.285  0.4720 -0.1898 -0.1393
11624TIP3    H156363   4.482   6.630  17.373 -0.5660  1.0337  0.5044
11624TIP3    H256364   4.422   6.737  17.284  2.4897  0.4643 -2.4598
11625TIP3   OH256365   5.321   5.519  12.331 -0.1165  0.2242  0.0401
11625TIP3    H156366   5.317   5.451  12.398  2.2759 -0.2970 -0.2742
11625TIP3    H256367   5.338   5.600  12.380  1.8179 -0.1824  0.1255
11626TIP3   OH256368   5.171   5.957  11.311  0.3970  0.1401 -0.4671
11626TIP3    H156369   5.229   5.881  11.305  0.4281  0.0528  0.7834
11626TIP3    H256370   5.118   5.942  11.389 -0.8645  0.5393 -1.2109
11627TIP3   OH256371   1.377   0.776  15.259 -0.8515  0.3894 -0.0786
11627TIP3    H156372   1.297   0.755  15.307 -0.6133  0.4583  0.3523
11627TIP3    H256373   1.421   0.842  15.313 -0.4187  0.2230 -0.2248
11628TIP3   OH256374   1.955   3.611   0.980  0.0374  0.4982 -0.6089
11628TIP3    H156375   1.922   3.607   1.070  0.4728 -0.2118 -0.4751
11628TIP3    H256376   1.878   3.602   0.925 -0.1406  0.1331 -0.3021
11629TIP3   OH256377   2.930   4.649  16.200  0.2977 -0.1296 -0.0956
11629TIP3    H156378   2.897   4.653  16.290  1.0507  1.3753  0.1338
11629TIP3    H256379   2.897   4.565  16.167 -1.9622  0.3341  0.7968
11630TIP3   OH256380   0.184   0.290  17.093  0.1852 -0.0945  0.0058
11630TIP3    H156381   0.262   0.234  17.093 -0.6685 -1.3266 -1.4251
11630TIP3    H256382   0.162   0.299  17.186  0.9993 -1.2017  0.3344
11631TIP3   OH256383   1.502   3.822   4.127 -0.4223  0.6714 -0.5562
11631TIP3    H156384   1.541   3.900   4.088 -2.1337  1.3677 -0.9867
11631TIP3    H256385   1.408   3.837   4.121 -0.7833 -0.6573  0.9438
11632TIP3   OH256386   6.489   1.752  13.360 -0.2394 -0.5880 -0.5544
11632TIP3    H156387   6.482   1.817  13.430 -0.8342 -2.2707  1.0024
11632TIP3    H256388   6.545   1.794  13.294 -1.1789  1.7799  0.0379
11633TIP3   OH256389   4.673   0.410  12.873 -0.3912  0.4567  0.2967
11633TIP3    H156390   4.763   0.399  12.905  0.3425  1.1388 -1.3878
11633TIP3    H256391   4.671   0.361  12.791 -1.5827  0.3978  0.3508
11634TIP3   OH256392   0.231   1.853   0.640  0.5930  0.0605 -0.3163
11634TIP3    H156393   0.266   1.783   0.584  0.6041 -0.3666  0.2117
11634TIP3    H256394   0.199   1.807   0.718 -0.4939  0.5238 -0.4793
11635TIP3   OH256395   2.256   1.118   0.926  0.2114 -0.0132  0.0820
11635TIP3    H156396   2.224   1.033   0.896  0.5794 -0.5913  1.2664
11635TIP3    H256397   2.178   1.165   0.954  0.0843 -0.2580  0.1363
11636TIP3   OH256398   5.570   1.606   1.157  0.1447 -0.4989  0.2052
11636TIP3    H156399   5.623   1.684   1.173 -0.6717  0.3645 -1.1075
11636TIP3    H256400   5.605   1.540   1.216  1.2644  0.6828  0.8932
11637TIP3   OH256401   5.521   2.422  13.436 -0.0510 -0.1566 -0.0042
11637TIP3    H156402   5.455   2.367  13.396 -1.3904  1.1809  0.2649
11637TIP3    H256403   5.585   2.439  13.367 -1.8825  1.4398 -1.3919
11638TIP3   OH256404   1.333   0.023  16.215 -0.4299  0.5018  0.1316
11638TIP3    H156405   1.364   0.050  16.128  1.2941  0.1920  0.6116
11638TIP3    H256406   1.343   0.101  16.269 -0.6360  0.4390  0.2612
11639TIP3   OH256407   1.685   1.310  12.373 -0.0845  0.2188 -0.1675
11639TIP3    H156408   1.631   1.383  12.402 -0.3607 -0.1887  0.3760
11639TIP3    H256409   1.693   1.254  12.451  2.2613  0.9213  0.1880
11640TIP3   OH256410   1.648   4.235   0.644  0.5640  0.4115  0.4905
11640TIP3    H156411   1.597   4.267   0.569  1.6053 -0.9170 -0.8504
11640TIP3    H256412   1.738   4.262   0.624  0.9516 -0.5154  0.9380
11641TIP3   OH256413   1.848   1.968  17.012 -0.0729  0.3976  0.0687
11641TIP3    H156414   1.935   2.000  16.987 -0.4456  0.4543 -1.2237
11641TIP3    H256415   1.810   1.934  16.931 -0.6636 -1.0767  0.9045
11642TIP3   OH256416   5.976   1.590   4.430  0.7912  0.3463 -0.2161
11642TIP3    H156417   5.948   1.499   4.446  0.3586  0.2996 -1.1632
11642TIP3    H256418   6.021   1.586   4.346  0.1203  1.1336 -0.6220
11643TIP3   OH256419   2.518   2.722   2.795  0.0844  0.0686  0.5040
11643TIP3    H156420   2.580   2.667   2.843 -0.0896  0.7366  1.5279
11643TIP3    H256421   2.538   2.706   2.702  2.2461  0.7826  0.8046
11644TIP3   OH256422   0.145   3.080   5.214  0.2510  0.0490  0.2084
11644TIP3    H156423   0.128   3.160   5.262  0.2032  1.2333 -1.6959
11644TIP3    H256424   0.189   3.023   5.277  0.3484  1.5800  1.5767
11645TIP3   OH256425   3.019   6.561  13.640 -0.6888 -0.0564 -0.7101
11645TIP3    H156426   3.062   6.597  13.717 -1.4934 -0.8092  0.1150
11645TIP3    H256427   2.951   6.625  13.618 -2.2824 -1.0978  0.9027
11646TIP3   OH256428   1.740   4.694  13.183 -0.2736 -0.1480  0.2116
11646TIP3    H156429   1.699   4.693  13.097 -0.6321  2.2739  0.2865
11646TIP3    H256430   1.825   4.652  13.170  1.3892  3.4909 -2.3287
11647TIP3   OH256431   1.287   2.215  15.281 -0.0300 -0.4165  0.1931
11647TIP3    H156432   1.269   2.159  15.206 -1.1673  1.3589 -0.9248
11647TIP3    H256433   1.243   2.172  15.354 -0.4963 -1.2110 -0.5425
11648TIP3   OH256434   3.963   1.973   2.962  0.1367 -0.0775  0.0941
11648TIP3    H156435   3.974   2.067   2.956 -1.6307  0.1723  0.1217
11648TIP3    H256436   3.938   1.957   3.053  0.3637 -0.5705  0.0738
11649TIP3   OH256437   3.880   4.635  14.982  0.3842  0.2236 -0.2852
11649TIP3    H156438   3.877   4.727  15.010  0.6255  0.2238 -0.2623
11649TIP3    H256439   3.793   4.619  14.945  0.1029  0.2682  0.3318
11650TIP3   OH256440   2.586   4.879  11.872  0.4138  0.2092  0.3665
11650TIP3    H156441   2.658   4.846  11.819  0.4190  0.8510 -0.0288
11650TIP3    H256442   2.572   4.969  11.841  1.9446  1.4770  2.9943
11651TIP3   OH256443   2.637   0.974  16.303 -0.7123 -0.5037  0.3174
11651TIP3    H156444   2.602   0.959  16.391  0.5847 -1.7798  0.6502
11651TIP3    H256445   2.708   1.037  16.316 -2.0203  1.1587 -0.1915
11652TIP3   OH256446   1.986   1.022   0.151  0.4694 -0.1503  0.3065
11652TIP3    H156447   1.970   1.082   0.078 -2.0463 -0.1693  0.7405
11652TIP3    H256448   1.998   0.937   0.110  3.1090  0.4093 -0.2564
11653TIP3   OH256449   6.079   1.813  16.383 -0.0244 -0.3948 -0.3155
11653TIP3    H156450   6.027   1.888  16.410 -2.2413 -1.2896 -1.8592
11653TIP3    H256451   6.144   1.849  16.323  0.3283  0.5401  0.5870
11654TIP3   OH256452   3.565   3.752  14.982 -0.6396  0.2923  0.5317
11654TIP3    H156453   3.604   3.799  14.908 -1.1777  1.8148  1.1784
11654TIP3    H256454   3.640   3.728  15.037 -0.3063 -0.1745 -0.1134
11655TIP3   OH256455   6.260   1.706  16.861  0.1291  0.0619  0.2919
11655TIP3    H156456   6.307   1.690  16.943  1.8324 -1.0314 -0.8575
11655TIP3    H256457   6.326   1.736  16.800 -0.5081 -1.9543 -1.5179
11656TIP3   OH256458   3.917   0.019  13.564 -0.5424 -0.2625 -0.1272
11656TIP3    H156459   3.886  -0.044  13.499  2.5602 -1.3246 -0.7328
11656TIP3    H256460   3.978  -0.030  13.619  0.5439  1.7478  0.5857
11657TIP3   OH256461   5.066   6.526   2.473  0.4770  0.0026  0.5517
11657TIP3    H156462   5.119   6.524   2.552  1.8580 -3.1165 -0.2981
11657TIP3    H256463   4.980   6.493   2.500  0.4554  0.4737  1.0511
11658TIP3   OH256464   5.665   4.941  16.575  0.3309 -0.1507  0.3644
11658TIP3    H156465   5.722   4.874  16.613  0.4340  0.2066  0.8519
11658TIP3    H256466   5.725   5.010  16.547  0.1026  0.5228  1.4823
11659TIP3   OH256467   1.471   0.777  15.011 -0.3178  0.3510 -0.2846
11659TIP3    H156468   1.432   0.783  15.098 -1.9393  0.6255 -0.9902
11659TIP3    H256469   1.565   0.792  15.025 -0.7553  1.9630  1.2195
11660TIP3   OH256470   5.062   3.972   1.295 -0.0032 -0.0191 -0.3288
11660TIP3    H156471   5.069   3.883   1.328 -0.3192  0.3065  0.6389
11660TIP3    H256472   5.092   3.966   1.204 -0.9852 -1.2917 -0.5961
11661TIP3   OH256473   1.750   0.630  15.135  0.3084 -0.5307  0.2198
11661TIP3    H156474   1.734   0.700  15.072 -0.8172 -1.2430 -0.3154
11661TIP3    H256475   1.846   0.622  15.138  0.4078  0.1652 -0.6612
11662TIP3   OH256476   5.935   5.299   3.006  0.2798 -0.0089  0.0161
11662TIP3    H156477   5.859   5.305   2.947  0.5289 -1.1419 -0.4380
11662TIP3    H256478   5.904   5.338   3.088 -0.4781  0.4433 -0.4692
11663TIP3   OH256479   0.666   6.768   4.423 -0.4645 -0.3601  0.0033
11663TIP3    H156480   0.601   6.764   4.352  0.3025  0.6075 -0.7982
11663TIP3    H256481   0.615   6.789   4.501 -0.9070  3.6266 -1.1360
11664TIP3   OH256482   5.813   2.050  13.055  0.1391  0.4689 -0.2044
11664TIP3    H156483   5.736   2.065  13.110 -0.1359 -1.9923  0.1626
11664TIP3    H256484   5.880   2.019  13.115  0.3877 -0.5705 -1.0023
11665TIP3   OH256485   0.476   1.118  11.766  0.7220  0.1865  0.4065
11665TIP3    H156486   0.419   1.051  11.730 -1.7589  1.2872  2.0128
11665TIP3    H256487   0.551   1.121  11.707  1.7129 -4.8708  0.9979
11666TIP3   OH256488   6.516   3.333  13.846  0.2515  0.2760 -0.6624
11666TIP3    H156489   6.495   3.395  13.776 -1.1898  0.0666 -0.4454
11666TIP3    H256490   6.450   3.350  13.914  0.1162 -1.1627 -0.3948
11667TIP3   OH256491   2.382   5.503   3.376 -0.2884  0.0632  0.7181
11667TIP3    H156492   2.443   5.574   3.393 -1.2182  0.6699  1.6085
11667TIP3    H256493   2.332   5.532   3.299 -0.7448  0.4378  1.1500
11668TIP3   OH256494   0.699   0.365  12.656 -0.5585  0.2055  0.1939
11668TIP3    H156495   0.732   0.288  12.609 -2.9602 -0.5878 -0.3043
11668TIP3    H256496   0.665   0.422  12.588 -2.1513  0.0106  0.7984
11669TIP3   OH256497   1.715   6.779  11.821  0.2478  0.2649 -0.4455
11669TIP3    H156498   1.682   6.699  11.780  0.3122  0.1029 -0.1837
11669TIP3    H256499   1.642   6.840  11.816  0.6098  0.6218 -1.8020
11670TIP3   OH256500   0.846   3.069   3.474  0.2494 -0.4404 -0.0778
11670TIP3    H156501   0.821   2.994   3.529 -0.4651 -1.6745 -1.9970
11670TIP3    H256502   0.922   3.037   3.425  0.2957  0.3104 -0.4922
11671TIP3   OH256503   5.617   4.457  12.937 -0.4008 -0.2115  0.3001
11671TIP3    H156504   5.567   4.488  12.861  0.6910 -1.0512 -0.7913
11671TIP3    H256505   5.689   4.407  12.899  1.4856  1.2480  1.8256
11672TIP3   OH256506   5.117   1.857  14.959  0.9123  0.2505  0.1577
11672TIP3    H156507   5.029   1.896  14.959  0.4565 -0.6970  0.9661
11672TIP3    H256508   5.164   1.903  14.891 -1.0023 -0.9569 -2.1422
11673TIP3   OH256509   3.744   6.462   3.662 -0.3585 -0.3898  0.4850
11673TIP3    H156510   3.839   6.447   3.658 -0.5061 -1.0948 -1.7155
11673TIP3    H256511   3.736   6.550   3.699  1.2879  0.5837 -1.2525
11674TIP3   OH256512   4.613   2.793  13.756  0.2419 -0.1577  0.1967
11674TIP3    H156513   4.644   2.884  13.747 -0.5278  0.2018  0.9910
11674TIP3    H256514   4.540   2.787  13.695  0.5491 -0.3719 -0.1523
11675TIP3   OH256515   2.200   1.957  16.116  0.2368 -0.6322 -0.0348
11675TIP3    H156516   2.283   1.911  16.100  1.2911  0.2370  2.4087
11675TIP3    H256517   2.170   1.922  16.200 -2.3500 -1.5068 -1.2528
11676TIP3   OH256518   0.137   6.763  15.506 -0.1631 -0.4243  0.0688
11676TIP3    H156519   0.232   6.759  15.503 -0.0024 -1.5735  3.0924
11676TIP3    H256520   0.108   6.689  15.452  0.6667 -0.5233 -0.2567
11677TIP3   OH256521   6.715   0.821   6.768  0.2843 -0.0197  0.2474
11677TIP3    H156522   6.735   0.903   6.723 -1.0812 -0.4721 -1.2803
11677TIP3    H256523   6.623   0.827   6.791  0.4668 -0.6469  1.1915
11678TIP3   OH256524   5.929   3.117  10.258  0.1226 -0.3943 -0.1393
11678TIP3    H156525   5.943   3.207  10.288  1.1098 -0.0393 -1.5591
11678TIP3    H256526   5.981   3.063  10.317  1.3465  0.1961 -0.6576
11679TIP3   OH256527   1.885   0.928  14.331 -0.1170 -0.6870  0.0710
11679TIP3    H156528   1.913   0.865  14.397  1.4204  0.7409  0.8463
11679TIP3    H256529   1.961   0.941  14.275 -0.6783 -0.1569 -0.6013
11680TIP3   OH256530   1.379   2.983   5.813  0.0759  0.6146  0.3772
11680TIP3    H156531   1.352   3.068   5.780  3.7061  1.6023 -0.4856
11680TIP3    H256532   1.428   3.002   5.893 -0.0794 -0.8160  0.8531
11681TIP3   OH256533   2.200   3.488  14.811 -0.2017 -0.6561 -0.6091
11681TIP3    H156534   2.146   3.548  14.760 -0.9862 -0.3070  0.5657
11681TIP3    H256535   2.278   3.538  14.833 -0.7496 -0.1172  0.1725
11682TIP3   OH256536   1.229   5.835  10.467  0.0011  0.3661  0.1606
11682TIP3    H156537   1.282   5.792  10.534  0.6788  0.7786 -0.0986
11682TIP3    H256538   1.205   5.919  10.506 -0.3152  0.2514  0.2115
11683TIP3   OH256539   4.873   6.691   6.392 -0.2957  0.0726 -0.4662
11683TIP3    H156540   4.918   6.723   6.470 -1.7150  2.9488 -0.6721
11683TIP3    H256541   4.796   6.645   6.425  0.8551 -1.7486 -0.1874
11684TIP3   OH256542   0.063   0.304  15.260 -0.4432  0.4313 -0.3608
11684TIP3    H156543   0.131   0.319  15.326  1.3373 -3.1909 -1.1478
11684TIP3    H256544   0.000   0.247  15.303 -0.0838 -0.6951 -1.2947
11685TIP3   OH256545   5.750   2.530   4.712  0.4253 -0.0873 -0.1173
11685TIP3    H156546   5.701   2.595   4.662  0.8439  0.1384 -0.2408
11685TIP3    H256547   5.709   2.529   4.799  0.5900  0.5397 -0.0326
11686TIP3   OH256548   5.332   3.117   2.497 -0.0895  0.5619  0.5552
11686TIP3    H156549   5.239   3.139   2.501  0.0949  1.8434 -1.2958
11686TIP3    H256550   5.373   3.171   2.565 -0.4727  1.3354  0.1786
11687TIP3   OH256551   6.723   0.015  16.872 -0.1308 -0.0178  0.1998
11687TIP3    H156552   6.813   0.015  16.839  0.0868 -2.5871  0.5852
11687TIP3    H256553   6.670   0.044  16.798  0.8928  0.0975 -0.5060
11688TIP3   OH256554   3.640   2.207   0.888 -0.4175 -0.3530  0.2560
11688TIP3    H156555   3.721   2.248   0.919 -1.1069  2.3224 -1.1586
11688TIP3    H256556   3.573   2.235   0.951 -1.2577  2.6135 -1.7189
11689TIP3   OH256557   6.270   3.062  13.884  0.0322  0.3320 -0.3843
11689TIP3    H156558   6.352   3.101  13.915 -0.4254  1.7097 -0.8496
11689TIP3    H256559   6.279   3.061  13.789 -0.5613  0.6646 -0.4502
11690TIP3   OH256560   5.732   5.795   5.303  0.0481  0.6012 -0.5121
11690TIP3    H156561   5.713   5.707   5.334 -1.4812  1.1490  0.2073
11690TIP3    H256562   5.689   5.800   5.218  0.8054  0.4141 -0.9150
11691TIP3   OH256563   6.271   0.663  13.050 -0.0707 -0.1059 -0.2455
11691TIP3    H156564   6.200   0.713  13.008 -1.7576 -2.5771 -0.5165
11691TIP3    H256565   6.315   0.727  13.107 -2.1769  1.6562 -0.4763
11692TIP3   OH256566   1.580   1.234  14.220 -0.1437 -0.5846  0.1496
11692TIP3    H156567   1.627   1.270  14.144 -1.1493 -0.6216 -0.5088
11692TIP3    H256568   1.592   1.140  14.213 -0.5740 -0.6155 -0.1973
11693TIP3   OH256569   6.456   2.132  11.713  0.4006 -0.5548 -0.0465
11693TIP3    H156570   6.397   2.155  11.785 -1.0967  1.3396 -1.7473
11693TIP3    H256571   6.544   2.152  11.746 -0.2820  0.6493  1.1248
11694TIP3   OH256572   2.017   0.681  15.208 -0.1236 -0.2716 -0.0351
11694TIP3    H156573   2.007   0.775  15.221  0.5125 -0.4319  1.9768
11694TIP3    H256574   2.098   0.659  15.254  1.5950 -1.3207 -3.2479
11695TIP3   OH256575   1.196   5.131  12.248  1.1895 -0.0929 -0.1319
11695TIP3    H156576   1.128   5.085  12.297  0.3138  1.1813 -0.1220
11695TIP3    H256577   1.274   5.126  12.304  1.4935 -2.5822 -0.6478
11696TIP3   OH256578   3.956   1.773   5.562  0.0690  0.2429  0.5726
11696TIP3    H156579   3.928   1.714   5.491  2.2334  0.7954 -0.8469
11696TIP3    H256580   3.913   1.856   5.541 -0.0954  0.1360  0.4777
11697TIP3   OH256581   4.075   0.641  14.899  0.0531 -0.0372  0.0802
11697TIP3    H156582   4.107   0.561  14.940 -1.4786 -0.8011 -0.1431
11697TIP3    H256583   4.154   0.693  14.883  1.1018 -1.5466  0.1122
11698TIP3   OH256584   2.945   0.199  15.946 -0.9910 -0.0397  0.0196
11698TIP3    H156585   2.963   0.123  16.002 -0.8252 -1.1503 -1.4648
11698TIP3    H256586   2.863   0.235  15.980 -1.4028 -1.2619  0.3774
11699TIP3   OH256587   4.089   0.434   4.372 -0.1805  0.1016 -0.4754
11699TIP3    H156588   4.155   0.461   4.436  0.5365  1.7197 -1.8113
11699TIP3    H256589   4.058   0.349   4.404  1.6881 -0.1536  0.8453
11700TIP3   OH256590   4.407   3.541  11.897 -0.1020  0.2064 -0.0385
11700TIP3    H156591   4.405   3.597  11.975 -1.5656  1.9921 -1.2606
11700TIP3    H256592   4.490   3.563  11.854  0.2665 -0.0773  0.5172
11701TIP3   OH256593   6.124   4.239   4.150  0.2262  0.0951 -0.1828
11701TIP3    H156594   6.191   4.225   4.217  0.4179  2.5116  0.2368
11701TIP3    H256595   6.041   4.234   4.198  0.3835  2.4813  0.4813
11702TIP3   OH256596   3.322   1.920   5.324 -0.6954 -0.2788 -0.8682
11702TIP3    H156597   3.253   1.961   5.377 -0.8067 -0.3119 -0.9877
11702TIP3    H256598   3.281   1.905   5.239  0.1884  2.0818 -1.8043
11703TIP3   OH256599   3.563   5.504   0.543  0.3410 -0.4512 -0.0394
11703TIP3    H156600   3.589   5.446   0.471 -1.2356  0.1888 -1.1685
11703TIP3    H256601   3.518   5.446   0.605 -0.5727 -0.5771 -0.8071
11704TIP3   OH256602   0.219   4.455   5.190 -0.1444  0.0816  0.2177
11704TIP3    H156603   0.247   4.433   5.279  2.6821 -0.1599 -0.6453
11704TIP3    H256604   0.291   4.506   5.154 -1.6412  1.0092 -1.6499
11705TIP3   OH256605   5.261   5.209   0.861 -0.1117  0.1668 -0.0726
11705TIP3    H156606   5.273   5.158   0.780  0.1903  0.6286 -0.3244
11705TIP3    H256607   5.198   5.277   0.837 -0.9703 -0.4493  0.4293
11706TIP3   OH256608   1.723   0.735   3.244 -0.4995  0.5221 -0.1476
11706TIP3    H156609   1.697   0.702   3.330  1.0388  1.5765  0.7493
11706TIP3    H256610   1.702   0.828   3.246 -1.0897  0.4377 -1.1961
11707TIP3   OH256611   4.273   0.636  11.494  0.2261 -0.2046  0.2009
11707TIP3    H156612   4.204   0.610  11.433  1.8463 -1.1738 -1.3107
11707TIP3    H256613   4.230   0.639  11.580 -1.9163  0.3165 -0.8166
11708TIP3   OH256614   3.588   3.414  15.022 -0.2350 -0.6370 -0.1709
11708TIP3    H156615   3.592   3.460  14.938  0.1213 -1.0012 -0.3547
11708TIP3    H256616   3.497   3.386  15.030 -0.8213  1.3566  0.6240
11709TIP3   OH256617   0.400   0.671   1.208  0.2117 -0.1923  0.0102
11709TIP3    H156618   0.346   0.594   1.227  0.4800 -0.2694  0.4812
11709TIP3    H256619   0.486   0.636   1.184  1.3736 -0.0486  3.4010
11710TIP3   OH256620   0.939   5.814   3.527  0.3269  0.0442  0.6160
11710TIP3    H156621   0.865   5.765   3.493  0.3610  2.3469 -3.4889
11710TIP3    H256622   0.905   5.902   3.543  1.9472  0.9467 -0.6026
11711TIP3   OH256623   0.220   6.136   3.700 -0.0817 -0.1195  0.7977
11711TIP3    H156624   0.230   6.062   3.640 -0.1591 -0.4748  1.2185
11711TIP3    H256625   0.126   6.145   3.711 -0.0490 -0.8212  1.7925
11712TIP3   OH256626   3.588   0.871  17.036 -0.1106 -0.0019  0.0395
11712TIP3    H156627   3.606   0.779  17.016  3.2789  0.4226  0.4413
11712TIP3    H256628   3.544   0.905  16.958 -0.1733 -1.6329 -0.6658
11713TIP3   OH256629   6.422   1.903  13.602  0.4922 -0.0958  0.2304
11713TIP3    H156630   6.401   1.935  13.689  1.1018  1.0755 -0.0414
11713TIP3    H256631   6.343   1.856  13.573  0.0615  0.0616  1.1421
11714TIP3   OH256632   5.840   1.396   0.521 -0.1656  1.1322  0.2702
11714TIP3    H156633   5.921   1.441   0.498  1.2922 -1.0910  0.7461
11714TIP3    H256634   5.805   1.366   0.437 -0.2329  1.6579  0.1082
11715TIP3   OH256635   1.485   1.791   5.175 -0.6029 -0.4572 -0.1660
11715TIP3    H156636   1.559   1.741   5.209 -0.5339  0.2607  0.7603
11715TIP3    H256637   1.412   1.729   5.179 -1.3135  0.3517  4.1192
11716TIP3   OH256638   2.624   0.136   4.599 -0.1592  0.1646  0.2932
11716TIP3    H156639   2.675   0.214   4.622 -0.6350  0.9555 -1.2284
11716TIP3    H256640   2.565   0.124   4.674  0.6857  0.5782  1.0507
11717TIP3   OH256641   5.743   3.706   1.345  0.4734 -0.0295 -0.4178
11717TIP3    H156642   5.696   3.756   1.411  0.7423  1.3098 -1.2062
11717TIP3    H256643   5.807   3.767   1.309  1.3760 -1.1809 -0.8560
11718TIP3   OH256644   1.437   3.415   0.694  0.5061  0.1305 -0.1511
11718TIP3    H156645   1.523   3.386   0.723  0.5647 -0.8730 -1.2501
11718TIP3    H256646   1.378   3.345   0.721  0.1640  0.4170 -0.1505
11719TIP3   OH256647   5.893   0.902   1.229  0.4851  0.3952 -0.1567
11719TIP3    H156648   5.954   0.886   1.302  0.3517 -2.1894 -0.5244
11719TIP3    H256649   5.879   0.997   1.231  1.4093  0.5802  2.4289
11720TIP3   OH256650   2.246   4.974   4.528  0.2616 -0.0314 -0.0914
11720TIP3    H156651   2.187   5.040   4.490 -0.9410 -0.9398  0.1583
11720TIP3    H256652   2.190   4.919   4.581  1.4817 -0.4727  0.7816
11721TIP3   OH256653   0.171   3.375  13.725  0.1829 -0.1719 -0.1819
11721TIP3    H156654   0.124   3.409  13.648  0.0032 -0.8301 -0.3719
11721TIP3    H256655   0.227   3.306  13.690  1.7896  1.0176 -0.0552
11722TIP3   OH256656   2.187   5.234   1.055 -0.0639  0.6001 -0.3990
11722TIP3    H156657   2.173   5.272   0.968  1.3740  1.1809 -0.3974
11722TIP3    H256658   2.126   5.282   1.112 -0.6085  0.6106 -0.9789
11723TIP3   OH256659   0.219   4.448   1.042  0.1755 -0.2254  0.0687
11723TIP3    H156660   0.169   4.368   1.057 -0.5567  0.2829  0.3620
11723TIP3    H256661   0.264   4.464   1.125 -1.6739  1.0404  0.8995
11724TIP3   OH256662   3.228   5.059   1.190  0.7801 -0.1566 -0.5166
11724TIP3    H156663   3.179   5.039   1.270 -1.4159  0.0817 -1.7028
11724TIP3    H256664   3.222   5.155   1.182  2.2490 -0.0241 -0.2340
11725TIP3   OH256665   1.151   2.385  11.861  0.1632 -0.2149 -0.1783
11725TIP3    H156666   1.125   2.423  11.777  0.3718  0.0226 -0.1342
11725TIP3    H256667   1.149   2.290  11.845  0.8643 -0.1543 -0.6509
11726TIP3   OH256668   3.373   5.017   0.783 -0.2184  0.5438 -0.4928
11726TIP3    H156669   3.329   5.101   0.774  1.0054  1.2005 -0.6206
11726TIP3    H256670   3.451   5.036   0.835  1.4537  0.0526 -2.6585
11727TIP3   OH256671   4.921   5.685   5.606 -0.2650 -0.2924 -0.4575
11727TIP3    H156672   4.880   5.667   5.691  0.0320 -1.1311 -0.4802
11727TIP3    H256673   4.931   5.780   5.604 -2.9634  0.0716 -0.7849
11728TIP3   OH256674   6.007   1.797   3.412  0.4917  0.3059 -0.1990
11728TIP3    H156675   6.003   1.885   3.373  2.8117  0.1234 -0.9838
11728TIP3    H256676   5.915   1.772   3.423 -0.3802  3.8506  2.4862
11729TIP3   OH256677   2.772   4.663  11.692  0.0221 -0.3254 -0.8366
11729TIP3    H156678   2.831   4.600  11.652 -1.0840 -3.2394  1.7242
11729TIP3    H256679   2.689   4.616  11.701 -0.9036  1.4984  1.0948
11730TIP3   OH256680   2.032   4.971  15.093 -0.4249 -0.2095  0.2943
11730TIP3    H156681   2.047   4.991  15.186  0.1859  1.1948 -0.0728
11730TIP3    H256682   2.040   5.056  15.050  1.7341 -1.1889 -1.3658
11731TIP3   OH256683   3.648   3.850  13.408 -0.1097  0.4391  0.3373
11731TIP3    H156684   3.613   3.866  13.321  0.7811  0.9520  0.0483
11731TIP3    H256685   3.692   3.766  13.401 -0.5970  0.1718  0.4770
11732TIP3   OH256686   0.960   4.713   4.414  0.2842  0.5735 -0.3795
11732TIP3    H156687   0.983   4.777   4.347  0.6955 -0.5997 -1.4090
11732TIP3    H256688   1.041   4.700   4.464  0.4828  0.1571 -0.7974
11733TIP3   OH256689   5.498   4.349  11.551 -0.7004 -0.0210  0.0292
11733TIP3    H156690   5.521   4.317  11.464  1.0179  0.8347  0.1280
11733TIP3    H256691   5.565   4.415  11.571 -1.4638  0.2960  1.7095
11734TIP3   OH256692   6.706   5.326   4.977 -0.1644 -0.2981  0.2839
11734TIP3    H156693   6.629   5.272   4.963 -0.4521  0.4588 -1.2191
11734TIP3    H256694   6.675   5.398   5.032 -0.1310 -0.8404  1.0290
11735TIP3   OH256695   0.481   2.491   5.821  0.4223  0.0456 -0.5211
11735TIP3    H156696   0.516   2.515   5.907  2.8992 -2.3413 -0.7475
11735TIP3    H256697   0.402   2.440   5.841  1.0099 -0.5548  0.3521
11736TIP3   OH256698   0.771   2.788  16.483  0.2054 -0.4819  0.2620
11736TIP3    H156699   0.766   2.764  16.576 -1.5839 -0.1141  0.2944
11736TIP3    H256700   0.854   2.836  16.475 -0.4552  1.1000  2.0626
11737TIP3   OH256701   5.260   3.395   6.136 -0.0549 -0.3079 -1.1694
11737TIP3    H156702   5.195   3.416   6.069 -0.1622  0.3754 -0.8606
11737TIP3    H256703   5.287   3.480   6.171  0.2014 -0.6382 -0.5407
11738TIP3   OH256704   4.433   0.267  16.846  0.2862 -0.1665  0.4200
11738TIP3    H156705   4.451   0.182  16.807 -0.7975 -0.9771  1.6144
11738TIP3    H256706   4.384   0.314  16.779  2.2572  0.1784 -0.8822
11739TIP3   OH256707   5.625   1.652  13.049  0.1877  0.1542 -0.3866
11739TIP3    H156708   5.606   1.722  12.986 -2.1586 -0.2772 -0.2530
11739TIP3    H256709   5.651   1.578  12.994 -1.2395 -0.0368 -0.8381
11740TIP3   OH256710   2.854   1.050   0.138 -0.2629 -0.7938  0.0046
11740TIP3    H156711   2.796   1.021   0.208  1.5098  0.8246  2.2949
11740TIP3    H256712   2.934   0.999   0.149  0.9514  1.1643  0.8102
11741TIP3   OH256713   1.740   4.800   0.125 -0.2261 -0.1283  0.8212
11741TIP3    H156714   1.705   4.820   0.038 -0.0569  0.9872  0.9875
11741TIP3    H256715   1.674   4.743   0.165 -0.4893 -0.3413  0.1032
11742TIP3   OH256716   0.994   3.947   3.051 -0.4977 -0.0670 -0.3738
11742TIP3    H156717   0.924   4.002   3.084  0.4699  1.5026 -0.8016
11742TIP3    H256718   1.074   3.994   3.073  0.3741 -1.2864 -0.8114
11743TIP3   OH256719   4.080   6.302   6.183  0.2145 -0.9538 -0.3738
11743TIP3    H156720   4.023   6.347   6.120  2.1689  0.7060 -1.0842
11743TIP3    H256721   4.071   6.353   6.263  0.5004 -0.8207 -0.4241
11744TIP3   OH256722   5.424   6.713  14.413 -0.5579 -0.2816 -0.0749
11744TIP3    H156723   5.520   6.713  14.408 -0.5972 -0.4905 -1.0394
11744TIP3    H256724   5.396   6.685  14.326 -1.5215  1.3436 -0.3253
11745TIP3   OH256725   5.828   2.781   0.787 -0.6261  0.3094 -0.1216
11745TIP3    H156726   5.922   2.796   0.780 -0.6255  0.1577 -0.4833
11745TIP3    H256727   5.811   2.709   0.726 -0.8249 -0.3108  0.6467
11746TIP3   OH256728   5.221   0.176  10.975  0.7707  0.4406 -0.4766
11746TIP3    H156729   5.238   0.082  10.964  1.5027  0.4781  0.2616
11746TIP3    H256730   5.128   0.181  10.994  0.6602 -0.1099 -0.8407
11747TIP3   OH256731   4.984   2.180  14.743 -0.7666  0.4342  0.1844
11747TIP3    H156732   4.896   2.185  14.706 -0.6706 -3.2183 -0.9615
11747TIP3    H256733   4.972   2.140  14.829 -0.3117  0.8048  0.4228
11748TIP3   OH256734   3.714   4.259   3.406 -0.2102 -0.4081 -1.0615
11748TIP3    H156735   3.662   4.308   3.470  1.2684 -0.6056  0.3546
11748TIP3    H256736   3.698   4.167   3.430  1.0448 -0.4642 -0.3516
11749TIP3   OH256737   0.380   5.580  10.907  0.2777 -0.5093  0.3720
11749TIP3    H156738   0.394   5.674  10.904 -0.9321 -0.3385 -1.0268
11749TIP3    H256739   0.468   5.542  10.908  0.7686  0.6144  0.1209
11750TIP3   OH256740   0.024   4.551   0.140 -0.0137  0.1835 -0.1205
11750TIP3    H156741   0.101   4.543   0.084 -0.7764 -0.1113 -1.1649
11750TIP3    H256742  -0.048   4.563   0.079 -0.4942  3.2000  0.9208
11751TIP3   OH256743   6.129   4.584   5.476 -0.3107 -0.8955  0.0724
11751TIP3    H156744   6.158   4.647   5.411 -2.5747 -1.9563 -2.1167
11751TIP3    H256745   6.196   4.515   5.473 -0.0020 -0.5792 -0.5906
11752TIP3   OH256746   4.858   2.383  14.429 -0.3790 -0.8880 -0.3329
11752TIP3    H156747   4.837   2.473  14.456  0.3628 -0.8337  0.0771
11752TIP3    H256748   4.878   2.338  14.511 -0.7260 -1.4289 -0.5413
11753TIP3   OH256749   3.226   4.666   4.215 -0.3087 -0.2245  0.2282
11753TIP3    H156750   3.197   4.757   4.206  0.8501  0.0615 -0.8711
11753TIP3    H256751   3.312   4.672   4.257 -0.0899 -0.7901 -0.1229
11754TIP3   OH256752   2.559   1.255  13.221 -0.9338 -0.2931  0.5766
11754TIP3    H156753   2.561   1.160  13.219 -0.1020 -0.3108 -1.8930
11754TIP3    H256754   2.648   1.281  13.244 -0.6108 -0.1782 -0.6959
11755TIP3   OH256755   2.364   1.035   0.629 -0.2879  0.0504 -0.3665
11755TIP3    H156756   2.335   1.083   0.552  1.6300 -0.6383 -1.6009
11755TIP3    H256757   2.284   1.005   0.670 -1.3934 -0.3918 -2.6695
11756TIP3   OH256758   1.826   0.577   2.007  0.5442  0.3671  0.2517
11756TIP3    H156759   1.877   0.593   2.087  0.2318 -1.0340  0.7463
11756TIP3    H256760   1.735   0.586   2.035  0.4232 -0.4675  0.1410
11757TIP3   OH256761   1.598   2.081  11.431  0.5510  0.4652  0.0113
11757TIP3    H156762   1.544   2.072  11.352  0.4232  2.1901 -0.1374
11757TIP3    H256763   1.570   2.009  11.488  0.1532 -0.3893 -1.2217
11758TIP3   OH256764   2.516   4.488  15.948 -0.1740 -0.0572  0.4612
11758TIP3    H156765   2.554   4.401  15.955 -0.6261 -0.1371  2.7232
11758TIP3    H256766   2.428   4.474  15.914 -0.4876 -0.5830  1.4579
11759TIP3   OH256767   2.863   1.575  15.987  0.0475 -0.0153  0.6689
11759TIP3    H156768   2.866   1.512  15.915  1.5604  0.2423  0.4720
11759TIP3    H256769   2.870   1.660  15.945 -2.0393  0.3325  0.9310
11760TIP3   OH256770   0.623   0.964  15.925 -0.1874  0.6719 -0.4455
11760TIP3    H156771   0.704   0.914  15.941 -0.5326 -0.0451 -0.8822
11760TIP3    H256772   0.564   0.901  15.885  0.0475  1.9406 -2.9630
11761TIP3   OH256773   3.408   2.274  11.168  0.1039 -0.0952 -0.2062
11761TIP3    H156774   3.366   2.232  11.093  1.8250  0.0847 -1.3465
11761TIP3    H256775   3.460   2.204  11.208  0.4708  0.1895 -0.1773
11762TIP3   OH256776   6.014   5.529  11.971  1.0853  0.6230  0.5068
11762TIP3    H156777   5.975   5.597  12.025  0.3296 -0.3273  1.1713
11762TIP3    H256778   5.994   5.556  11.881  0.8346  1.2871  0.7538
11763TIP3   OH256779   4.098   1.441   1.713  0.0605  0.5116 -0.0656
11763TIP3    H156780   4.113   1.415   1.622  0.6239 -0.5297  0.3046
11763TIP3    H256781   4.177   1.411   1.760  0.0466  1.5430  0.6735
11764TIP3   OH256782   0.277   3.623   1.737 -0.0602 -0.0230 -0.1296
11764TIP3    H156783   0.335   3.599   1.809  0.3935  1.2471 -0.0442
11764TIP3    H256784   0.194   3.580   1.758  1.0607 -2.6582 -0.7457
11765TIP3   OH256785   3.624   0.010  11.486  0.4059 -0.2482 -0.3824
11765TIP3    H156786   3.619  -0.086  11.490  0.1888 -0.2052  1.3422
11765TIP3    H256787   3.535   0.040  11.506  0.6382  0.3125 -0.1583
11766TIP3   OH256788   4.956   4.526   5.247 -0.0582  0.1427 -0.0809
11766TIP3    H156789   4.946   4.484   5.332  1.9198 -0.3086 -0.0065
11766TIP3    H256790   4.884   4.588   5.241 -0.0822  0.3721  2.0335
11767TIP3   OH256791   2.050   2.511   5.230  0.0594  0.3150 -0.1110
11767TIP3    H156792   2.102   2.433   5.210  1.3741  0.6354  1.7928
11767TIP3    H256793   2.004   2.488   5.311 -0.1614  1.2255  0.0248
11768TIP3   OH256794   5.400   2.417   5.009 -0.1258  0.1687 -0.2001
11768TIP3    H156795   5.352   2.476   4.951 -0.6322  0.9426  0.9794
11768TIP3    H256796   5.368   2.437   5.097  0.6769 -0.9286  0.3749
11769TIP3   OH256797   0.268   0.737  10.641 -0.0410 -0.4876  0.0708
11769TIP3    H156798   0.334   0.669  10.656  0.0262 -0.1122  1.5640
11769TIP3    H256799   0.186   0.698  10.671 -0.7509 -1.2781 -2.5518
11770TIP3   OH256800   2.232   3.414   5.105  0.3608  0.2580  0.8202
11770TIP3    H156801   2.173   3.479   5.066  0.6734 -0.3754 -0.8121
11770TIP3    H256802   2.294   3.465   5.156  0.0558  1.1778  0.2928
11771TIP3   OH256803   5.124   0.949  15.180  0.1504 -0.0064 -0.2527
11771TIP3    H156804   5.195   0.984  15.233 -0.1030  2.6527 -1.5279
11771TIP3    H256805   5.163   0.872  15.137  1.4611 -0.0480  0.9225
11772TIP3   OH256806   2.561   5.774   6.626 -0.5141 -1.0213  0.1110
11772TIP3    H156807   2.617   5.700   6.652 -1.2742 -1.6384  0.0311
11772TIP3    H256808   2.608   5.814   6.553  0.5793 -0.5779  1.0229
11773TIP3   OH256809   5.860   5.743   0.502 -0.0176  0.0289  0.3820
11773TIP3    H156810   5.865   5.838   0.515 -1.1157  0.0898  0.5039
11773TIP3    H256811   5.950   5.715   0.487  0.6206  0.8028  2.4122
11774TIP3   OH256812   0.187   6.625   2.075 -0.8277 -0.2369  0.6210
11774TIP3    H156813   0.144   6.614   1.990  1.3564  0.3291 -0.6513
11774TIP3    H256814   0.176   6.717   2.096 -1.0393 -0.2932  0.7556
11775TIP3   OH256815   0.746   1.990  15.400 -0.6044 -0.3517  0.2381
11775TIP3    H156816   0.702   1.917  15.355 -1.1434 -0.4186  0.8520
11775TIP3    H256817   0.838   1.979  15.379 -0.3267 -2.6000  2.1931
11776TIP3   OH256818   3.867   4.260  14.279  0.0576 -0.7526 -0.1319
11776TIP3    H156819   3.930   4.200  14.239  0.7386  1.1277 -2.0757
11776TIP3    H256820   3.838   4.316  14.207 -2.9442 -0.7194  0.9460
11777TIP3   OH256821   6.577   2.925  14.047  0.3231 -0.4442 -0.1329
11777TIP3    H156822   6.549   2.871  13.973  1.1827 -0.3203 -0.5616
11777TIP3    H256823   6.525   2.893  14.121  0.1444 -1.2204 -0.5837
11778TIP3   OH256824   6.060   0.721   0.680  0.4055 -0.1780  0.4226
11778TIP3    H156825   6.086   0.643   0.728 -0.0098 -0.7794 -0.3054
11778TIP3    H256826   5.964   0.719   0.681  0.3909  0.2950  0.3432
11779TIP3   OH256827   3.849   1.244  14.252 -0.2812 -0.4063 -0.0475
11779TIP3    H156828   3.852   1.253  14.157 -0.0259  1.0329  0.0745
11779TIP3    H256829   3.795   1.166  14.267  0.5692 -1.2972 -1.3762
11780TIP3   OH256830   4.626   6.171   5.494  0.2458  0.0333 -0.3899
11780TIP3    H156831   4.546   6.216   5.518 -0.3668 -1.9818  1.7699
11780TIP3    H256832   4.678   6.168   5.575  2.0733  0.4125 -1.4801
11781TIP3   OH256833   3.426   5.347  12.120 -0.0393 -0.3622  0.1182
11781TIP3    H156834   3.470   5.362  12.036  0.2217 -0.3093  0.2635
11781TIP3    H256835   3.483   5.388  12.185  0.0898 -0.9777  0.3933
11782TIP3   OH256836   4.226   6.037   3.617  0.1505  0.0368  0.1357
11782TIP3    H156837   4.210   6.126   3.584  0.1730 -0.3072 -0.8402
11782TIP3    H256838   4.318   6.037   3.641  0.4478 -0.0595 -0.9743
11783TIP3   OH256839   3.292   3.099  11.476  0.0642  0.0504 -0.5702
11783TIP3    H156840   3.250   3.179  11.446 -0.1954 -0.1907 -0.8611
11783TIP3    H256841   3.238   3.070  11.550  0.4887  0.4456 -0.0995
11784TIP3   OH256842   2.053   1.089   6.428 -0.5692  0.3248  0.3429
11784TIP3    H156843   2.098   1.142   6.495 -2.2362 -0.3445  2.0844
11784TIP3    H256844   1.988   1.039   6.477 -2.3662  0.3185 -1.8957
11785TIP3   OH256845   6.655   4.179   4.909  0.0572  0.6368  0.0954
11785TIP3    H156846   6.616   4.113   4.966  0.8819 -0.8111 -0.9433
11785TIP3    H256847   6.606   4.259   4.927 -1.4212 -0.4156  0.9211
11786TIP3   OH256848   4.973   2.563  15.215  0.0313 -0.4789 -0.1218
11786TIP3    H156849   4.998   2.635  15.156  1.1601  1.6836  2.7251
11786TIP3    H256850   4.890   2.592  15.253 -0.9331 -2.0673 -0.9431
11787TIP3   OH256851   5.080   2.521   1.170  0.1548 -0.0172 -0.2132
11787TIP3    H156852   5.011   2.475   1.122  0.1278  0.0446 -0.2334
11787TIP3    H256853   5.151   2.458   1.176 -0.0189 -0.1866  0.0727
11788TIP3   OH256854   1.712   1.896   2.859  0.2429 -0.0207  0.1543
11788TIP3    H156855   1.680   1.807   2.870  3.3354 -1.5422 -1.8938
11788TIP3    H256856   1.683   1.922   2.771  0.4850  0.4772  0.2149
11789TIP3   OH256857   5.266   1.120  16.651 -0.1559 -0.2984  0.2310
11789TIP3    H156858   5.332   1.185  16.628 -0.7163  0.1793 -0.0521
11789TIP3    H256859   5.300   1.038  16.614  1.0058 -0.3693  1.3973
11790TIP3   OH256860   1.923   0.721  15.730  0.0512 -0.2588  0.1583
11790TIP3    H156861   1.936   0.656  15.798 -1.5317 -1.3978 -0.5470
11790TIP3    H256862   1.832   0.749  15.741  0.4725  1.2701 -0.0456
11791TIP3   OH256863   3.979   4.209   5.715  0.5236 -0.4102  0.4511
11791TIP3    H156864   3.972   4.166   5.630  2.3208 -0.7870  0.4451
11791TIP3    H256865   4.030   4.148   5.769 -0.4295 -0.0938  1.7472
11792TIP3   OH256866   1.589   0.682  14.260  0.6945  0.1079  0.2470
11792TIP3    H156867   1.501   0.648  14.272  1.1180 -0.8608  0.6935
11792TIP3    H256868   1.641   0.638  14.327  1.4298  1.0074  0.2787
11793TIP3   OH256869   2.025   4.493   3.307  0.2287 -0.1188 -0.1738
11793TIP3    H156870   2.072   4.409   3.305  0.0880 -0.1994 -0.0789
11793TIP3    H256871   1.966   4.486   3.383  0.1909  0.0517 -0.1872
11794TIP3   OH256872   6.330   0.357   2.089  0.2805  0.0376  0.3169
11794TIP3    H156873   6.314   0.347   2.183  0.3979 -0.7335  0.2629
11794TIP3    H256874   6.423   0.336   2.078  0.3508  0.4702  0.0774
11795TIP3   OH256875   3.200   6.715  15.529 -0.2974  0.0918 -0.4373
11795TIP3    H156876   3.157   6.630  15.523  1.1980 -0.8146  1.1061
11795TIP3    H256877   3.175   6.749  15.615 -0.7739  1.1901 -0.9803
11796TIP3   OH256878   6.302   0.306   2.640 -0.2717  0.0446 -0.4841
11796TIP3    H156879   6.226   0.337   2.690 -0.4366 -0.6786 -0.2862
11796TIP3    H256880   6.335   0.232   2.690  0.0285 -0.2085 -1.0528
11797TIP3   OH256881   5.129   6.425  15.835  0.2741  0.4145 -0.1790
11797TIP3    H156882   5.115   6.450  15.744  1.0698 -0.5986 -0.6087
11797TIP3    H256883   5.110   6.331  15.837  1.6105  0.1333  0.3766
11798TIP3   OH256884   0.935   5.190  16.581  0.5107 -0.4498 -0.5767
11798TIP3    H156885   0.895   5.219  16.499 -1.2046 -1.0022  0.0187
11798TIP3    H256886   0.917   5.261  16.643  1.1304 -0.3766 -0.4702
11799TIP3   OH256887   1.764   6.031   0.787  0.0157 -1.1692 -0.3653
11799TIP3    H156888   1.759   6.107   0.845  0.6519 -0.5150 -1.1673
11799TIP3    H256889   1.779   5.957   0.847  2.9951 -0.2300  0.1809
11800TIP3   OH256890   1.995   2.539   0.827  0.1039 -0.1328  0.0752
11800TIP3    H156891   2.045   2.514   0.905  1.0932 -0.5997 -0.6889
11800TIP3    H256892   2.052   2.599   0.780 -1.2926  1.7581  0.6728
11801TIP3   OH256893   5.105   6.158  16.392 -0.0519 -0.3899 -0.1774
11801TIP3    H156894   5.175   6.191  16.335 -0.5052 -1.8285 -1.6391
11801TIP3    H256895   5.073   6.079  16.348 -1.3213 -0.8335  1.4315
11802TIP3   OH256896   6.574   4.432   1.977  0.3025 -0.0565 -0.0437
11802TIP3    H156897   6.519   4.360   1.946  0.4078  0.0471 -0.4677
11802TIP3    H256898   6.661   4.413   1.943  0.2433  0.4878 -0.5072
11803TIP3   OH256899   4.147   1.659   5.697  0.4931  0.3289 -0.2028
11803TIP3    H156900   4.238   1.682   5.680  0.8117 -0.9040 -0.2860
11803TIP3    H256901   4.096   1.719   5.642  1.1968  1.7045  0.6113
11804TIP3   OH256902   0.799   3.998  13.259  0.4610  0.3502  0.0332
11804TIP3    H156903   0.839   3.970  13.341  0.0771  1.0054  0.4566
11804TIP3    H256904   0.779   3.917  13.212  1.0172 -0.0141  0.4255
11805TIP3   OH256905   3.728   2.688   5.198  0.2819 -0.0564 -0.0935
11805TIP3    H156906   3.717   2.739   5.117 -0.5176 -0.5352 -0.2971
11805TIP3    H256907   3.649   2.634   5.203 -0.2512  0.8228  1.6269
11806TIP3   OH256908   5.739   3.009   2.678  0.5610 -0.2402 -0.4114
11806TIP3    H156909   5.752   2.953   2.601  0.6153 -0.9114  0.0796
11806TIP3    H256910   5.718   3.095   2.641  0.0092 -0.6865 -1.1802
11807TIP3   OH256911   4.069   3.489  14.785 -0.3057 -0.1167 -0.2581
11807TIP3    H156912   4.122   3.569  14.789  0.8189 -0.8619  0.2844
11807TIP3    H256913   4.015   3.492  14.864  0.4498 -0.3520  0.2828
11808TIP3   OH256914   0.306   2.731   5.022 -0.1153  0.1358  0.3023
11808TIP3    H156915   0.233   2.750   5.081 -0.1658  0.1939  0.2210
11808TIP3    H256916   0.384   2.754   5.072 -0.2180  1.6461 -0.1917
11809TIP3   OH256917   2.510   0.311   5.231  0.2776  0.5712  0.3555
11809TIP3    H156918   2.431   0.317   5.177 -0.4246 -2.5090  0.8813
11809TIP3    H256919   2.489   0.360   5.311 -1.0004  0.0331  0.3654
11810TIP3   OH256920   3.200   1.621  13.942  0.2428  0.2273  0.2011
11810TIP3    H156921   3.133   1.554  13.953 -0.9298  1.0359 -1.4490
11810TIP3    H256922   3.185   1.682  14.014 -0.1552 -0.1112  0.4103
11811TIP3   OH256923   6.058   0.535  17.036 -0.3782 -0.3036 -0.6869
11811TIP3    H156924   6.105   0.610  17.000  1.8906 -0.1942  2.1854
11811TIP3    H256925   5.969   0.568  17.051  0.4195  1.6936 -0.0022
11812TIP3   OH256926   1.577   2.233   4.226  0.2664 -0.7782 -0.1219
11812TIP3    H156927   1.503   2.244   4.167  0.5725 -0.2916 -0.4189
11812TIP3    H256928   1.588   2.319   4.267 -0.4514 -1.3166  1.2544
11813TIP3   OH256929   3.443   2.120  12.675  0.1100 -0.3359  0.6189
11813TIP3    H156930   3.383   2.094  12.745 -0.6942 -0.6189 -0.1579
11813TIP3    H256931   3.449   2.042  12.618  1.6686 -0.5203  0.9757
11814TIP3   OH256932   6.245   2.464   0.489 -0.2144  0.0769  0.2560
11814TIP3    H156933   6.287   2.479   0.405 -0.9051  0.2167 -0.0684
11814TIP3    H256934   6.285   2.529   0.548 -2.0666  2.2756 -0.7574
11815TIP3   OH256935   4.633   5.284   2.533 -0.3064 -0.5160 -0.1764
11815TIP3    H156936   4.673   5.211   2.580 -1.7596 -2.5673 -1.9309
11815TIP3    H256937   4.541   5.284   2.560 -0.4141  0.4667 -0.4807
11816TIP3   OH256938   1.345   5.285   0.229 -0.4027 -0.2598  0.4742
11816TIP3    H156939   1.424   5.317   0.185  0.1324 -0.4108  1.2875
11816TIP3    H256940   1.369   5.197   0.259 -0.3027  0.2918  2.1253
11817TIP3   OH256941   3.932   2.263   2.951 -0.0766 -0.0190  0.2698
11817TIP3    H156942   3.960   2.294   2.865  1.5229 -0.4464  0.6130
11817TIP3    H256943   3.851   2.311   2.969  0.2948  1.0792 -0.8697
11818TIP3   OH256944   2.272   6.567   3.676 -0.3183 -0.7425  0.3757
11818TIP3    H156945   2.353   6.516   3.677  1.0568  1.2939 -0.7634
11818TIP3    H256946   2.243   6.568   3.767  0.1512 -2.6313  0.5918
11819TIP3   OH256947   3.015   2.989   0.889  0.0787  0.0262  0.1634
11819TIP3    H156948   3.057   3.059   0.838 -0.4512 -0.1881 -0.5841
11819TIP3    H256949   3.065   2.910   0.866 -0.3305 -0.1183 -0.2459
11820TIP3   OH256950   3.582   4.946   6.227  0.9419  0.0257 -0.3199
11820TIP3    H156951   3.601   4.939   6.321  3.4156 -0.8210 -0.8051
11820TIP3    H256952   3.587   5.040   6.209 -2.1383  0.5078  0.7870
11821TIP3   OH256953   1.976   5.067  14.366  0.0713 -0.0849 -0.3584
11821TIP3    H156954   1.939   5.003  14.306 -0.4416  0.3497 -0.5124
11821TIP3    H256955   1.901   5.121  14.392  0.2055 -0.5140  0.9859
11822TIP3   OH256956   2.660   1.775   1.796  0.1193  0.1732  0.1004
11822TIP3    H156957   2.623   1.763   1.883 -0.0257  0.9506  0.1522
11822TIP3    H256958   2.706   1.692   1.777  0.1184 -0.0115  0.8901
11823TIP3   OH256959   2.324   3.156   3.536  0.1395  0.2779 -0.0383
11823TIP3    H156960   2.315   3.161   3.441  1.7172  0.3768 -0.2079
11823TIP3    H256961   2.414   3.127   3.551 -0.0534  0.3290  1.4308
11824TIP3   OH256962   6.635   4.467   2.566  0.9389  0.0405 -0.4939
11824TIP3    H156963   6.605   4.457   2.475 -0.6272 -0.4348  0.0374
11824TIP3    H256964   6.653   4.560   2.576 -3.2311  0.9779 -0.0899
11825TIP3   OH256965   3.834   2.515  12.897  0.3722  0.4506 -0.1697
11825TIP3    H156966   3.839   2.571  12.820  1.0257 -1.4281 -1.5567
11825TIP3    H256967   3.808   2.574  12.968 -1.0035  2.0994 -1.9518
11826TIP3   OH256968   5.194   4.040   2.054  0.1643  0.6930 -0.2410
11826TIP3    H156969   5.244   4.068   2.131 -1.5588 -0.3401  1.3450
11826TIP3    H256970   5.121   4.102   2.050 -0.3453  0.0897 -0.3738
11827TIP3   OH256971   0.296   4.211   3.755  0.4840  0.0433  0.3655
11827TIP3    H156972   0.239   4.227   3.831  1.6506 -0.2306  1.3223
11827TIP3    H256973   0.349   4.290   3.747 -0.0808  0.3463 -0.6036
11828TIP3   OH256974   5.376   1.074  13.242  0.4473  0.5898 -0.1500
11828TIP3    H156975   5.366   1.119  13.325 -0.2008 -2.0115  1.2827
11828TIP3    H256976   5.467   1.043  13.242 -0.1819 -1.4498  0.7898
11829TIP3   OH256977   1.224   1.062  15.556  0.2848 -0.3237 -0.0067
11829TIP3    H156978   1.215   0.993  15.622  0.6720 -1.5436 -1.1644
11829TIP3    H256979   1.134   1.087  15.535 -0.0179 -2.3175 -1.3618
11830TIP3   OH256980   5.064   0.656  13.935  0.0101 -0.4040 -0.7418
11830TIP3    H156981   5.117   0.602  13.994 -1.5061 -0.4996  0.6087
11830TIP3    H256982   5.118   0.666  13.857  0.9153 -2.7378 -0.5059
11831TIP3   OH256983   3.634   0.352  12.670 -0.1990 -0.2605  0.2202
11831TIP3    H156984   3.637   0.266  12.628  0.4555  0.3494 -1.0449
11831TIP3    H256985   3.663   0.413  12.602  1.6019  0.7096  1.7733
11832TIP3   OH256986   0.049   0.733   2.922 -0.0428 -0.5859 -0.6177
11832TIP3    H156987   0.122   0.671   2.932 -1.2671 -1.8553  1.3240
11832TIP3    H256988   0.008   0.708   2.840 -0.3828 -2.2852  0.0265
11833TIP3   OH256989   5.518   2.104  14.982  0.1624 -0.0243 -0.2447
11833TIP3    H156990   5.564   2.177  14.941  0.4600 -0.6007 -0.9690
11833TIP3    H256991   5.585   2.060  15.035  0.4883 -0.8827 -1.3255
11834TIP3   OH256992   0.721   5.330   2.330 -0.2803  0.2760  0.3969
11834TIP3    H156993   0.770   5.383   2.268  1.8450  0.3407  2.0337
11834TIP3    H256994   0.645   5.384   2.353 -1.1243  0.2427 -2.0702
11835TIP3   OH256995   1.881   1.176  14.035  0.8863 -0.4650 -0.2768
11835TIP3    H156996   1.919   1.253  14.077  0.0984 -0.4341  0.4001
11835TIP3    H256997   1.929   1.102  14.074 -0.6013 -0.5228  1.6163
11836TIP3   OH256998   5.473   4.959   4.370  0.0791  0.1301 -0.0228
11836TIP3    H156999   5.467   5.054   4.370 -0.5791  0.0958  0.6178
11836TIP3    H257000   5.567   4.941   4.377  0.1028  0.7697  3.3525
11837TIP3   OH257001   3.631   1.039  11.976 -0.2070  0.5902  0.1160
11837TIP3    H157002   3.637   0.945  11.992 -1.0281  0.9188  2.8295
11837TIP3    H257003   3.715   1.074  12.006 -1.2730  1.0666  2.8393
11838TIP3   OH257004   1.720   2.261  15.745 -0.1073 -0.4544  0.0182
11838TIP3    H157005   1.745   2.222  15.829  0.2279  0.9557  0.6113
11838TIP3    H257006   1.735   2.192  15.681  1.5211 -0.9404  0.8663
11839TIP3   OH257007   5.323   5.874   0.148 -0.5362  0.4415  0.0359
11839TIP3    H157008   5.260   5.805   0.169 -1.7337  1.1488 -1.0898
11839TIP3    H257009   5.366   5.843   0.068 -1.2688  1.1167 -0.6233
11840TIP3   OH257010   3.473   4.398  14.860  0.6049 -0.2330  0.1204
11840TIP3    H157011   3.553   4.409  14.911 -0.1349  1.5313  0.9698
11840TIP3    H257012   3.459   4.483  14.818 -3.4255  1.3502  3.9547
11841TIP3   OH257013   4.096   1.734   4.695 -0.6860  0.3721  0.2160
11841TIP3    H157014   4.019   1.724   4.640  0.3471  0.4763 -1.3048
11841TIP3    H257015   4.061   1.758   4.781 -2.4300 -1.7087  0.1512
11842TIP3   OH257016   4.736   5.070   0.826  0.0077  0.0610  0.5115
11842TIP3    H157017   4.820   5.060   0.782  0.7188 -1.1491  2.0494
11842TIP3    H257018   4.707   5.158   0.803  0.6237 -0.2749 -1.8089
11843TIP3   OH257019   3.976   3.125  16.039  0.5165  0.7618  0.6025
11843TIP3    H157020   3.937   3.085  15.961  0.6157 -0.3373  1.1038
11843TIP3    H257021   3.961   3.061  16.109  2.6335  0.6002  0.9643
11844TIP3   OH257022   5.892   0.836   3.807  0.1063  0.3279  0.4370
11844TIP3    H157023   5.846   0.761   3.844  1.6446 -1.1766 -0.5446
11844TIP3    H257024   5.854   0.912   3.852 -0.9675 -1.0715  2.0307
11845TIP3   OH257025   4.103   3.117   4.361  0.4965 -0.0933  0.1769
11845TIP3    H157026   4.197   3.101   4.368  0.1869 -2.5675 -0.4009
11845TIP3    H257027   4.065   3.078   4.439 -0.2699 -1.6750 -0.9349
11846TIP3   OH257028   2.699   4.205   6.854 -0.2973 -0.4058  0.2243
11846TIP3    H157029   2.705   4.258   6.774 -0.1856  1.0202  1.1498
11846TIP3    H257030   2.605   4.194   6.868 -0.3373  0.0737  0.3545
11847TIP3   OH257031   2.346   1.351  15.673  0.3617  0.2363 -0.6331
11847TIP3    H157032   2.344   1.266  15.628  0.3725 -0.3788  0.4901
11847TIP3    H257033   2.351   1.415  15.602 -0.1806 -0.6704 -1.5255
11848TIP3   OH257034   3.301   3.671  15.614  0.0845  0.3175 -0.2844
11848TIP3    H157035   3.300   3.579  15.586 -0.3566  0.5567 -1.0870
11848TIP3    H257036   3.343   3.669  15.700 -0.1644 -0.6664 -0.1719
11849TIP3   OH257037   3.975   2.929   4.639 -0.4641  0.1117 -0.0146
11849TIP3    H157038   3.942   2.849   4.680  1.5313  0.9024  3.6588
11849TIP3    H257039   4.065   2.907   4.613 -0.0457  0.9692  0.6422
11850TIP3   OH257040   6.012   5.839  13.022 -0.5386 -0.5856  0.3721
11850TIP3    H157041   5.970   5.801  13.099  1.2450  0.6723  2.0560
11850TIP3    H257042   5.939   5.870  12.968 -1.9135  2.3505  3.5815
11851TIP3   OH257043   5.466   5.874  13.962  0.6131  0.3152  0.6312
11851TIP3    H157044   5.530   5.879  14.033  0.0139 -0.1175  1.2039
11851TIP3    H257045   5.488   5.948  13.905  0.4070  1.3437  1.8525
11852TIP3   OH257046   3.249   6.002   5.565  0.1221  0.4170 -0.2266
11852TIP3    H157047   3.218   5.915   5.543 -0.8040  0.4140  0.9293
11852TIP3    H257048   3.173   6.059   5.552  0.0193  0.6622  1.1917
11853TIP3   OH257049   0.203   6.136   3.997 -0.0108  0.4116  0.2749
11853TIP3    H157050   0.188   6.210   3.938 -0.7874 -0.2447 -0.3726
11853TIP3    H257051   0.235   6.066   3.940 -1.2708 -0.3950  0.5289
11854TIP3   OH257052   0.022   6.364  14.150 -0.3304 -0.1251 -0.2654
11854TIP3    H157053   0.065   6.359  14.235  0.4259 -0.4747 -0.6622
11854TIP3    H257054  -0.048   6.429  14.163 -0.6274 -0.6325  0.7812
11855TIP3   OH257055   6.345   0.390   2.392  0.9717  0.4570  0.1349
11855TIP3    H157056   6.319   0.379   2.483  0.4137 -2.9024 -0.2923
11855TIP3    H257057   6.393   0.310   2.371  3.5248  2.3114 -1.8209
11856TIP3   OH257058   6.653   0.385  12.893  0.5747 -0.1082  0.4275
11856TIP3    H157059   6.679   0.353  12.979 -1.7729 -0.6739  1.0057
11856TIP3    H257060   6.613   0.470  12.910 -0.2427 -0.3885 -0.0360
11857TIP3   OH257061   5.165   6.424  14.566 -0.0205  0.0264 -0.0329
11857TIP3    H157062   5.122   6.351  14.610  1.0418  0.1620  1.3080
11857TIP3    H257063   5.166   6.399  14.474 -0.8787 -1.0277  0.2273
11858TIP3   OH257064   1.150   0.202   1.880  0.7112 -0.6140 -0.3531
11858TIP3    H157065   1.113   0.281   1.918  1.6313 -0.1042 -0.4879
11858TIP3    H257066   1.096   0.185   1.803  0.9874  0.3551 -0.7809
11859TIP3   OH257067   0.093   6.595  16.372 -0.5189  0.1675  0.2550
11859TIP3    H157068   0.104   6.671  16.429 -0.0971 -0.1581  0.6124
11859TIP3    H257069   0.013   6.614  16.322  0.3845  1.5342 -0.7409
11860TIP3   OH257070   5.553   6.764  13.520 -0.3544  0.1819  0.0199
11860TIP3    H157071   5.635   6.718  13.536 -0.0782  0.1472 -1.3732
11860TIP3    H257072   5.573   6.826  13.450 -1.4848  0.2447 -0.2691
11861TIP3   OH257073   0.958   2.050  14.541 -0.2377  0.6028  0.7250
11861TIP3    H157074   0.882   2.087  14.585 -2.0073  0.1322 -1.7187
11861TIP3    H257075   0.960   1.958  14.569 -1.0836  0.4113  0.1680
11862TIP3   OH257076   4.930   2.690   6.303 -0.0387  0.1375 -0.0386
11862TIP3    H157077   5.006   2.717   6.354 -1.2836  1.5098  1.2241
11862TIP3    H257078   4.856   2.731   6.348 -1.4486 -0.4991 -1.6621
11863TIP3   OH257079   3.411   4.898  12.837  0.4995  0.5031 -0.2582
11863TIP3    H157080   3.352   4.823  12.844  1.4933 -0.1517  1.5668
11863TIP3    H257081   3.352   4.974  12.833 -0.4922 -0.2317  0.1028
11864TIP3   OH257082   6.467   6.634   5.122  0.2145 -0.1349  0.4860
11864TIP3    H157083   6.449   6.559   5.066  1.0811 -1.4788  1.9386
11864TIP3    H257084   6.383   6.654   5.164 -0.1600  0.1363 -0.3664
11865TIP3   OH257085   2.258   6.427   4.991 -0.6342 -0.4741 -0.0760
11865TIP3    H157086   2.190   6.361   4.999 -2.7896  1.2799 -2.3812
11865TIP3    H257087   2.296   6.412   4.905  0.4552 -0.0726  0.3093
11866TIP3   OH257088   5.848   4.735  12.406  0.0790 -0.5218  0.0397
11866TIP3    H157089   5.780   4.683  12.363 -0.8351  0.6490  0.0236
11866TIP3    H257090   5.895   4.777  12.335  0.2929 -0.6807  0.0861
11867TIP3   OH257091   5.331   3.220  16.280  0.0094 -0.0674 -0.4483
11867TIP3    H157092   5.376   3.286  16.226  0.9739  0.4954  0.9973
11867TIP3    H257093   5.387   3.143  16.276 -0.0321 -0.0998 -0.4121
11868TIP3   OH257094   2.810   5.744   3.923 -0.0809 -0.5191  0.4859
11868TIP3    H157095   2.735   5.803   3.915  1.1368  0.9357 -0.7368
11868TIP3    H257096   2.810   5.694   3.842  1.4641  1.0091 -0.5115
11869TIP3   OH257097   4.231   0.520  15.762 -0.0394  0.8124 -0.2552
11869TIP3    H157098   4.281   0.576  15.704  1.0412 -0.4914 -0.6215
11869TIP3    H257099   4.218   0.439  15.712  2.3137 -0.9891  1.7895
11870TIP3   OH257100   3.361   0.716  12.940  0.0144 -0.2955 -1.0785
11870TIP3    H157101   3.283   0.710  12.995  0.2907  1.6444 -0.4077
11870TIP3    H257102   3.333   0.682  12.855 -0.8877 -1.7406 -0.2487
11871TIP3   OH257103   1.282   0.316   3.980 -0.4080 -0.0437  0.0408
11871TIP3    H157104   1.289   0.270   3.896  0.2751 -0.4642  0.3197
11871TIP3    H257105   1.231   0.257   4.036  0.2411 -0.3455  0.3174
11872TIP3   OH257106   6.768   3.231   3.465 -0.3833  0.4050  0.5365
11872TIP3    H157107   6.751   3.239   3.371 -0.4229 -1.1649  0.3704
11872TIP3    H257108   6.780   3.320   3.496  0.7425  0.8961 -1.1760
11873TIP3   OH257109   3.134   6.789  15.795  0.4538  0.0008 -0.6227
11873TIP3    H157110   3.088   6.852  15.849 -2.7467 -1.5432 -1.3105
11873TIP3    H257111   3.196   6.746  15.855  0.3226  1.4656  0.6180
11874TIP3   OH257112   3.267   6.531   6.712  1.0186 -0.7992 -0.0325
11874TIP3    H157113   3.272   6.616   6.757 -0.2399  0.2588 -1.7455
11874TIP3    H257114   3.358   6.504   6.701  1.4256  0.0306  1.0534
11875TIP3   OH257115   2.571   3.298  16.170 -0.4866  0.0930  0.3912
11875TIP3    H157116   2.639   3.232  16.159  0.5975  0.7554  2.5477
11875TIP3    H257117   2.501   3.253  16.216  0.3529  0.4213  2.0844
11876TIP3   OH257118   5.265   4.726   6.217  0.5522 -0.4839  0.4599
11876TIP3    H157119   5.177   4.722   6.180  1.4235 -0.5598 -1.7553
11876TIP3    H257120   5.254   4.697   6.308 -1.9864  1.4160  0.8730
11877TIP3   OH257121   4.691   2.114   3.800  0.3277 -0.0091  0.2467
11877TIP3    H157122   4.671   2.085   3.711 -1.7401 -1.2953  1.0576
11877TIP3    H257123   4.621   2.175   3.822  1.4666  1.2219  0.6154
11878TIP3   OH257124   4.642   0.555   2.703  0.3126  0.9351  0.4464
11878TIP3    H157125   4.637   0.651   2.706  0.7025  0.9444  0.9654
11878TIP3    H257126   4.644   0.534   2.610  0.4293  1.4465  0.3317
11879TIP3   OH257127   2.325   6.477  13.113 -0.0095 -0.4489 -0.3410
11879TIP3    H157128   2.257   6.521  13.165  0.8077 -1.1964  1.4297
11879TIP3    H257129   2.407   6.518  13.142  0.3835  0.1787 -2.1824
11880TIP3   OH257130   2.281   2.458  13.988 -0.3362 -0.4024 -0.1080
11880TIP3    H157131   2.245   2.474  14.075  0.2786 -0.8078  0.2250
11880TIP3    H257132   2.357   2.516  13.983 -0.5968 -0.0918 -0.5267
11881TIP3   OH257133   1.818   4.726   3.319  0.3988 -0.6018  0.3174
11881TIP3    H157134   1.858   4.803   3.358 -2.9486  1.1567  0.6179
11881TIP3    H257135   1.829   4.657   3.385  0.9087  0.4229  1.3275
11882TIP3   OH257136   0.449   4.922  15.330 -0.0097  0.3304 -0.2271
11882TIP3    H157137   0.386   4.856  15.359 -1.7753  1.7760 -0.5548
11882TIP3    H257138   0.441   4.993  15.394  2.5399 -0.0829  0.6689
11883TIP3   OH257139   4.705   6.631   1.967  0.6352 -0.4532 -0.1368
11883TIP3    H157140   4.695   6.536   1.970  1.4101 -0.5529  2.8163
11883TIP3    H257141   4.754   6.648   1.887  2.1693 -2.7722  0.2162
11884TIP3   OH257142   0.789   3.899   6.328  0.0726 -0.3171 -0.0502
11884TIP3    H157143   0.816   3.863   6.413  1.8043 -0.7392 -0.7243
11884TIP3    H257144   0.694   3.890   6.327  0.0693 -0.8454  1.5975
11885TIP3   OH257145   0.662   1.933   2.808  0.1711  0.7031  0.3311
11885TIP3    H157146   0.670   1.973   2.721 -1.1407  1.0520  0.3508
11885TIP3    H257147   0.623   1.847   2.790  0.6693  0.4424  0.5037
11886TIP3   OH257148   1.804   3.024   5.243  0.2775 -0.5929 -0.5604
11886TIP3    H157149   1.751   3.027   5.322 -1.2935  0.0844 -1.6034
11886TIP3    H257150   1.826   2.931   5.233  2.3793 -0.4554  1.8125
11887TIP3   OH257151   2.430   4.664   0.784  0.6917 -0.0288 -0.1062
11887TIP3    H157152   2.360   4.698   0.840  1.1074  0.0754  0.3592
11887TIP3    H257153   2.476   4.600   0.839 -0.7422 -2.2318 -1.2937
11888TIP3   OH257154   4.018   5.534   5.578 -0.4544  0.6948 -0.2659
11888TIP3    H157155   3.954   5.510   5.645  0.4177  1.1172  0.7588
11888TIP3    H257156   4.025   5.630   5.585 -0.0122  0.6942 -0.6449
11889TIP3   OH257157   5.937   1.747   1.706  0.0894 -0.2507  0.1049
11889TIP3    H157158   5.952   1.652   1.702 -0.2365 -0.3054  0.1377
11889TIP3    H257159   6.006   1.784   1.651 -1.3747 -0.6638 -2.1566
11890TIP3   OH257160   4.693   0.118   4.228 -0.4185 -0.2021  0.2345
11890TIP3    H157161   4.750   0.185   4.266 -0.4915  0.3573 -0.6177
11890TIP3    H257162   4.607   0.160   4.222 -0.3428 -0.1828 -0.8013
11891TIP3   OH257163   4.063   6.008  11.086 -0.2453 -0.1504 -0.2543
11891TIP3    H157164   4.020   5.960  11.015 -1.5161  0.3558  0.1479
11891TIP3    H257165   3.991   6.047  11.135  0.5739 -0.9994  1.7012
11892TIP3   OH257166   6.619   1.350  11.929  0.8463  0.7021  0.7789
11892TIP3    H157167   6.557   1.405  11.976  0.6558  1.2702 -0.1267
11892TIP3    H257168   6.700   1.401  11.927  1.1762  0.2296  1.3996
11893TIP3   OH257169   2.006   3.841   3.437 -0.0954  0.5556  0.1518
11893TIP3    H157170   1.981   3.827   3.345 -0.9272  0.5889  0.3621
11893TIP3    H257171   2.032   3.754   3.468 -1.6505  0.1488  0.4047
11894TIP3   OH257172   4.416   1.774  13.445 -0.1493  0.1623  0.5248
11894TIP3    H157173   4.386   1.736  13.362  1.1264 -0.8642  0.5122
11894TIP3    H257174   4.490   1.720  13.471  0.4069  1.3884  1.5854
11895TIP3   OH257175   5.440   4.807  10.234  0.4586 -0.1071  0.1991
11895TIP3    H157176   5.355   4.786  10.195  0.8086 -2.9463  0.7531
11895TIP3    H257177   5.419   4.836  10.323  0.0603 -0.8633  0.3587
11896TIP3   OH257178   4.523   5.621  12.322 -0.2369  0.1377 -0.0460
11896TIP3    H157179   4.471   5.701  12.329  1.0546  1.0785 -0.7674
11896TIP3    H257180   4.570   5.616  12.405  0.1200  0.4456 -0.2290
11897TIP3   OH257181   5.399   0.322   5.083  0.2234  0.2371  1.0722
11897TIP3    H157182   5.327   0.383   5.068  0.0618  0.1559  1.4911
11897TIP3    H257183   5.433   0.303   4.996 -0.7843 -0.3559  0.7889
11898TIP3   OH257184   5.207   0.157  17.068  0.1670 -0.0152 -0.3138
11898TIP3    H157185   5.214   0.082  17.008  0.6065 -0.4533  0.2648
11898TIP3    H257186   5.198   0.117  17.155  0.2346  0.6106 -0.0129
11899TIP3   OH257187   3.167   4.088   2.184  0.0180  0.5873 -0.3775
11899TIP3    H157188   3.224   4.099   2.260  0.1693  0.3083 -0.4494
11899TIP3    H257189   3.223   4.049   2.118  0.2663  2.1100 -1.1136
11900TIP3   OH257190   5.899   1.417  14.812  0.2893  0.1786 -0.7114
11900TIP3    H157191   5.959   1.353  14.774 -0.9416 -1.2425 -0.3827
11900TIP3    H257192   5.938   1.440  14.896  0.8453  0.0317 -0.9232
11901TIP3   OH257193   1.569   3.239  16.992 -0.0608 -0.0069 -0.3373
11901TIP3    H157194   1.535   3.170  16.935 -1.8294 -1.4305  2.2158
11901TIP3    H257195   1.665   3.231  16.985 -0.1943 -2.8243 -0.1280
11902TIP3   OH257196   3.647   5.310   0.348  0.4168  0.2023  0.2774
11902TIP3    H157197   3.585   5.243   0.375 -0.4172 -0.0371 -1.9777
11902TIP3    H257198   3.722   5.261   0.313  0.9873  0.4878  1.0617
11903TIP3   OH257199   3.500   4.177   1.054 -0.9622  0.3191 -0.0023
11903TIP3    H157200   3.443   4.133   1.117 -0.6555 -0.6288 -0.3736
11903TIP3    H257201   3.485   4.131   0.971  0.8321 -0.4307  0.0403
11904TIP3   OH257202   3.794   2.870   2.841  0.5645 -0.2256 -0.0488
11904TIP3    H157203   3.723   2.827   2.794  0.7459 -2.4709  1.5427
11904TIP3    H257204   3.874   2.837   2.800  0.7047  0.2148 -0.1361
11905TIP3   OH257205   5.267   0.805   2.943 -0.0576  0.8517  0.2231
11905TIP3    H157206   5.279   0.897   2.968 -0.9306  0.7001  1.2477
11905TIP3    H257207   5.172   0.795   2.933  0.1544  0.6319 -2.2107
11906TIP3   OH257208   0.583   1.436  15.756  0.6102 -0.3083  0.7110
11906TIP3    H157209   0.513   1.374  15.733 -1.2797  0.6373  3.3515
11906TIP3    H257210   0.579   1.502  15.688  0.9645 -1.7452 -0.7783
11907TIP3   OH257211   1.697   1.736  12.552 -0.0371 -0.2583  0.5510
11907TIP3    H157212   1.676   1.825  12.580  1.6816  0.7837 -1.2051
11907TIP3    H257213   1.738   1.696  12.628  0.5679  0.9781  0.8961
11908TIP3   OH257214   4.794   3.178   1.517 -0.3167 -0.3127 -0.4230
11908TIP3    H157215   4.884   3.207   1.506 -0.2228 -0.8930 -1.2683
11908TIP3    H257216   4.795   3.086   1.492 -0.9838 -0.5471  0.3659
11909TIP3   OH257217   2.745   1.551   4.690 -0.3241  1.0100 -0.3860
11909TIP3    H157218   2.666   1.498   4.680 -0.4469  1.2913 -0.9806
11909TIP3    H257219   2.716   1.628   4.739 -0.1438  0.5326  0.4856
11910TIP3   OH257220   5.301   4.704   3.543  0.6202 -0.1738 -0.3669
11910TIP3    H157221   5.261   4.786   3.513 -1.2700 -0.3626  1.4713
11910TIP3    H257222   5.282   4.641   3.473  0.5349  0.5126 -0.9785
11911TIP3   OH257223   2.562   6.330  15.853  0.1457 -0.4248 -0.4395
11911TIP3    H157224   2.523   6.414  15.831  2.6155  0.9704  0.1649
11911TIP3    H257225   2.567   6.331  15.949  4.1411  0.8019 -0.5006
11912TIP3   OH257226   2.690   5.644   1.401 -0.0224 -0.0550  0.7700
11912TIP3    H157227   2.608   5.595   1.411 -0.3154  0.4157  0.6511
11912TIP3    H257228   2.697   5.694   1.482  0.4724 -0.5816  1.0574
11913TIP3   OH257229   3.883   4.348   0.525  0.1564 -0.0420  0.0673
11913TIP3    H157230   3.979   4.339   0.524  0.0252 -1.9095  0.1957
11913TIP3    H257231   3.863   4.377   0.614  0.6114  0.5642 -0.0231
11914TIP3   OH257232   0.502   1.561  14.060  0.6019  0.0622 -0.3639
11914TIP3    H157233   0.425   1.514  14.091  1.5977 -0.9947  0.6054
11914TIP3    H257234   0.501   1.643  14.109 -0.9217  0.9304 -1.7594
11915TIP3   OH257235   3.375   2.867   1.673 -0.3113  0.2621 -0.2494
11915TIP3    H157236   3.329   2.789   1.702  0.6156 -0.2841 -0.2015
11915TIP3    H257237   3.404   2.910   1.754  1.9660 -1.0748 -0.2532
11916TIP3   OH257238   2.129   4.188  16.641  0.2168  0.8153  0.2369
11916TIP3    H157239   2.168   4.276  16.640  2.0848  0.0681  1.7208
11916TIP3    H257240   2.165   4.147  16.719 -0.4697 -1.3574 -0.5293
11917TIP3   OH257241   4.886   6.687   1.776 -0.5754 -0.0117  0.3939
11917TIP3    H157242   4.893   6.766   1.722  2.9524 -1.0694 -0.9681
11917TIP3    H257243   4.859   6.619   1.714 -0.7098 -0.4275  0.9123
11918TIP3   OH257244   6.147   5.222   1.312  0.6161 -0.1510 -0.3795
11918TIP3    H157245   6.076   5.287   1.306  1.4455  0.8526  0.3934
11918TIP3    H257246   6.162   5.211   1.406  3.2209  1.6396 -0.4837
11919TIP3   OH257247   2.833   6.514   1.877  0.3482  0.9326 -0.6454
11919TIP3    H157248   2.740   6.506   1.898  0.7938  0.2250  1.2131
11919TIP3    H257249   2.854   6.605   1.895  0.3689  0.7035  0.5622
11920TIP3   OH257250   6.010   3.528  17.208  0.2413  0.1698  0.1781
11920TIP3    H157251   5.961   3.482  17.276  1.2006  0.0672  0.8234
11920TIP3    H257252   6.057   3.597  17.255  1.2453 -0.1578 -0.3034
11921TIP3   OH257253   0.126   0.479   4.586  0.0152 -0.5138 -0.2879
11921TIP3    H157254   0.118   0.445   4.675 -4.0036  1.2217  0.2199
11921TIP3    H257255   0.177   0.560   4.596 -3.0758  1.4530  1.2142
11922TIP3   OH257256   4.824   2.509  13.147 -0.5096 -0.5492  0.1206
11922TIP3    H157257   4.872   2.566  13.208 -0.9995 -1.5328  1.4924
11922TIP3    H257258   4.792   2.567  13.079 -0.9103  0.8111  1.4242
11923TIP3   OH257259   0.585   1.969   6.492 -0.6571  0.3995 -0.1038
11923TIP3    H157260   0.640   2.048   6.488  0.9694 -0.7094 -0.7858
11923TIP3    H257261   0.537   1.977   6.574  2.9060 -0.0119  2.2550
11924TIP3   OH257262   6.623   2.137   0.182  0.6581  0.2375 -0.1929
11924TIP3    H157263   6.709   2.144   0.225  0.0284  1.0162  0.9757
11924TIP3    H257264   6.592   2.050   0.206  1.4846 -0.4205 -1.3746
11925TIP3   OH257265   1.029   4.939   3.559 -0.0643  0.4350 -0.3351
11925TIP3    H157266   1.016   4.917   3.467  0.3266 -0.9861 -0.0728
11925TIP3    H257267   0.947   4.913   3.602  0.5546 -0.9703  0.0445
11926TIP3   OH257268   0.807   0.551   2.080  0.5731  1.4216  0.4569
11926TIP3    H157269   0.836   0.622   2.024  2.1285 -0.4901 -1.3524
11926TIP3    H257270   0.712   0.548   2.070  0.7875  1.3006 -1.9540
11927TIP3   OH257271   2.971   4.531   4.424  0.2379  0.1607  0.5132
11927TIP3    H157272   2.946   4.581   4.346 -2.3543 -0.6637  0.7532
11927TIP3    H257273   3.003   4.447   4.390  0.4022  0.3003  0.3144
11928TIP3   OH257274   4.299   1.871  11.182  0.4428 -0.7546 -0.1344
11928TIP3    H157275   4.327   1.878  11.090  0.5091 -1.1819 -0.1465
11928TIP3    H257276   4.206   1.848  11.177  0.1575  0.3140 -0.0913
11929TIP3   OH257277   0.538   0.250   0.577  0.4095 -1.0140  0.2391
11929TIP3    H157278   0.553   0.324   0.636 -0.6745 -0.7728  0.2387
11929TIP3    H257279   0.454   0.213   0.606  0.2019 -1.3184 -0.7154
11930TIP3   OH257280   0.758   1.940   3.429 -0.1707 -0.0843  0.3794
11930TIP3    H157281   0.755   1.870   3.494 -0.6084 -1.1523 -0.7463
11930TIP3    H257282   0.672   1.938   3.387 -1.1133  2.7529  1.8994
11931TIP3   OH257283   2.177   0.718   2.035  0.4934 -0.7595  0.0281
11931TIP3    H157284   2.133   0.800   2.057  0.2644 -0.7445 -0.4802
11931TIP3    H257285   2.152   0.700   1.944  0.5728 -1.3721  0.1207
11932TIP3   OH257286   6.730   3.931  13.154  0.1594  0.8041  0.1091
11932TIP3    H157287   6.780   3.867  13.104 -1.1053 -0.6148  0.6068
11932TIP3    H257288   6.681   3.980  13.088  0.6699  0.8721 -0.2286
11933TIP3   OH257289   2.542   5.986  17.113  0.3947 -0.0487 -0.2052
11933TIP3    H157290   2.628   5.953  17.139  0.0806 -0.3436  0.5005
11933TIP3    H257291   2.503   6.018  17.194 -0.1220  0.1656 -0.5338
11934TIP3   OH257292   3.917   4.665   4.310 -0.4429 -0.1844 -0.0270
11934TIP3    H157293   3.965   4.622   4.380 -0.3818 -0.1229 -0.0304
11934TIP3    H257294   3.977   4.663   4.235 -0.0965  0.6640  0.2117
11935TIP3   OH257295   1.173   4.580  13.743 -0.4795 -0.0392  0.0869
11935TIP3    H157296   1.251   4.558  13.794 -0.4558  0.4315  0.2597
11935TIP3    H257297   1.148   4.667  13.774  0.5452  1.0250 -1.8999
11936TIP3   OH257298   2.790   5.391  15.132  0.0295 -0.1403 -0.4567
11936TIP3    H157299   2.825   5.480  15.125  0.9078 -0.4250  0.1839
11936TIP3    H257300   2.729   5.395  15.206  0.7594 -0.2764  0.1646
11937TIP3   OH257301   3.985   2.851   0.170 -0.2757  0.1857  0.4941
11937TIP3    H157302   4.078   2.852   0.148  0.4113 -1.4140  2.9754
11937TIP3    H257303   3.959   2.943   0.166  1.7778  0.8488  1.1716
11938TIP3   OH257304   6.239   0.305   0.588 -0.6445  0.1536  0.0939
11938TIP3    H157305   6.162   0.303   0.530 -0.4745 -0.2532 -0.1215
11938TIP3    H257306   6.311   0.331   0.531  0.1036 -3.0131 -0.5946
11939TIP3   OH257307   0.123   0.406   3.129 -0.2367  0.1335  0.4601
11939TIP3    H157308   0.037   0.442   3.109  0.6582  3.4969  2.0332
11939TIP3    H257309   0.105   0.315   3.156 -3.4780  1.0467  1.8649
11940TIP3   OH257310   2.840   5.931   4.270 -0.5238  0.2246  0.1332
11940TIP3    H157311   2.764   5.878   4.244 -0.3454 -0.1902  0.4343
11940TIP3    H257312   2.855   5.991   4.197 -1.1697  0.3378  0.0946
11941TIP3   OH257313   2.790   4.433  14.709  0.3379  0.1717  0.4669
11941TIP3    H157314   2.707   4.464  14.746  0.9556  1.0266  1.1968
11941TIP3    H257315   2.840   4.513  14.692 -0.1033 -0.1120 -2.8276
11942TIP3   OH257316   1.749   5.744  12.612  0.1430  0.0946 -0.2466
11942TIP3    H157317   1.726   5.809  12.678  2.1831 -0.0730  0.6981
11942TIP3    H257318   1.840   5.723  12.630 -0.5169 -3.3282 -0.2475
11943TIP3   OH257319   3.542   6.576   6.786  0.1173 -0.1609 -0.1076
11943TIP3    H157320   3.533   6.628   6.706 -0.1757  0.1312  0.1098
11943TIP3    H257321   3.558   6.641   6.855 -0.9419 -0.2967  0.2815
11944TIP3   OH257322   1.148   5.647   5.734 -0.0394  0.0572 -0.1394
11944TIP3    H157323   1.137   5.713   5.802 -1.2188  1.1517 -1.3361
11944TIP3    H257324   1.236   5.662   5.699  1.5016 -1.9141  2.4857
11945TIP3   OH257325   0.658   0.503  16.224  0.5400  0.2739  0.2879
11945TIP3    H157326   0.589   0.438  16.210  0.6410  0.1462  0.3862
11945TIP3    H257327   0.615   0.587  16.208  0.6494  0.1405 -0.8270
11946TIP3   OH257328   5.750   6.331  14.071 -0.4214  0.5352  0.0406
11946TIP3    H157329   5.660   6.311  14.097 -0.0189 -1.3048  0.1008
11946TIP3    H257330   5.789   6.368  14.150 -1.3959  2.4194 -0.2989
11947TIP3   OH257331   3.866   6.369  13.459  0.1664 -0.3515  0.5789
11947TIP3    H157332   3.899   6.347  13.546  2.0593  0.0759  0.0277
11947TIP3    H257333   3.775   6.340  13.459  0.7171 -2.2634  1.9850
11948TIP3   OH257334   3.814   4.640   3.749 -0.6452 -0.1622  1.2771
11948TIP3    H157335   3.765   4.701   3.694  2.6023  0.9245 -0.6741
11948TIP3    H257336   3.847   4.694   3.820 -1.0240 -0.5697  1.7695
11949TIP3   OH257337   0.560   5.884   4.439 -0.2089 -0.5710 -0.3045
11949TIP3    H157338   0.552   5.826   4.515  1.2229 -0.9256 -0.3906
11949TIP3    H257339   0.650   5.916   4.443  0.3791 -1.7438 -2.6332
11950TIP3   OH257340   5.420   4.506  10.991  0.6293  0.3154 -0.3734
11950TIP3    H157341   5.465   4.558  10.925 -0.0952  2.0297  0.4223
11950TIP3    H257342   5.339   4.477  10.947  1.5752 -1.2104 -1.2000
11951TIP3   OH257343   5.031   2.858   2.585 -0.7034  0.1808  0.4399
11951TIP3    H157344   4.946   2.841   2.625 -0.8596  2.7303  1.3782
11951TIP3    H257345   5.010   2.900   2.501 -0.3276 -1.5747 -0.5942
11952TIP3   OH257346   0.821   5.996   4.436  0.1552 -0.0072 -0.3687
11952TIP3    H157347   0.837   5.975   4.528 -1.0006  1.1893  0.1348
11952TIP3    H257348   0.908   6.017   4.400  0.5254  0.2308  0.6414
11953TIP3   OH257349   0.836   2.144   5.787  0.0467  0.4892 -0.5099
11953TIP3    H157350   0.780   2.129   5.862 -0.7288  1.3387 -0.8965
11953TIP3    H257351   0.846   2.239   5.783 -1.1287  0.5877 -2.3067
11954TIP3   OH257352   1.696   6.062  11.980 -0.2133 -0.1124  1.0953
11954TIP3    H157353   1.740   6.023  11.905 -0.0866  2.1402 -0.0819
11954TIP3    H257354   1.754   6.042  12.054  0.4390 -1.0847  0.3407
11955TIP3   OH257355   1.484   1.581   5.949 -0.3946  0.6678 -0.3825
11955TIP3    H157356   1.427   1.658   5.951 -1.8050 -0.3406  1.6270
11955TIP3    H257357   1.436   1.514   5.999  0.5697 -1.6786 -2.3891
11956TIP3   OH257358   1.171   1.012  16.738 -0.1663  0.2229 -0.4127
11956TIP3    H157359   1.093   0.979  16.695 -0.5236  1.3776 -0.7039
11956TIP3    H257360   1.175   0.965  16.821 -1.9262  1.0458  0.1975
11957TIP3   OH257361   5.868   5.684   4.844 -0.3114 -0.0699  0.6632
11957TIP3    H157362   5.943   5.743   4.835  0.4908 -1.2205 -0.5821
11957TIP3    H257363   5.832   5.678   4.756 -0.1825 -1.6677  0.6983
11958TIP3   OH257364   3.641   6.156  16.241 -0.1415 -0.0119 -0.9022
11958TIP3    H157365   3.605   6.105  16.169  1.7176  0.5578 -2.3141
11958TIP3    H257366   3.642   6.247  16.209  0.8629  0.2255 -0.2571
11959TIP3   OH257367   2.837   0.156   2.337  0.3271  0.2118 -0.1360
11959TIP3    H157368   2.873   0.232   2.384 -0.9967  0.9147 -0.2233
11959TIP3    H257369   2.744   0.176   2.326 -0.4904 -2.2454  1.4764
11960TIP3   OH257370   5.177   6.211  15.454  0.0150 -0.1147 -0.2302
11960TIP3    H157371   5.251   6.184  15.400  0.2812  0.0395  0.0543
11960TIP3    H257372   5.162   6.303  15.430 -0.3376 -0.2562 -0.5715
11961TIP3   OH257373   3.421   0.205   0.415 -0.4265 -0.0742  0.3596
11961TIP3    H157374   3.378   0.262   0.478  0.2245  0.1898  0.5781
11961TIP3    H257375   3.359   0.198   0.342 -0.2916  1.3686  0.0871
11962TIP3   OH257376   3.280   2.007  13.886 -0.2250 -0.1075 -0.4494
11962TIP3    H157377   3.331   1.982  13.808  1.3313 -1.1582  0.8323
11962TIP3    H257378   3.199   1.958  13.878  0.2464 -0.8224 -1.0326
11963TIP3   OH257379   6.321   6.556  11.693 -0.3441 -0.3070  0.1340
11963TIP3    H157380   6.346   6.463  11.690  1.4135  0.1304  0.3430
11963TIP3    H257381   6.238   6.559  11.645 -0.6623 -2.0432  0.4876
11964TIP3   OH257382   4.347   2.578  10.831  0.6394  0.3298  0.8470
11964TIP3    H157383   4.269   2.610  10.876  1.5558  1.2789  1.8474
11964TIP3    H257384   4.365   2.645  10.764 -0.1252 -0.5507 -0.2733
11965TIP3   OH257385   4.533   2.758   5.632  0.3700  0.0794  0.2677
11965TIP3    H157386   4.458   2.816   5.648  0.3623  1.0819 -2.6361
11965TIP3    H257387   4.498   2.690   5.574  1.3651 -0.2763  0.0690
11966TIP3   OH257388   5.474   1.913  10.727  0.3591 -0.6842  0.1020
11966TIP3    H157389   5.538   1.916  10.656 -0.2797 -2.2270 -0.5647
11966TIP3    H257390   5.511   1.852  10.791  1.2328  1.1541  1.4670
11967TIP3   OH257391   4.852   3.365   1.850 -0.4367 -0.0885  0.5296
11967TIP3    H157392   4.873   3.387   1.759 -0.6735  1.8595  0.9011
11967TIP3    H257393   4.842   3.269   1.850  2.8510 -0.5657 -0.7888
11968TIP3   OH257394   2.723   0.115  13.151 -0.1642 -0.2368  0.1341
11968TIP3    H157395   2.674   0.197  13.150 -2.0029 -1.2892 -0.1430
11968TIP3    H257396   2.776   0.117  13.071 -0.5500  0.4621 -0.1104
11969TIP3   OH257397   1.814   6.655  11.083 -0.5415  0.4903  0.1002
11969TIP3    H157398   1.786   6.721  11.146 -0.9963 -0.6167  1.1070
11969TIP3    H257399   1.897   6.622  11.119 -1.7650 -1.5313  1.2696
11970TIP3   OH257400   3.708   1.215  15.997  0.2219 -0.3860  0.7481
11970TIP3    H157401   3.697   1.160  16.075  2.4434 -1.2870  0.5070
11970TIP3    H257402   3.791   1.187  15.960 -0.1472  0.9473 -1.2339
11971TIP3   OH257403   1.497   0.493   2.274 -0.5542  0.6920 -0.4943
11971TIP3    H157404   1.429   0.432   2.301  1.3392 -0.4614  2.2019
11971TIP3    H257405   1.574   0.439   2.260  0.0719  2.0297 -2.7579
11972TIP3   OH257406   0.292   4.262  16.854  0.2084 -0.0618 -0.3616
11972TIP3    H157407   0.327   4.351  16.851  0.7983 -0.2974 -0.6290
11972TIP3    H257408   0.203   4.272  16.889 -0.0092  0.7199 -1.0880
11973TIP3   OH257409   3.918   5.848  10.910 -0.4209  0.4475  0.0933
11973TIP3    H157410   3.923   5.886  10.822 -0.5654  0.9895  0.3156
11973TIP3    H257411   3.831   5.810  10.915 -0.3395  0.2358 -0.0678
11974TIP3   OH257412   0.714   6.337   1.264  0.0346  0.2264  0.3122
11974TIP3    H157413   0.766   6.417   1.273  1.5970 -0.8249  1.0969
11974TIP3    H257414   0.624   6.367   1.261  0.5083  1.9444  1.7739
11975TIP3   OH257415   4.544   2.132  11.558  0.6205 -0.6218  0.1649
11975TIP3    H157416   4.500   2.100  11.480  0.2465 -1.3670  0.6670
11975TIP3    H257417   4.525   2.225  11.561 -0.6339 -0.8707  0.1786
11976TIP3   OH257418   1.624   0.886   6.073  0.0704 -0.0380  0.1424
11976TIP3    H157419   1.671   0.803   6.076  1.1222  0.5357 -0.0218
11976TIP3    H257420   1.639   0.919   5.985 -1.0512 -0.0588 -0.0715
11977TIP3   OH257421   0.590   2.124  16.928  0.0547 -0.0995  0.4595
11977TIP3    H157422   0.668   2.098  16.880  1.5005 -0.8113  2.9775
11977TIP3    H257423   0.604   2.216  16.951 -0.1857 -0.0233  0.3048
11978TIP3   OH257424   1.487   6.501   3.393 -0.3553 -0.3294 -0.7445
11978TIP3    H157425   1.481   6.410   3.363  2.2464 -1.5738  1.8950
11978TIP3    H257426   1.573   6.505   3.436 -1.6221  2.5233  1.8630
11979TIP3   OH257427   0.135   3.737   0.357 -0.1617 -0.5361 -0.5427
11979TIP3    H157428   0.170   3.670   0.297  0.3637 -1.2332  0.5175
11979TIP3    H257429   0.043   3.745   0.332  0.1625 -0.4083 -1.7973
11980TIP3   OH257430   2.205   3.966   1.121  1.0506  0.0581  0.2889
11980TIP3    H157431   2.140   4.007   1.063  1.5647  0.0991 -0.2659
11980TIP3    H257432   2.164   3.885   1.150  0.8472 -0.0461 -0.2726
11981TIP3   OH257433   5.613   3.782  14.316 -0.5232  0.2210  0.1603
11981TIP3    H157434   5.539   3.741  14.270 -0.4651 -1.3707  1.4171
11981TIP3    H257435   5.636   3.857  14.261 -2.3327  0.0968 -0.8608
11982TIP3   OH257436   5.856   2.416  13.741  0.3089  0.4942 -0.5706
11982TIP3    H157437   5.807   2.355  13.686  0.2351  0.3628 -0.3623
11982TIP3    H257438   5.850   2.378  13.829  1.4987  0.0136 -0.6779
11983TIP3   OH257439   3.753   2.119   4.886 -0.4798  0.2069  0.4333
11983TIP3    H157440   3.714   2.207   4.876 -0.3356  0.1398 -0.9846
11983TIP3    H257441   3.831   2.133   4.939  1.8479  1.7308 -2.9954
11984TIP3   OH257442   1.163   2.799   3.118 -0.0847  0.2445 -0.2657
11984TIP3    H157443   1.167   2.842   3.204 -1.2146  1.4855 -0.7859
11984TIP3    H257444   1.110   2.721   3.133 -0.5399  0.6192  0.1137
11985TIP3   OH257445   2.460   1.018  12.489  0.0888  0.2643 -0.9573
11985TIP3    H157446   2.447   0.923  12.483  0.6074  0.1988 -1.0584
11985TIP3    H257447   2.380   1.050  12.531 -0.2555 -0.1721 -1.2664
11986TIP3   OH257448   2.604   4.066   2.975 -0.2823 -0.0447 -0.1035
11986TIP3    H157449   2.540   4.136   2.963 -0.8378 -0.4901  0.2149
11986TIP3    H257450   2.688   4.108   2.959 -0.4920  1.0258  1.4143
11987TIP3   OH257451   6.307   1.087   5.416  0.0997  0.0488 -0.0188
11987TIP3    H157452   6.303   1.016   5.480 -1.6642 -0.5619 -0.7627
11987TIP3    H257453   6.220   1.090   5.378  1.1716  0.1887 -2.6384
11988TIP3   OH257454   2.154   2.593   5.931 -0.0279 -0.3936 -0.2808
11988TIP3    H157455   2.193   2.578   5.845  0.7608 -1.3534  0.2239
11988TIP3    H257456   2.157   2.688   5.943 -2.6910  0.0911 -2.4438
11989TIP3   OH257457   4.768   3.823   4.427  0.3494  0.1661 -0.0186
11989TIP3    H157458   4.785   3.792   4.339 -0.3371  1.2459 -0.5575
11989TIP3    H257459   4.829   3.775   4.483  1.6433  0.3545 -1.2328
11990TIP3   OH257460   3.129   3.460   1.822  0.8569  0.0772  0.6910
11990TIP3    H157461   3.129   3.531   1.759 -1.2044  0.3290  0.8971
11990TIP3    H257462   3.190   3.395   1.787  0.5376  0.6681 -1.0032
11991TIP3   OH257463   3.257   6.089  12.888  0.0988  0.4625  0.1179
11991TIP3    H157464   3.340   6.133  12.907 -0.5824  0.9890  2.1529
11991TIP3    H257465   3.263   6.006  12.936 -0.9297  0.9718  1.1976
11992TIP3   OH257466   0.897   4.193   4.536  0.6721  0.1894 -0.0946
11992TIP3    H157467   0.954   4.267   4.555  0.1279  0.5048  0.3533
11992TIP3    H257468   0.808   4.229   4.544  0.3404 -0.9898  2.2114
11993TIP3   OH257469   1.774   3.292  14.938 -0.1211  0.4077  0.1032
11993TIP3    H157470   1.703   3.305  14.876  1.1846 -2.0412 -2.1153
11993TIP3    H257471   1.816   3.378  14.944 -1.7239  1.2711 -0.5425
11994TIP3   OH257472   0.309   4.979  16.969 -0.4419  0.0884 -0.1923
11994TIP3    H157473   0.394   4.985  17.013 -0.8717  0.1390  0.6514
11994TIP3    H257474   0.291   4.885  16.966  0.2049 -0.0259 -1.5107
11995TIP3   OH257475   4.674   2.540  13.515  0.5898 -1.1956  0.1748
11995TIP3    H157476   4.584   2.522  13.486  0.3655 -0.4581  0.3824
11995TIP3    H257477   4.670   2.536  13.610  1.0059 -2.1607  0.1584
11996TIP3   OH257478   3.823   0.856   0.863 -0.1016  0.9576 -0.5734
11996TIP3    H157479   3.739   0.901   0.870 -0.4102  0.3937 -0.6390
11996TIP3    H257480   3.808   0.786   0.800 -0.2477 -0.6070  1.1089
11997TIP3   OH257481   3.185   5.384  11.727  0.3471 -0.2352  0.2500
11997TIP3    H157482   3.276   5.413  11.731 -0.0386  1.1614 -0.5962
11997TIP3    H257483   3.148   5.429  11.651 -1.1768 -0.4129  0.8420
11998TIP3   OH257484   5.619   1.350  15.500 -0.4285  0.1659 -0.3338
11998TIP3    H157485   5.601   1.256  15.506  0.3842  0.0790  1.1227
11998TIP3    H257486   5.612   1.382  15.590  0.2869  1.3072 -0.6665
11999TIP3   OH257487   2.468   2.938  16.428 -0.7763 -0.7199 -0.7281
11999TIP3    H157488   2.537   2.898  16.376  0.4515 -0.7172  0.8483
11999TIP3    H257489   2.471   2.893  16.512 -1.0780  0.9204  0.2039
12000TIP3   OH257490   0.435   4.665   5.753 -0.2183  0.0758 -0.5307
12000TIP3    H157491   0.502   4.648   5.820 -0.7577  0.1457  0.0338
12000TIP3    H257492   0.456   4.604   5.682  0.9407  0.6707 -0.7262
12001TIP3   OH257493   2.390   6.658  16.473 -0.0714 -0.4080 -0.3365
12001TIP3    H157494   2.332   6.716  16.523  0.0234 -0.5763 -0.0301
12001TIP3    H257495   2.381   6.688  16.382 -1.8064 -1.4201 -0.5270
12002TIP3   OH257496   5.333   2.075   3.467  0.0540  0.1337  0.0551
12002TIP3    H157497   5.290   2.150   3.508  0.7389  0.4085  0.2867
12002TIP3    H257498   5.274   2.001   3.484  0.9081 -0.0479  2.7419
12003TIP3   OH257499   4.305   6.158  11.530  0.4613 -0.4737 -0.4455
12003TIP3    H157500   4.309   6.250  11.506 -1.0504 -0.8256 -2.3484
12003TIP3    H257501   4.350   6.113  11.458  1.0253 -1.2314  0.3669
12004TIP3   OH257502   0.302   2.929  15.136  0.4431 -0.0514 -0.3794
12004TIP3    H157503   0.286   3.015  15.097  0.5052 -0.2730 -0.9036
12004TIP3    H257504   0.227   2.915  15.195  0.3078  0.2531 -0.4777
12005TIP3   OH257505   0.494   5.143   4.374 -0.3683 -0.3173  0.0263
12005TIP3    H157506   0.495   5.226   4.326  1.3678 -0.8911 -1.0220
12005TIP3    H257507   0.402   5.116   4.373 -0.8388  1.1848 -0.3135
12006TIP3   OH257508   6.242   2.759  14.278  0.3780 -0.0515  0.1803
12006TIP3    H157509   6.195   2.755  14.194  2.4151  0.0004 -1.0305
12006TIP3    H257510   6.334   2.767  14.253  0.9594  1.0085  2.4497
12007TIP3   OH257511   3.450   4.667  16.579 -0.0152 -0.3037 -0.3762
12007TIP3    H157512   3.393   4.742  16.567  0.3892  0.1710  0.5282
12007TIP3    H257513   3.535   4.705  16.603  0.4179 -1.0218 -0.7391
12008TIP3   OH257514   1.656   0.925  16.722  0.6310 -0.0179  0.0125
12008TIP3    H157515   1.720   0.984  16.683  2.2285 -2.3205 -1.0379
12008TIP3    H257516   1.580   0.930  16.664  1.0842  0.3448 -0.5558
12009TIP3   OH257517   5.533   2.313  12.803 -0.0554 -0.3069 -0.0975
12009TIP3    H157518   5.563   2.368  12.875 -0.8453 -0.8069  0.6249
12009TIP3    H257519   5.516   2.374  12.732  1.5930  0.1109 -0.1827
12010TIP3   OH257520   1.787   3.259   6.000 -0.2867  0.2296  0.5369
12010TIP3    H157521   1.782   3.165   5.980 -0.9033  0.8341 -2.6670
12010TIP3    H257522   1.861   3.266   6.061 -0.1035 -2.3033  0.7188
12011TIP3   OH257523   0.652   4.671   0.871 -0.3217 -0.0481  0.3286
12011TIP3    H157524   0.572   4.722   0.885 -0.9764 -1.2632  1.2284
12011TIP3    H257525   0.674   4.637   0.958 -0.2060 -1.6938 -0.3002
12012TIP3   OH257526   4.677   0.065   1.138 -0.1334  0.1483 -0.2435
12012TIP3    H157527   4.693   0.151   1.177  1.2581 -0.2992  0.2356
12012TIP3    H257528   4.585   0.067   1.112  0.6945  3.3361 -3.9982
12013TIP3   OH257529   6.418   2.748   2.767 -0.2976  0.2062 -0.0418
12013TIP3    H157530   6.413   2.843   2.775 -1.4692  0.0938  1.0196
12013TIP3    H257531   6.327   2.720   2.750 -0.0042 -0.7301 -0.1523
12014TIP3   OH257532   6.054   1.857  15.785  0.7462  0.6224  0.2021
12014TIP3    H157533   6.133   1.878  15.735  0.2463  0.8197 -0.5029
12014TIP3    H257534   6.016   1.781  15.741  1.6320 -0.7938  1.7575
12015TIP3   OH257535   0.837   1.352  15.544  0.2194  0.2271  0.0887
12015TIP3    H157536   0.821   1.437  15.503 -0.2960  1.0456  1.8565
12015TIP3    H257537   0.835   1.371  15.638  4.3508 -0.9314  0.5949
12016TIP3   OH257538   4.628   5.734  15.191 -0.6703  0.2561 -0.7167
12016TIP3    H157539   4.592   5.822  15.201 -1.7444 -0.1615 -0.6674
12016TIP3    H257540   4.723   5.745  15.197 -0.8575  1.0335  2.3579
12017TIP3   OH257541   3.357   3.601  15.022  0.1041 -0.2321  0.1266
12017TIP3    H157542   3.308   3.683  15.018 -1.5202 -1.2083 -2.3587
12017TIP3    H257543   3.433   3.615  14.965 -0.5136 -0.6324 -0.8097
12018TIP3   OH257544   5.247   0.845   0.542 -0.5363 -0.4408 -0.3930
12018TIP3    H157545   5.167   0.877   0.501  0.6719  1.8066 -1.1793
12018TIP3    H257546   5.253   0.895   0.624  1.0951  1.0218 -1.3520
12019TIP3   OH257547   5.430   0.207   0.905 -0.0108  0.5805 -0.0648
12019TIP3    H157548   5.459   0.295   0.881  0.4165  0.5037  0.1572
12019TIP3    H257549   5.440   0.203   1.000  1.2985 -0.1648 -0.2065
12020TIP3   OH257550   2.104   6.594  16.537  0.0507  0.1897  0.1937
12020TIP3    H157551   2.138   6.591  16.447 -2.3216 -0.5325 -0.7473
12020TIP3    H257552   2.144   6.519  16.581 -0.5015 -0.8256 -0.9675
12021TIP3   OH257553   0.246   2.382   4.406  0.0967 -0.2841 -0.4353
12021TIP3    H157554   0.198   2.426   4.477 -0.0217 -1.4364  0.2205
12021TIP3    H257555   0.278   2.454   4.351  0.4749  0.6561  0.9597
12022TIP3   OH257556   0.362   1.690  16.195  0.2269 -0.5296 -1.4641
12022TIP3    H157557   0.399   1.602  16.207  1.4446  0.2212  0.9383
12022TIP3    H257558   0.424   1.748  16.238 -2.1027  1.1614 -0.1803
12023TIP3   OH257559   0.824   5.554  12.683  0.0609 -0.0153 -0.1401
12023TIP3    H157560   0.844   5.640  12.719 -0.0721 -0.0292 -0.0334
12023TIP3    H257561   0.909   5.519  12.657  0.2203 -0.2290  0.6474
12024TIP3   OH257562   2.408   3.426  11.537  0.0217  0.3862  0.5455
12024TIP3    H157563   2.503   3.415  11.534 -0.0429 -0.2511  0.6140
12024TIP3    H257564   2.386   3.463  11.451  0.1387 -1.1704 -0.1855
12025TIP3   OH257565   0.385   1.415  16.257  0.3486  0.3364  0.2397
12025TIP3    H157566   0.412   1.383  16.171 -3.2243 -2.0436 -0.2459
12025TIP3    H257567   0.463   1.407  16.312  2.7298  1.8357 -2.6454
12026TIP3   OH257568   5.444   0.393  15.047 -0.3282  0.7911 -0.0270
12026TIP3    H157569   5.404   0.466  15.093 -1.5139  0.7247 -0.8849
12026TIP3    H257570   5.372   0.331  15.033  0.4457 -0.1163 -0.1392
12027TIP3   OH257571   2.011   1.863   1.789  0.1854  0.0749  0.4860
12027TIP3    H157572   1.971   1.821   1.712 -0.6037 -0.7606  1.3314
12027TIP3    H257573   2.105   1.860   1.771  0.0430 -0.5665 -0.2184
12028TIP3   OH257574   4.065   0.724   3.746  0.3965 -0.6707  0.4728
12028TIP3    H157575   4.021   0.784   3.687 -0.2235  0.9267  2.4388
12028TIP3    H257576   4.001   0.654   3.761 -0.2179 -0.0570  0.7697
12029TIP3   OH257577   5.258   4.314  11.335 -0.2626  0.5552  0.0523
12029TIP3    H157578   5.236   4.268  11.254  0.8707  0.7804 -0.4015
12029TIP3    H257579   5.222   4.401  11.324  0.8679  0.9479 -0.7205
12030TIP3   OH257580   5.647   3.933   2.986  0.4327  0.0664  0.1075
12030TIP3    H157581   5.583   3.962   3.051 -0.0290  0.5893 -0.5602
12030TIP3    H257582   5.674   4.013   2.941 -0.3998 -0.4286 -1.3502
12031TIP3   OH257583   5.557   2.075  13.839  0.3308 -0.1131 -0.5929
12031TIP3    H157584   5.569   1.982  13.858 -1.5543 -0.2396  0.2303
12031TIP3    H257585   5.477   2.079  13.787  0.0470  1.0846 -0.1088
12032TIP3   OH257586   1.236   4.689   1.786  0.6090  0.5271 -0.5624
12032TIP3    H157587   1.244   4.666   1.694  1.9589  1.0291 -0.5966
12032TIP3    H257588   1.313   4.744   1.804  0.5161  0.2162  0.9255
12033TIP3   OH257589   3.947   0.719   1.082  0.4936 -0.0523 -0.0265
12033TIP3    H157590   3.931   0.786   1.015  0.9706  0.1128  0.0169
12033TIP3    H257591   3.860   0.691   1.110  0.2410  1.4663  0.8579
12034TIP3   OH257592   2.938   1.768  15.656 -0.3874 -0.0321 -0.3033
12034TIP3    H157593   2.864   1.707  15.657  0.6300 -1.3217  0.4058
12034TIP3    H257594   2.917   1.831  15.587 -2.4535  0.0544  0.3406
12035TIP3   OH257595   5.594   1.985   3.099  0.4125 -0.0595  0.3586
12035TIP3    H157596   5.499   1.994   3.093  0.6621  1.9872 -2.0893
12035TIP3    H257597   5.618   1.928   3.026  0.8936 -3.7123  3.0841
12036TIP3   OH257598   3.390   1.063  14.562 -0.2189  0.0769  0.3503
12036TIP3    H157599   3.446   1.139  14.545  0.5132 -0.4793  0.2199
12036TIP3    H257600   3.396   1.010  14.483  0.2866 -0.7273  0.9067
12037TIP3   OH257601   4.905   5.283  14.669 -0.4284  0.1320 -1.2247
12037TIP3    H157602   4.916   5.354  14.605  0.4044 -0.8604 -2.2235
12037TIP3    H257603   4.833   5.312  14.725  0.6699  2.3117 -0.8431
12038TIP3   OH257604   4.846   6.787   4.486  0.7551  0.1804 -0.3776
12038TIP3    H157605   4.823   6.699   4.457 -1.6067  0.9845 -1.2233
12038TIP3    H257606   4.889   6.826   4.410 -1.0731  0.7200 -1.1981
12039TIP3   OH257607   6.670   3.266  15.346  0.1437  0.1907 -0.4473
12039TIP3    H157608   6.650   3.215  15.424 -0.2468 -1.0499 -1.3131
12039TIP3    H257609   6.740   3.325  15.373 -1.3153  1.1881  1.3382
12040TIP3   OH257610   5.610   3.407  13.248 -0.2191  0.7443 -0.5326
12040TIP3    H157611   5.592   3.324  13.205 -1.4710  1.1988 -0.9446
12040TIP3    H257612   5.530   3.458  13.234  0.5595  2.0432 -0.3659
12041TIP3   OH257613   0.003   3.467  15.889  0.2890 -0.2622 -0.1208
12041TIP3    H157614   0.080   3.435  15.843 -0.9503  1.0606 -3.4189
12041TIP3    H257615  -0.063   3.479  15.821 -2.1588  0.7450  2.2149
12042TIP3   OH257616   4.620   4.823   3.201 -0.3286 -0.0861 -0.0575
12042TIP3    H157617   4.596   4.775   3.122 -2.3216 -0.4522  0.7127
12042TIP3    H257618   4.656   4.906   3.169  0.1236 -0.7596 -1.3509
12043TIP3   OH257619   5.448   3.141  15.092  0.3576  0.3792  0.1679
12043TIP3    H157620   5.415   3.191  15.018  1.2443  1.4021  0.4348
12043TIP3    H257621   5.502   3.203  15.141  0.3187 -0.4548  1.3126
12044TIP3   OH257622   5.094   1.639   0.823 -0.0474  0.2630 -0.2265
12044TIP3    H157623   5.139   1.693   0.887  0.6927  1.2003 -1.4888
12044TIP3    H257624   5.046   1.574   0.875  0.4480  1.0450  1.2498
12045TIP3   OH257625   2.314   0.212  11.822 -0.1436 -0.1432  0.2845
12045TIP3    H157626   2.242   0.148  11.821  0.0616 -0.3859 -0.9922
12045TIP3    H257627   2.273   0.294  11.850 -0.4614 -0.7554  1.6904
12046TIP3   OH257628   4.934   4.144   0.559 -0.4213 -0.3127 -0.2444
12046TIP3    H157629   4.990   4.164   0.634 -0.4983 -0.4817 -0.1383
12046TIP3    H257630   4.989   4.091   0.502 -0.4675 -0.4708 -0.1447
12047TIP3   OH257631   4.979   4.351   5.441 -0.2878 -0.1872 -0.3109
12047TIP3    H157632   5.055   4.365   5.498 -0.0631 -0.2301 -0.5959
12047TIP3    H257633   5.006   4.278   5.384 -0.9914 -1.0020  0.3777
12048TIP3   OH257634   1.610   3.737  16.314 -0.2625  0.0757  0.5400
12048TIP3    H157635   1.651   3.671  16.258 -1.2414  0.7494 -1.0429
12048TIP3    H257636   1.543   3.777  16.258 -0.4227  1.6605  1.8081
12049TIP3   OH257637   0.327   6.642   2.947 -0.2103  0.4576 -0.1445
12049TIP3    H157638   0.400   6.583   2.931  0.0694  0.7680 -0.0084
12049TIP3    H257639   0.251   6.584   2.953  0.0271  0.1333 -0.2509
12050TIP3   OH257640   4.109   0.757  16.705  0.0097  0.6404 -0.0898
12050TIP3    H157641   4.045   0.820  16.740 -0.1762 -0.1958  1.1523
12050TIP3    H257642   4.055   0.688  16.665  0.1922  0.9056 -0.7953
12051TIP3   OH257643   1.455   5.901   3.926 -0.2596 -0.4398 -0.2947
12051TIP3    H157644   1.465   5.964   3.997  0.1645  1.4672 -1.9505
12051TIP3    H257645   1.544   5.870   3.908 -0.3683 -0.9360  0.0055
12052TIP3   OH257646   6.016   2.061   1.514 -0.2461 -0.3825 -0.4135
12052TIP3    H157647   5.937   2.061   1.569  0.8384  0.1887  1.2256
12052TIP3    H257648   6.050   1.972   1.522 -0.2514 -0.3849 -0.4182
12053TIP3   OH257649   2.014   1.566  16.881 -0.9682 -0.1501 -0.6247
12053TIP3    H157650   1.993   1.598  16.793 -0.0429 -0.5732 -1.0185
12053TIP3    H257651   2.107   1.543  16.876 -0.8432  0.0359  0.5355
12054TIP3   OH257652   1.955   6.349   2.968 -0.1487  0.0571  0.0712
12054TIP3    H157653   1.902   6.292   3.023 -0.0411  0.2925  0.4182
12054TIP3    H257654   1.983   6.293   2.895  0.0639 -0.3706  0.4767
12055TIP3   OH257655   5.078   2.915  11.020  0.2861  0.4901 -0.1105
12055TIP3    H157656   5.061   3.008  11.029  1.0306  0.5134  1.5303
12055TIP3    H257657   5.171   2.909  10.995  0.1701  0.2046 -0.4798
12056TIP3   OH257658   2.250   0.680  14.664 -0.0062  0.0679  0.2990
12056TIP3    H157659   2.281   0.591  14.647 -1.2258 -0.1191 -1.1707
12056TIP3    H257660   2.191   0.671  14.739 -1.4076 -0.7040 -0.8333
12057TIP3   OH257661   4.203   6.780   0.313 -0.1064  0.0654 -0.2049
12057TIP3    H157662   4.167   6.757   0.227 -0.5840 -1.3399  0.3406
12057TIP3    H257663   4.163   6.717   0.373  2.7835 -1.2492  0.5209
12058TIP3   OH257664   5.997   6.492   0.994  0.4794  0.0249  0.0955
12058TIP3    H157665   5.962   6.543   0.921  2.1405 -0.6872 -1.2610
12058TIP3    H257666   5.957   6.405   0.983 -0.6647  0.3769  1.1437
12059TIP3   OH257667   0.961   3.140  13.443  0.5484  0.2070 -0.0667
12059TIP3    H157668   0.919   3.188  13.514  1.8318 -0.1945  1.0146
12059TIP3    H257669   0.973   3.205  13.374 -1.1431  0.4881 -0.1284
12060TIP3   OH257670   4.625   2.563   0.565 -0.0023  0.1428  0.8327
12060TIP3    H157671   4.589   2.643   0.525  0.1004 -0.1997  0.0543
12060TIP3    H257672   4.608   2.575   0.659  0.3083  1.2307  0.7658
12061TIP3   OH257673   3.627   4.560   1.958 -0.1757  0.1208 -0.2170
12061TIP3    H157674   3.555   4.526   1.905 -1.3346  1.9537  0.1113
12061TIP3    H257675   3.670   4.625   1.903  0.7662 -0.3779 -0.1103
12062TIP3   OH257676   6.097   0.961  11.923  0.3861  0.1327 -0.4766
12062TIP3    H157677   6.103   1.056  11.908  2.0250 -0.2343 -2.6686
12062TIP3    H257678   6.101   0.952  12.018  2.8895  2.1884 -0.2450
12063TIP3   OH257679   2.798   3.506  15.472 -0.3573 -0.5842  0.1843
12063TIP3    H157680   2.839   3.495  15.558  0.3826  0.5072 -0.0086
12063TIP3    H257681   2.829   3.592  15.441 -1.8168 -0.2805 -0.5168
12064TIP3   OH257682   3.232   5.756  17.236  0.1185 -0.0853  0.1502
12064TIP3    H157683   3.272   5.784  17.318 -1.1433  1.3334  0.3362
12064TIP3    H257684   3.230   5.660  17.241 -1.0707 -0.0092  2.3682
12065TIP3   OH257685   2.494   2.872  13.981 -0.3725  0.6822  0.3873
12065TIP3    H157686   2.527   2.827  13.904 -1.3794 -0.3871  0.5598
12065TIP3    H257687   2.460   2.955  13.948 -0.7691  0.2462 -0.3296
12066TIP3   OH257688   1.749   2.058  14.135  0.3106  0.0150 -0.3764
12066TIP3    H157689   1.658   2.079  14.155  0.1141  0.2711 -1.4662
12066TIP3    H257690   1.798   2.137  14.161  0.3342 -0.4019  0.9007
12067TIP3   OH257691   1.765   3.357   2.407  0.5463  0.0320 -0.5608
12067TIP3    H157692   1.741   3.365   2.499  1.4063 -3.1700  0.0868
12067TIP3    H257693   1.861   3.365   2.406  0.5754 -0.3000 -1.0886
12068TIP3   OH257694   2.916   0.515  11.706 -0.0375 -0.2955  0.2230
12068TIP3    H157695   2.927   0.522  11.612 -0.2377 -3.0880 -0.1123
12068TIP3    H257696   2.854   0.584  11.729 -0.7607 -0.1969 -1.8581
12069TIP3   OH257697   5.238   1.568   5.985 -0.4358  0.4324  0.1653
12069TIP3    H157698   5.144   1.549   5.983 -0.4678  0.6209 -0.2793
12069TIP3    H257699   5.244   1.654   6.027 -0.4958  0.5913 -0.1459
12070TIP3   OH257700   3.952   5.581   3.549 -0.4680  0.5544 -0.1675
12070TIP3    H157701   3.977   5.617   3.634  1.2013 -0.0297 -0.3596
12070TIP3    H257702   3.953   5.657   3.490 -1.1329  0.8757  0.2266
12071TIP3   OH257703   3.429   4.687  15.103  0.3239  0.4955 -0.1555
12071TIP3    H157704   3.503   4.627  15.097  0.0174  0.1557 -0.5375
12071TIP3    H257705   3.361   4.638  15.149 -0.1335  0.3378 -0.9846
12072TIP3   OH257706   6.591   3.550   5.233 -0.0384 -0.0437 -0.0339
12072TIP3    H157707   6.624   3.518   5.317  1.0007 -0.0107 -0.4162
12072TIP3    H257708   6.667   3.587   5.189 -0.9518  1.7442 -0.1844
12073TIP3   OH257709   6.009   3.837   2.965 -0.3946 -0.1372 -0.1749
12073TIP3    H157710   6.025   3.790   2.883  1.6024 -1.1057  0.6880
12073TIP3    H257711   5.939   3.787   3.008  1.2013 -1.9875  0.3981
12074TIP3   OH257712   5.500   6.462  13.441  0.3528  0.0846  0.3979
12074TIP3    H157713   5.594   6.482  13.444  0.1988  0.7820  0.8214
12074TIP3    H257714   5.496   6.371  13.411  1.1272  0.3220 -0.4988
12075TIP3   OH257715   2.726   4.977   1.543  1.1744  0.2188 -0.5776
12075TIP3    H157716   2.692   5.064   1.520  0.7732  0.0266 -0.7233
12075TIP3    H257717   2.810   4.994   1.585  0.3622  0.7774  0.8917
12076TIP3   OH257718   5.241   3.446  13.470  0.3735  0.0382  0.2744
12076TIP3    H157719   5.333   3.422  13.465  0.5637  0.5537  1.1704
12076TIP3    H257720   5.224   3.459  13.563 -0.5533  0.1651  0.1009
12077TIP3   OH257721   0.678   5.974   0.556  0.1282 -0.6317  0.4010
12077TIP3    H157722   0.635   5.909   0.501 -1.9006  0.1505  0.9623
12077TIP3    H257723   0.757   5.999   0.507 -0.4767 -1.5149 -1.0892
12078TIP3   OH257724   1.136   4.926   5.998 -0.6495  0.2555  0.3269
12078TIP3    H157725   1.153   5.014   6.031  1.3615  0.5237 -1.2220
12078TIP3    H257726   1.066   4.893   6.054  1.3138  1.2759  3.6476
12079TIP3   OH257727   0.515   3.068  11.211 -0.0089 -0.0789 -0.4647
12079TIP3    H157728   0.459   3.124  11.265 -0.1937  0.0277 -0.7667
12079TIP3    H257729   0.557   3.127  11.149 -0.3694 -0.2984 -0.9269
12080TIP3   OH257730   5.565   4.395   0.222 -0.1337  0.2633  0.2887
12080TIP3    H157731   5.540   4.463   0.285  1.2647 -0.1827  1.3896
12080TIP3    H257732   5.660   4.405   0.213 -0.2027 -0.1851 -1.1823
12081TIP3   OH257733   2.150   1.864   4.786  0.0993  0.1238  0.4528
12081TIP3    H157734   2.121   1.777   4.813  0.6865 -0.3252 -0.3285
12081TIP3    H257735   2.235   1.850   4.745  0.8009  1.2303  1.4236
12082TIP3   OH257736   3.582   4.952  13.503  0.3529 -0.3332 -0.5220
12082TIP3    H157737   3.546   5.021  13.560 -2.1327 -0.8341 -1.3534
12082TIP3    H257738   3.653   4.914  13.554 -1.2931 -0.3040  2.0143
12083TIP3   OH257739   3.840   2.319   1.030  0.1000  0.1050  0.4993
12083TIP3    H157740   3.913   2.348   1.085  0.4222  0.4000 -0.0785
12083TIP3    H257741   3.824   2.392   0.971  0.1319 -0.4343 -0.1816
12084TIP3   OH257742   2.218   2.025  16.694  0.1911 -0.8658 -0.8964
12084TIP3    H157743   2.180   2.080  16.626 -0.7217 -0.5386 -0.1344
12084TIP3    H257744   2.290   1.979  16.650 -0.9028 -1.2993 -2.2882
12085TIP3   OH257745   3.311   1.839   0.615 -0.6056  0.2937 -0.6505
12085TIP3    H157746   3.229   1.851   0.567  1.2824  1.9892 -3.8112
12085TIP3    H257747   3.356   1.768   0.570  0.0164 -0.1123  0.5519
12086TIP3   OH257748   2.380   3.730  11.902 -0.5065  0.2376  0.0530
12086TIP3    H157749   2.289   3.758  11.897 -0.6411  0.2198  1.7862
12086TIP3    H257750   2.399   3.727  11.995  0.5810 -2.0383 -0.1826
12087TIP3   OH257751   5.673   5.894   1.815  0.3888 -0.1678  0.3737
12087TIP3    H157752   5.724   5.881   1.735 -2.0296  1.7433 -1.6407
12087TIP3    H257753   5.590   5.849   1.798 -0.4863  0.9729  1.4390
12088TIP3   OH257754   5.413   6.731   5.766  0.1144  0.1974  0.1518
12088TIP3    H157755   5.398   6.818   5.729 -1.7403 -0.9677 -2.0101
12088TIP3    H257756   5.486   6.696   5.715  0.3042  0.1531  0.4530
12089TIP3   OH257757   6.480   3.599   2.556 -0.0405  0.0812 -0.3096
12089TIP3    H157758   6.473   3.690   2.582  1.0348  0.2975 -0.6970
12089TIP3    H257759   6.469   3.549   2.637  0.0379  0.5841  0.0130
12090TIP3   OH257760   3.417   2.133  15.413 -0.2099 -0.2509  0.4612
12090TIP3    H157761   3.467   2.101  15.488  0.4697 -0.7967 -0.2092
12090TIP3    H257762   3.382   2.217  15.442 -0.6269 -0.8141  1.6656
12091TIP3   OH257763   0.365   0.854  12.166 -0.1872 -0.0751 -0.6105
12091TIP3    H157764   0.298   0.787  12.152  0.4618 -0.3499 -2.7585
12091TIP3    H257765   0.317   0.937  12.166 -0.4316 -0.0599 -4.4099
12092TIP3   OH257766   4.294   3.230  11.945  0.0705 -0.2895 -0.2777
12092TIP3    H157767   4.340   3.159  11.991 -0.4148 -0.8809 -0.6768
12092TIP3    H257768   4.361   3.297  11.932  0.7047 -0.9259 -0.4042
12093TIP3   OH257769   1.813   4.427  16.028  0.0050  0.0749  0.4612
12093TIP3    H157770   1.844   4.340  16.055 -0.4009 -0.0679  0.4699
12093TIP3    H257771   1.874   4.488  16.070  0.2982 -0.2061  0.4472
12094TIP3   OH257772   2.706   0.782  11.417 -0.0624  0.6618 -0.3144
12094TIP3    H157773   2.644   0.738  11.475 -0.3016  0.0695 -0.9958
12094TIP3    H257774   2.761   0.834  11.475  1.0553 -1.5015  0.6762
12095TIP3   OH257775   5.007   4.196  14.119 -0.6231  0.1402 -0.0442
12095TIP3    H157776   5.041   4.285  14.107 -1.7222  0.5536 -0.1731
12095TIP3    H257777   5.063   4.141  14.064  0.4359  0.6616  0.4908
12096TIP3   OH257778   2.461   6.440   5.233 -0.1453 -0.7918 -0.0893
12096TIP3    H157779   2.411   6.461   5.311 -1.0304  0.4007 -0.9355
12096TIP3    H257780   2.470   6.345   5.234 -1.9955 -0.9852  0.3439
12097TIP3   OH257781   6.778   1.328   3.044 -0.6598  0.4500  0.7778
12097TIP3    H157782   6.749   1.352   3.132 -0.3943  0.5423  0.8398
12097TIP3    H257783   6.730   1.247   3.024 -1.5719  1.0175  0.5690
12098TIP3   OH257784   0.553   3.635   5.784 -0.2266 -0.4394 -0.0793
12098TIP3    H157785   0.498   3.557   5.787  0.5081 -0.9552  0.3123
12098TIP3    H257786   0.636   3.608   5.825 -0.4039  0.9011  1.2708
12099TIP3   OH257787   2.018   5.743  13.933 -0.3340  0.4496  0.2368
12099TIP3    H157788   1.965   5.707  13.862 -0.1436  0.9392 -0.1621
12099TIP3    H257789   2.050   5.827  13.899  0.0963  0.4987  0.7446
12100TIP3   OH257790   1.344   6.602   4.406  0.2391  0.0467 -0.6698
12100TIP3    H157791   1.341   6.544   4.331  1.0343  0.2800 -0.8971
12100TIP3    H257792   1.268   6.659   4.396 -0.7948 -1.2094 -0.2106
12101TIP3   OH257793   1.903   5.761   1.701 -0.5542  0.0700 -0.1761
12101TIP3    H157794   1.982   5.814   1.714  0.5825 -0.5455 -3.6882
12101TIP3    H257795   1.856   5.806   1.631 -2.6847 -0.3685  0.8872
12102TIP3   OH257796   4.980   4.472   1.623 -0.0001  0.0459 -0.3002
12102TIP3    H157797   4.972   4.450   1.716  0.3759 -0.5146 -0.3984
12102TIP3    H257798   4.993   4.567   1.623 -2.2168  0.4055  0.0787
12103TIP3   OH257799   0.277   3.192  15.950  0.3947 -0.6152  0.1927
12103TIP3    H157800   0.333   3.113  15.952 -0.7713 -1.4726  0.0686
12103TIP3    H257801   0.233   3.192  16.035 -0.4871 -0.7597 -0.2519
12104TIP3   OH257802   5.021   2.367  15.395  0.2318 -0.0065 -0.3463
12104TIP3    H157803   4.987   2.446  15.352  0.2351  0.3133  0.2268
12104TIP3    H257804   5.100   2.395  15.439  1.7752 -0.9403 -2.3682
12105TIP3   OH257805   2.102   5.792  13.526 -0.5747 -0.6071  0.1122
12105TIP3    H157806   2.086   5.703  13.493 -0.4755 -0.0676 -1.4627
12105TIP3    H257807   2.049   5.849  13.470 -0.8483  0.3255  1.2761
12106TIP3   OH257808   5.063   2.378  16.290  0.0278  0.6457  0.3770
12106TIP3    H157809   5.003   2.304  16.285  0.0207  0.6402  0.5373
12106TIP3    H257810   5.009   2.455  16.276  0.0817  0.6018 -0.0776
12107TIP3   OH257811   6.062   0.820   5.200  0.4590 -0.0689  0.2481
12107TIP3    H157812   6.022   0.884   5.141 -1.5822  0.1105  1.7478
12107TIP3    H257813   6.064   0.864   5.285  0.1896 -1.5355  1.0331
12108TIP3   OH257814   1.733   1.452   5.478  0.5284  0.0381 -0.2322
12108TIP3    H157815   1.795   1.380   5.473  0.8799  0.3115  0.1524
12108TIP3    H257816   1.685   1.448   5.395  0.0731 -1.0592  0.0710
12109TIP3   OH257817   6.261   0.468  11.539 -1.0342 -0.5257  0.2963
12109TIP3    H157818   6.217   0.383  11.537 -0.9734 -0.5562  0.2379
12109TIP3    H257819   6.190   0.532  11.550 -1.1465 -0.5335 -0.3487
12110TIP3   OH257820   4.096   1.094  14.200 -0.2570 -0.0103 -0.0144
12110TIP3    H157821   4.183   1.066  14.229 -0.2733 -0.3996 -0.3398
12110TIP3    H257822   4.067   1.155  14.268  0.1222 -0.1508  0.2761
12111TIP3   OH257823   6.531   1.529   2.480 -0.4018 -0.0253 -0.5372
12111TIP3    H157824   6.564   1.440   2.497 -1.3991 -0.2107  0.4587
12111TIP3    H257825   6.498   1.560   2.564  1.5820  2.0299 -0.4076
12112TIP3   OH257826   2.338   6.057   1.111 -0.0504  0.6397 -0.6715
12112TIP3    H157827   2.243   6.054   1.125  0.0010  0.0738 -0.4037
12112TIP3    H257828   2.370   5.974   1.148  0.4758  0.5575 -1.3005
12113TIP3   OH257829   6.119   4.838  14.643 -0.2376  0.1487 -0.1116
12113TIP3    H157830   6.077   4.752  14.640  1.4960 -0.7574  0.6020
12113TIP3    H257831   6.197   4.829  14.588 -0.0975  1.3223 -0.1376
12114TIP3   OH257832   1.803   2.342  13.540  0.2060  0.3076  0.0362
12114TIP3    H157833   1.855   2.266  13.516 -0.9619 -1.2052  1.9888
12114TIP3    H257834   1.866   2.404  13.576  0.7994 -1.3264  1.9958
12115TIP3   OH257835   3.594   0.904  12.906  0.4508 -0.3529 -0.2583
12115TIP3    H157836   3.534   0.889  12.833  0.7911  0.2822 -0.6801
12115TIP3    H257837   3.568   0.840  12.972 -0.6307 -0.1478 -0.4718
12116TIP3   OH257838   2.966   5.720  14.468  0.3221  0.7824 -0.5409
12116TIP3    H157839   2.994   5.641  14.515  0.5549  0.3840 -1.3121
12116TIP3    H257840   2.880   5.697  14.433  0.4326  0.8294 -0.8473
12117TIP3   OH257841   6.775   0.937   3.614 -0.1687 -0.1475  0.3179
12117TIP3    H157842   6.810   0.849   3.630  1.0588 -0.0441 -1.4944
12117TIP3    H257843   6.789   0.984   3.696  1.8138 -0.8448  0.4352
12118TIP3   OH257844   2.810   4.472  12.983 -0.0983  0.3238 -0.7050
12118TIP3    H157845   2.725   4.515  12.995  0.1103  0.0891  2.4755
12118TIP3    H257846   2.807   4.395  13.040  2.2420  0.3367 -0.4340
12119TIP3   OH257847   2.490   3.422   6.465 -0.0292 -0.0531 -0.0707
12119TIP3    H157848   2.571   3.450   6.424 -0.1055  0.3836  0.0725
12119TIP3    H257849   2.483   3.329   6.444  1.3434 -0.5022  1.2879
12120TIP3   OH257850   0.156   3.172   0.737  0.0652 -0.6026  0.2911
12120TIP3    H157851   0.092   3.214   0.793  0.4928 -1.2564  1.2979
12120TIP3    H257852   0.120   3.085   0.720  0.2261 -0.6244  0.0572
12121TIP3   OH257853   0.440   1.210   2.156 -0.6375 -0.0924 -0.3938
12121TIP3    H157854   0.536   1.213   2.164 -0.6201 -0.7449 -0.2879
12121TIP3    H257855   0.408   1.251   2.237 -0.4613  1.5812 -1.1291
12122TIP3   OH257856   3.582   0.706  14.209  0.1458  0.6392 -0.4004
12122TIP3    H157857   3.649   0.719  14.141  0.6520  1.3836  0.2313
12122TIP3    H257858   3.631   0.706  14.291 -0.4681 -0.2683 -0.0268
12123TIP3   OH257859   5.144   3.249   1.261  0.2620  0.3424 -0.1323
12123TIP3    H157860   5.194   3.167   1.264  0.1212  0.1182 -2.2330
12123TIP3    H257861   5.167   3.287   1.176 -3.3105  0.1045 -1.3611
12124TIP3   OH257862   3.852   1.108   5.873  0.4758  0.3788  0.2546
12124TIP3    H157863   3.924   1.070   5.923 -0.9299 -0.6715  1.5539
12124TIP3    H257864   3.876   1.094   5.782  0.8093 -2.1772  0.6783
12125TIP3   OH257865   1.162   2.345   2.474 -0.5409 -0.2540 -0.4126
12125TIP3    H157866   1.143   2.260   2.434 -1.3832  0.1681 -0.9290
12125TIP3    H257867   1.161   2.406   2.401  1.4338  0.0184 -0.2605
12126TIP3   OH257868   3.586   2.908   5.432  0.0776 -0.0721 -0.6391
12126TIP3    H157869   3.624   2.873   5.351 -1.8741 -2.6761 -0.5663
12126TIP3    H257870   3.498   2.936   5.407  0.1657  0.9856  0.1953
12127TIP3   OH257871   4.922   2.877   4.158 -0.0094  0.0965 -0.6048
12127TIP3    H157872   4.970   2.862   4.076 -0.8880 -1.1401 -0.9236
12127TIP3    H257873   4.978   2.936   4.208  1.5600 -0.8190 -1.2042
12128TIP3   OH257874   3.062   1.059  13.424 -0.7883  0.4849 -0.2688
12128TIP3    H157875   3.151   1.039  13.451 -1.1126  0.5857  0.9310
12128TIP3    H257876   3.035   0.983  13.372  0.8123  1.5008 -2.7811
12129TIP3   OH257877   6.062   4.226   3.865 -0.3000 -0.2714 -0.0342
12129TIP3    H157878   5.981   4.269   3.889 -0.8103 -0.2476 -1.6835
12129TIP3    H257879   6.106   4.209   3.948 -2.1935 -0.6960  0.9275
12130TIP3   OH257880   5.768   3.628   2.197 -0.3115  0.5401 -0.3895
12130TIP3    H157881   5.766   3.637   2.292 -0.4789 -0.1842 -0.3216
12130TIP3    H257882   5.718   3.703   2.165  0.2580  1.1188  0.0666
12131TIP3   OH257883   5.651   6.376  16.471 -0.0110 -0.4011  0.6567
12131TIP3    H157884   5.702   6.455  16.459  1.0101 -1.3510 -1.9230
12131TIP3    H257885   5.708   6.318  16.521  1.1653 -1.1006 -1.3796
12132TIP3   OH257886   6.169   4.361   1.483  0.1065 -0.1331 -0.1856
12132TIP3    H157887   6.135   4.309   1.409 -0.9706 -1.5384  1.2173
12132TIP3    H257888   6.218   4.298   1.536 -1.3846  0.1766  1.6745
12133TIP3   OH257889   6.383   2.357  12.657 -0.5238  0.2451  0.1762
12133TIP3    H157890   6.406   2.287  12.596  0.7580 -0.8132  1.7951
12133TIP3    H257891   6.297   2.332  12.691 -3.4880  3.0216 -4.1495
12134TIP3   OH257892   1.526   5.878   2.996  0.1484 -0.0942 -0.3816
12134TIP3    H157893   1.566   5.794   3.014  0.5039 -0.0573 -0.9653
12134TIP3    H257894   1.597   5.942   3.006  0.0899  0.0406 -0.8043
12135TIP3   OH257895   0.132   2.310  12.291 -0.2829 -0.4926  0.8208
12135TIP3    H157896   0.220   2.279  12.312  1.1280  2.1930 -0.5851
12135TIP3    H257897   0.110   2.368  12.363 -0.5111 -0.4436  0.7110
12136TIP3   OH257898   1.683   3.179   0.467  0.0480 -0.0054 -0.6101
12136TIP3    H157899   1.663   3.264   0.429  0.0427 -0.0077 -0.6127
12136TIP3    H257900   1.599   3.133   0.468 -0.0703  0.2210 -0.0160
12137TIP3   OH257901   3.841   2.877  14.041  0.2855 -0.4604 -0.2031
12137TIP3    H157902   3.882   2.842  14.120  1.3747  1.1547 -0.0208
12137TIP3    H257903   3.881   2.826  13.970 -0.4371 -1.6765  0.2304
12138TIP3   OH257904   5.374   5.748   4.384  0.0855 -0.4017  0.3103
12138TIP3    H157905   5.397   5.769   4.474 -1.1423  1.0826  0.3082
12138TIP3    H257906   5.401   5.824   4.333 -0.0865 -0.8267 -0.4419
12139TIP3   OH257907   5.324   4.004  12.174  1.0607 -0.2032  0.3766
12139TIP3    H157908   5.396   4.056  12.210  0.7753  0.1371  0.4532
12139TIP3    H257909   5.270   3.982  12.249  0.9499 -0.2499  0.2826
12140TIP3   OH257910   4.284   3.223  15.658 -0.1057 -0.0854  0.6913
12140TIP3    H157911   4.254   3.172  15.733  0.6686 -0.6720  0.6097
12140TIP3    H257912   4.340   3.163  15.609 -1.5757 -0.1211 -1.0368
12141TIP3   OH257913   0.539   1.304  10.734 -0.0972  0.0647 -0.4714
12141TIP3    H157914   0.617   1.358  10.740  0.6112 -0.9124 -0.6252
12141TIP3    H257915   0.553   1.235  10.799 -1.2892  0.4266  0.1991
12142TIP3   OH257916   5.182   3.621   0.115 -0.1977 -0.2462  0.1374
12142TIP3    H157917   5.247   3.563   0.076  0.2182  1.1439 -1.3801
12142TIP3    H257918   5.231   3.676   0.175 -0.1208  0.1892 -0.3162
12143TIP3   OH257919   2.072   1.162   1.743 -0.0710  0.5349  0.0685
12143TIP3    H157920   2.034   1.245   1.714  1.3918  1.4069  0.5117
12143TIP3    H257921   2.163   1.184   1.767 -0.1871 -0.7903  2.0303
12144TIP3   OH257922   5.574   0.828   2.493 -0.4079 -0.2458 -0.0291
12144TIP3    H157923   5.491   0.781   2.482 -0.8679  0.0452  1.8592
12144TIP3    H257924   5.630   0.767   2.542  0.0778  0.0202 -0.2419
12145TIP3   OH257925   0.150   0.147  10.581 -0.2569 -0.3537  0.0103
12145TIP3    H157926   0.114   0.202  10.512  1.5375  1.4533  0.4172
12145TIP3    H257927   0.091   0.159  10.655 -1.4517 -1.2595 -0.7735
12146TIP3   OH257928   4.015   5.776   6.578  0.1491  0.2356  0.1279
12146TIP3    H157929   4.002   5.697   6.525 -1.6091  1.5204 -1.4865
12146TIP3    H257930   4.110   5.782   6.588  0.3557 -1.9346  0.1479
12147TIP3   OH257931   4.172   3.676   1.853  0.1276 -0.4201  0.6418
12147TIP3    H157932   4.201   3.658   1.764 -0.8263  0.7475  0.0711
12147TIP3    H257933   4.183   3.771   1.863 -0.3300 -0.4516  1.5740
12148TIP3   OH257934   2.772   5.372   1.286  0.9015  0.1517 -0.5303
12148TIP3    H157935   2.803   5.426   1.359  1.5105 -1.7925  0.7555
12148TIP3    H257936   2.719   5.431   1.233 -0.4948  1.4396  2.0703
12149TIP3   OH257937   5.467   4.664   1.542  0.8397 -0.0434 -0.1214
12149TIP3    H157938   5.405   4.724   1.503  0.1908  0.4262  1.5568
12149TIP3    H257939   5.415   4.607   1.598  1.6481 -1.1220 -0.4188
12150TIP3   OH257940   4.879   4.035   3.862  0.0471 -1.1794 -0.1724
12150TIP3    H157941   4.873   4.005   3.771 -0.5655 -0.8572 -0.2453
12150TIP3    H257942   4.950   4.099   3.861 -0.4124 -0.6708 -0.5688
12151TIP3   OH257943   0.218   2.172  15.439 -0.5084  0.5932 -0.3799
12151TIP3    H157944   0.226   2.255  15.392  0.6919  0.2400 -0.8512
12151TIP3    H257945   0.308   2.150  15.464 -0.8896 -0.2336  0.3255
12152TIP3   OH257946   5.337   5.616  14.463 -0.0960 -0.3341  0.1196
12152TIP3    H157947   5.288   5.548  14.415 -0.7208  0.5373 -0.5275
12152TIP3    H257948   5.276   5.690  14.467 -0.0938 -0.3983  2.3873
12153TIP3   OH257949   4.670   0.803  15.449 -0.1051 -0.0644  0.3011
12153TIP3    H157950   4.679   0.890  15.488 -0.0781 -0.5478  1.3915
12153TIP3    H257951   4.741   0.799  15.385  1.7185 -0.3138  2.2340
12154TIP3   OH257952   0.975   4.359   2.948 -0.0877  0.2567  0.3269
12154TIP3    H157953   0.888   4.386   2.977 -0.2587  0.7490 -0.6022
12154TIP3    H257954   1.021   4.441   2.930  0.8278  0.0218  1.5092
12155TIP3   OH257955   6.190   1.654  13.803  0.1540 -0.7212 -0.3652
12155TIP3    H157956   6.244   1.694  13.871  0.0531 -0.9549 -0.1441
12155TIP3    H257957   6.100   1.676  13.826  0.2290  1.7956 -2.0912
12156TIP3   OH257958   5.137   3.370   4.576 -0.0651  0.1375 -0.2911
12156TIP3    H157959   5.137   3.463   4.554  0.5416 -0.3396 -2.5351
12156TIP3    H257960   5.100   3.327   4.499 -1.1494 -1.4381  1.0355
12157TIP3   OH257961   3.064   3.075   2.767 -0.2298 -0.3419 -0.1348
12157TIP3    H157962   2.969   3.084   2.758 -0.0416 -0.3561 -3.8728
12157TIP3    H257963   3.095   3.161   2.794 -1.0149  1.4738 -4.2605
12158TIP3   OH257964   5.942   1.387  13.195 -0.3457 -0.4762  0.3601
12158TIP3    H157965   5.926   1.475  13.160 -1.2194 -0.4925  0.6806
12158TIP3    H257966   5.869   1.372  13.255 -0.2505 -1.4536  0.2445
12159TIP3   OH257967   5.779   1.157   2.816  0.7962  0.3674 -0.0125
12159TIP3    H157968   5.782   1.209   2.896  0.4870 -1.5692  1.3215
12159TIP3    H257969   5.686   1.144   2.799  0.8787 -0.4270  0.1327
12160TIP3   OH257970   4.567   0.924  10.574 -0.0937 -0.4391 -0.1410
12160TIP3    H157971   4.555   0.835  10.609 -2.4041  0.0781  0.5909
12160TIP3    H257972   4.490   0.937  10.518  0.1270  1.1471 -0.1006
12161TIP3   OH257973   0.727   2.494  13.726 -0.1967  0.4280 -0.4836
12161TIP3    H157974   0.802   2.497  13.786 -0.1156  0.6989 -0.5991
12161TIP3    H257975   0.670   2.426  13.762  1.1156 -1.3262 -1.5728
12162TIP3   OH257976   4.470   3.024   1.140 -0.2734  0.9378 -0.3116
12162TIP3    H157977   4.533   2.989   1.203  0.6663  0.5046 -1.4508
12162TIP3    H257978   4.469   3.118   1.157 -1.3796  0.6472  1.5026
12163TIP3   OH257979   5.373   6.708   1.929 -0.1784  0.5937 -0.2680
12163TIP3    H157980   5.431   6.783   1.924  0.0875  0.6243  2.1676
12163TIP3    H257981   5.285   6.745   1.921  0.0055  0.9584 -0.6386
12164TIP3   OH257982   0.617   3.416  14.625 -0.2918 -0.0191 -0.1838
12164TIP3    H157983   0.569   3.456  14.553 -1.3182 -0.3404  0.3032
12164TIP3    H257984   0.606   3.476  14.699 -0.7071 -0.5359  0.1793
12165TIP3   OH257985   4.431   5.487  13.401  0.0321 -0.1134  0.1781
12165TIP3    H157986   4.377   5.511  13.477  1.0730  0.2417  0.8222
12165TIP3    H257987   4.383   5.415  13.360 -1.0792  0.3753  0.5648
12166TIP3   OH257988   0.499   1.812  14.623  0.3172  0.1570 -0.4094
12166TIP3    H157989   0.427   1.863  14.661  0.6229  1.3047 -1.3102
12166TIP3    H257990   0.545   1.775  14.699 -1.8438 -1.5351  0.1636
12167TIP3   OH257991   5.421   5.448  12.856  0.3171 -0.2315  0.3558
12167TIP3    H157992   5.356   5.387  12.891  1.6970 -1.4597  0.8848
12167TIP3    H257993   5.376   5.533  12.854 -0.7700 -0.7023  2.2941
12168TIP3   OH257994   0.774   2.702   4.363  0.1353  0.1507 -0.0928
12168TIP3    H157995   0.798   2.618   4.323  1.2841  0.3466  0.1743
12168TIP3    H257996   0.854   2.753   4.363 -0.9885  2.0610 -2.1341
12169TIP3   OH257997   6.125   2.747   2.388 -0.2475  0.0818  0.6695
12169TIP3    H157998   6.075   2.700   2.321 -2.9920 -0.2807  2.8107
12169TIP3    H257999   6.194   2.687   2.413  1.2015  0.4152 -2.0723
12170TIP3   OH258000   5.049   3.128  15.603 -0.1135  0.0711  0.0062
12170TIP3    H158001   5.056   3.100  15.511  0.7521  0.5924 -0.0954
12170TIP3    H258002   4.964   3.094  15.631 -1.0594  1.1309 -1.4125
12171TIP3   OH258003   6.274   5.957   0.108 -0.5604 -0.5393 -0.1409
12171TIP3    H158004   6.272   5.867   0.140  1.0215 -0.8921 -0.9357
12171TIP3    H258005   6.223   5.953   0.026  1.7054 -1.3708 -1.5992
12172TIP3   OH258006   4.005   5.443   3.275  0.5549 -0.0613 -0.0307
12172TIP3    H158007   3.942   5.372   3.292  0.1009  0.4662  0.5219
12172TIP3    H258008   3.996   5.502   3.350 -0.6272  1.6980 -1.4542
12173TIP3   OH258009   6.364   6.648  16.494 -0.0828  0.0781 -0.4369
12173TIP3    H158010   6.283   6.695  16.479  1.0616  2.0450 -0.7699
12173TIP3    H258011   6.377   6.596  16.414 -0.4302  0.6398 -0.8623
12174TIP3   OH258012   4.305   3.743   2.759 -0.4549  0.0129 -0.1233
12174TIP3    H158013   4.324   3.821   2.707 -0.0314  0.5309  0.7994
12174TIP3    H258014   4.236   3.770   2.820  1.3275  0.3963  1.8256
12175TIP3   OH258015   3.592   5.134  13.312  0.1712  0.0942 -0.2655
12175TIP3    H158016   3.569   5.062  13.370 -1.0172  1.1483  0.6391
12175TIP3    H258017   3.566   5.213  13.360  1.8925  1.1722 -1.0027
12176TIP3   OH258018   1.045   6.149  11.194  0.2937 -0.1823 -0.0025
12176TIP3    H158019   1.084   6.194  11.269  3.1315 -0.5776 -1.0876
12176TIP3    H258020   1.036   6.058  11.224  1.5891 -0.3791 -0.1198
12177TIP3   OH258021   5.210   0.762  10.447  0.6962  0.0698 -0.5248
12177TIP3    H158022   5.253   0.714  10.518  1.7275  0.6987 -0.6950
12177TIP3    H258023   5.268   0.837  10.431 -0.3868  0.8449 -0.9072
12178TIP3   OH258024   0.808   0.573   0.892  0.0970  0.3287  0.1405
12178TIP3    H158025   0.844   0.605   0.810  1.1478  0.1179  0.5003
12178TIP3    H258026   0.851   0.489   0.906  2.0774  1.5854  2.2605
12179TIP3   OH258027   6.686   0.904  11.644  0.1955 -0.2186  0.3659
12179TIP3    H158028   6.616   0.945  11.594 -1.1300 -0.7623  1.7066
12179TIP3    H258029   6.673   0.810  11.631 -0.7598 -0.4162  2.4017
12180TIP3   OH258030   0.458   2.601   1.826 -0.1604  0.0637  0.3882
12180TIP3    H158031   0.433   2.615   1.918 -1.2935  0.3360  0.0566
12180TIP3    H258032   0.411   2.521   1.801 -0.1348  0.1864 -0.0545
12181TIP3   OH258033   0.355   1.785  12.473  0.1783  0.4291 -0.4330
12181TIP3    H158034   0.379   1.867  12.431 -0.4428  1.7871  1.6829
12181TIP3    H258035   0.331   1.810  12.563  1.1407 -2.2102  0.6726
12182TIP3   OH258036   2.147   4.320   0.343  1.0268 -0.2730  0.1777
12182TIP3    H158037   2.083   4.373   0.391  1.1100  0.5529 -0.6205
12182TIP3    H258038   2.209   4.292   0.411 -0.2644 -1.2650  1.0079
12183TIP3   OH258039   0.985   4.679   2.085 -0.1775  0.5361 -0.0039
12183TIP3    H158040   0.967   4.692   1.992  2.1858 -1.7794 -0.9292
12183TIP3    H258041   1.023   4.763   2.113  1.0739  0.6245 -1.7366
12184TIP3   OH258042   1.867   1.670   4.800 -0.0213  0.2428 -0.3242
12184TIP3    H158043   1.806   1.638   4.867 -0.4604  0.5406 -0.5722
12184TIP3    H258044   1.953   1.660   4.839 -0.1819 -0.8086 -0.2230
12185TIP3   OH258045   0.234   0.891  14.991 -0.0630  0.6649 -0.4009
12185TIP3    H158046   0.163   0.830  14.969 -0.1569  1.3018 -2.0150
12185TIP3    H258047   0.190   0.966  15.031 -0.2165  0.7278 -0.6864
12186TIP3   OH258048   4.506   5.814   1.019  0.0584 -0.1282  0.1384
12186TIP3    H158049   4.445   5.866   1.071 -2.1117 -2.2990 -0.0207
12186TIP3    H258050   4.583   5.805   1.075 -1.2684 -0.4092  2.0359
12187TIP3   OH258051   6.402   3.872   0.039 -0.3916  0.3854 -0.0091
12187TIP3    H158052   6.371   3.960   0.060  1.7648  1.1425  0.1917
12187TIP3    H258053   6.362   3.853  -0.046 -2.2527  0.8193  0.7148
12188TIP3   OH258054   5.943   2.117   5.386 -0.1369  0.1922  0.6084
12188TIP3    H158055   6.013   2.126   5.322 -0.2512 -0.5138  0.3788
12188TIP3    H258056   5.866   2.155   5.343 -0.1575 -0.0625  0.4188
12189TIP3   OH258057   3.567   1.102   6.543 -0.0802 -0.3126  0.2401
12189TIP3    H158058   3.612   1.173   6.588  1.2029 -1.1976  0.4252
12189TIP3    H258059   3.544   1.138   6.458  0.7613  0.2532  0.2399
12190TIP3   OH258060   4.116   5.497   0.188  0.1247 -0.1444  0.3432
12190TIP3    H158061   4.022   5.480   0.195 -0.0134 -1.0852 -2.4447
12190TIP3    H258062   4.156   5.411   0.197  0.6331  0.0931  0.3467
12191TIP3   OH258063   0.988   6.761  11.343 -0.4457  0.5003  0.4215
12191TIP3    H158064   0.921   6.693  11.347  2.5884 -2.8063  0.6668
12191TIP3    H258065   0.965   6.812  11.265 -2.5727 -1.2105 -0.1841
12192TIP3   OH258066   2.110   3.709  11.522 -0.4314 -0.2833 -0.8393
12192TIP3    H158067   2.151   3.758  11.450  2.4405  0.0558  0.8587
12192TIP3    H258068   2.171   3.636  11.538 -0.4675  0.1982  1.8274
12193TIP3   OH258069   0.410   1.436   0.616  0.3065 -0.1449 -0.1469
12193TIP3    H158070   0.341   1.384   0.576  0.7992 -1.5789  0.7911
12193TIP3    H258071   0.409   1.519   0.568 -1.2732 -0.5750 -0.9078
12194TIP3   OH258072   0.298   0.749  17.295 -0.4157  0.0884 -0.4070
12194TIP3    H158073   0.259   0.690  17.230 -0.8445  0.7822 -0.7900
12194TIP3    H258074   0.301   0.697  17.376  0.6005 -0.9639 -1.0834
12195TIP3   OH258075   3.579   6.772   0.185 -0.0464 -0.2010 -0.7703
12195TIP3    H158076   3.569   6.824   0.264  0.9271  0.5054 -1.0943
12195TIP3    H258077   3.504   6.712   0.186 -2.2367  2.3478 -1.2844
12196TIP3   OH258078   2.924   3.628  14.832 -0.1253 -0.8150  0.7466
12196TIP3    H158079   2.873   3.550  14.852  0.1727 -0.8526  1.3725
12196TIP3    H258080   3.010   3.611  14.868  0.1321 -0.4583  0.3140
12197TIP3   OH258081   4.850   1.066   6.205  0.2407  0.1978 -0.6331
12197TIP3    H158082   4.779   1.037   6.261  0.1091  0.4856 -0.6469
12197TIP3    H258083   4.852   1.161   6.217 -0.8442  0.4776 -2.3247
12198TIP3   OH258084   3.992   1.083  12.482 -0.7844 -0.2166  0.2104
12198TIP3    H158085   4.005   1.068  12.576 -0.7675  0.4096  0.3095
12198TIP3    H258086   3.963   0.998  12.449  4.5102 -2.2485 -0.2768
12199TIP3   OH258087   2.374   5.752   3.546  0.1940 -0.2430 -0.1086
12199TIP3    H158088   2.416   5.719   3.625  0.7434 -0.6971 -0.5807
12199TIP3    H258089   2.282   5.728   3.556  0.1972  0.0225  0.5565
12200TIP3   OH258090   4.050   5.952   1.518 -0.4255 -0.3215  0.3245
12200TIP3    H158091   3.987   6.001   1.465  0.7665 -1.3636 -2.2357
12200TIP3    H258092   4.000   5.921   1.593 -2.0954  1.6664  0.1054
12201TIP3   OH258093   3.185   4.243  13.084 -0.7672 -0.1751  0.5024
12201TIP3    H158094   3.126   4.235  13.009 -0.9823 -0.6490  0.7160
12201TIP3    H258095   3.269   4.209  13.053 -0.1947  1.7820 -0.2343
12202TIP3   OH258096   1.094   2.379  13.971  0.4426  0.0380 -0.2204
12202TIP3    H158097   1.050   2.301  13.938 -1.1056  0.4334  0.7941
12202TIP3    H258098   1.182   2.375  13.933 -0.1182 -1.3356 -1.4815
12203TIP3   OH258099   5.808   2.315   1.301 -0.0025  0.3226 -0.3306
12203TIP3    H158100   5.845   2.366   1.373  1.4247 -0.2918 -0.6066
12203TIP3    H258101   5.882   2.299   1.242 -0.5400 -1.5508 -0.5544
12204TIP3   OH258102   6.295   6.279   1.527  0.2548 -0.3847  0.6715
12204TIP3    H158103   6.296   6.217   1.601 -3.8303  0.8679  2.0209
12204TIP3    H258104   6.216   6.257   1.478  0.9073  1.2075 -1.2240
12205TIP3   OH258105   2.805   3.504   5.808 -0.5023 -0.5760 -0.8228
12205TIP3    H158106   2.869   3.568   5.838 -1.1889  0.1937 -0.9785
12205TIP3    H258107   2.721   3.550   5.810 -1.1750 -1.7734  0.0438
12206TIP3   OH258108   1.025   6.814   2.276 -0.0025  0.0425  0.2471
12206TIP3    H158109   1.000   6.907   2.272  0.0711  0.0476 -0.2213
12206TIP3    H258110   1.094   6.806   2.210 -1.0031 -0.6474 -0.7480
12207TIP3   OH258111   0.348   3.081  11.437  0.2523 -0.4689  0.0572
12207TIP3    H158112   0.286   3.104  11.367  0.8505  0.2442 -0.2521
12207TIP3    H258113   0.303   3.014  11.488 -0.2403 -0.9284 -0.9533
12208TIP3   OH258114   2.983   0.981   6.310  0.1217  0.5896 -0.2159
12208TIP3    H158115   2.996   1.073   6.334 -1.4605  0.9106 -0.5242
12208TIP3    H258116   3.023   0.973   6.224 -0.2633  1.1473 -0.4498
12209TIP3   OH258117   4.006   6.071  17.237 -0.1738 -1.1884  0.1425
12209TIP3    H158118   4.033   6.134  17.170  0.1018  0.0876  1.3851
12209TIP3    H258119   3.916   6.049  17.215 -0.1672 -0.6027 -0.5087
12210TIP3   OH258120   3.179   1.905   2.228 -0.0212  0.4429  0.0421
12210TIP3    H158121   3.186   1.947   2.143 -1.6230 -3.1759 -2.1523
12210TIP3    H258122   3.268   1.875   2.248  0.3937  1.4580 -0.2337
12211TIP3   OH258123   1.091   3.165   2.825 -0.2982  0.2830 -0.3014
12211TIP3    H158124   1.101   3.260   2.817 -1.0974  0.3150 -1.1892
12211TIP3    H258125   1.170   3.135   2.869  0.8005  1.1502 -1.6053
12212TIP3   OH258126   4.245   6.691   4.965 -0.0715  0.4619 -0.2928
12212TIP3    H158127   4.180   6.630   4.932 -0.4608  0.8700 -0.2883
12212TIP3    H258128   4.329   6.647   4.950 -0.4044 -0.5719  0.7747
12213TIP3   OH258129   1.049   4.407   5.774 -0.2719 -0.3963  0.2136
12213TIP3    H158130   1.024   4.328   5.824 -1.2145 -0.4150 -0.2688
12213TIP3    H258131   1.122   4.378   5.720 -2.4865 -1.8509 -2.2249
12214TIP3   OH258132   3.912   1.732   2.001  0.4165 -0.3769 -0.0804
12214TIP3    H158133   3.817   1.725   2.007  0.5847 -1.4862  4.3986
12214TIP3    H258134   3.941   1.642   1.985  0.7865 -0.0912 -1.1107
12215TIP3   OH258135   1.951   1.302   4.986  0.2141 -0.0280 -0.1278
12215TIP3    H158136   1.939   1.221   5.036  0.1758 -0.9333 -1.5475
12215TIP3    H258137   1.962   1.273   4.896 -1.2499  1.6469 -0.8923
12216TIP3   OH258138   0.346   5.512   5.542  0.1338 -0.2711  0.1765
12216TIP3    H158139   0.332   5.564   5.622  1.8268 -1.5857  1.4113
12216TIP3    H258140   0.414   5.450   5.566 -0.4978 -1.8363 -1.8264
12217TIP3   OH258141   2.206   2.981  16.775  0.4519  0.4665 -0.1621
12217TIP3    H158142   2.133   2.989  16.837  0.5537 -2.1017  0.3700
12217TIP3    H258143   2.164   2.983  16.689 -0.5634 -2.5421  0.1452
12218TIP3   OH258144   4.130   0.088  10.570  0.4248 -0.1336  0.2005
12218TIP3    H158145   4.099   0.151  10.505  0.5750  0.4983  0.7333
12218TIP3    H258146   4.225   0.093  10.565  0.5198  1.7471  2.1417
12219TIP3   OH258147   3.322   5.399   3.467  0.9283 -0.0385 -0.4718
12219TIP3    H158148   3.252   5.335   3.484  0.4226  0.5758 -0.1863
12219TIP3    H258149   3.310   5.423   3.375 -0.6877  1.7108  0.1082
12220TIP3   OH258150   4.193   6.690   0.806  0.1182 -0.0928 -0.4442
12220TIP3    H158151   4.137   6.762   0.836 -0.4659 -1.1846  1.2062
12220TIP3    H258152   4.255   6.732   0.746 -0.5695  1.6764 -0.0012
12221TIP3   OH258153   2.961   4.927   3.965  0.6714  0.1728 -0.4652
12221TIP3    H158154   2.924   4.994   3.908 -0.9772 -0.2262  0.0918
12221TIP3    H258155   2.901   4.922   4.039  0.6991 -1.9438 -0.5205
12222TIP3   OH258156   1.294   3.214  16.876 -0.5917  0.3882 -0.1165
12222TIP3    H158157   1.225   3.218  16.811 -0.7625  0.7738  0.0851
12222TIP3    H258158   1.343   3.135  16.854 -2.3867 -1.1269  1.0428
12223TIP3   OH258159   6.190   1.061  15.034 -0.0029 -0.7108  0.1937
12223TIP3    H158160   6.204   1.137  14.976  0.3366 -0.9040  0.0211
12223TIP3    H258161   6.171   0.989  14.974  0.8926 -1.0331  0.2928
12224TIP3   OH258162   4.501   2.852  15.817 -0.2612  0.2097 -0.2935
12224TIP3    H158163   4.560   2.855  15.892 -0.0445  0.3118 -0.4674
12224TIP3    H258164   4.419   2.815  15.852  0.4488 -1.5976 -0.4149
12225TIP3   OH258165   0.554   0.148  16.542 -0.4658 -0.1034 -0.5642
12225TIP3    H158166   0.496   0.103  16.604 -0.8297  1.7494  0.5128
12225TIP3    H258167   0.511   0.138  16.458 -1.5648 -0.0748 -0.0197
12226TIP3   OH258168   3.878   3.378  12.301  0.7531 -0.0103 -0.1416
12226TIP3    H158169   3.876   3.397  12.208 -2.4052  0.0597 -0.1581
12226TIP3    H258170   3.847   3.458  12.344 -0.1275 -0.7880  0.7490
12227TIP3   OH258171   4.477   4.394   3.342  0.0735  0.0098  0.5939
12227TIP3    H158172   4.382   4.388   3.343  0.1520 -1.9551  0.4206
12227TIP3    H258173   4.501   4.418   3.431 -0.5084 -1.8178  1.2865
12228TIP3   OH258174   1.550   4.268  11.675  0.8908 -0.1168  0.3812
12228TIP3    H158175   1.628   4.275  11.730 -0.4028 -1.9952  2.5944
12228TIP3    H258176   1.565   4.190  11.622  1.2534  0.5535 -0.5358
12229TIP3   OH258177   3.228   4.033  13.473  0.0221 -0.3613 -0.2931
12229TIP3    H158178   3.321   4.033  13.499 -0.1185 -0.9007  0.2422
12229TIP3    H258179   3.199   4.123  13.491  0.9862  0.4790 -2.5723
12230TIP3   OH258180   0.506   1.232   5.021  0.3794  0.5415 -0.0808
12230TIP3    H158181   0.411   1.231   5.030  0.2517  1.2270 -1.1702
12230TIP3    H258182   0.535   1.311   5.067  0.2009  1.4337 -1.4434
12231TIP3   OH258183   1.327   3.875  10.464  0.2075  0.5667  0.1553
12231TIP3    H158184   1.302   3.789  10.431 -0.0001  1.1584 -1.3229
12231TIP3    H258185   1.246   3.926  10.463  0.5060  1.0476  0.1494
12232TIP3   OH258186   0.921   2.662  12.169 -0.2350  0.8139  0.3270
12232TIP3    H158187   0.892   2.753  12.163 -0.6853  0.6512  0.0084
12232TIP3    H258188   0.890   2.621  12.089 -0.0867  0.3623  0.4947
12233TIP3   OH258189   2.603   5.324   1.793 -0.2012 -0.6078 -0.0006
12233TIP3    H158190   2.656   5.245   1.804  0.3045 -0.2392  0.2510
12233TIP3    H258191   2.521   5.305   1.839  0.2057 -0.7088  0.6856
12234TIP3   OH258192   3.135   1.177   5.443 -0.0711 -0.3639  0.0342
12234TIP3    H158193   3.175   1.094   5.469  0.3382 -0.1347  0.1486
12234TIP3    H258194   3.112   1.220   5.525 -0.6576 -0.5395 -0.0335
12235TIP3   OH258195   2.376   2.089  13.717  0.3519 -0.5536 -0.4011
12235TIP3    H158196   2.291   2.056  13.690  0.0452 -1.0243  1.0804
12235TIP3    H258197   2.394   2.162  13.657 -0.3006 -1.5122 -1.8087
12236TIP3   OH258198   5.244   1.738   3.475  0.5761  0.3499  0.2423
12236TIP3    H158199   5.227   1.750   3.382 -1.2733  1.5726  0.6872
12236TIP3    H258200   5.161   1.707   3.511  1.0327  0.6265  1.6137
12237TIP3   OH258201   5.689   1.400   1.594  0.0240  0.1877  0.1238
12237TIP3    H158202   5.676   1.313   1.554 -2.0834  0.2915  0.4285
12237TIP3    H258203   5.707   1.382   1.686  0.0701  0.0548  0.0885
12238TIP3   OH258204   6.619   2.367   0.934 -0.3660  0.3055  0.0573
12238TIP3    H158205   6.668   2.398   1.011  0.0676 -0.1674 -0.0164
12238TIP3    H258206   6.545   2.427   0.926  0.5145  1.3999 -0.1700
12239TIP3   OH258207   5.333   0.429   0.271 -0.2624 -0.1040  0.3780
12239TIP3    H158208   5.240   0.406   0.279 -0.5669  0.8259 -0.2110
12239TIP3    H258209   5.362   0.445   0.360  0.0684 -2.9660  0.8788
12240TIP3   OH258210   4.595   2.926  14.474 -0.3314 -0.4786  0.0226
12240TIP3    H158211   4.671   2.917  14.531 -1.0459  1.1417  1.2835
12240TIP3    H258212   4.523   2.951  14.532 -1.1409  0.9677 -1.5219
12241TIP3   OH258213   3.304   6.102   4.618  0.0060  0.5118  0.2627
12241TIP3    H158214   3.263   6.071   4.537  2.9845 -2.1626 -0.4293
12241TIP3    H258215   3.376   6.158   4.588 -0.0210  1.0506  1.1633
12242TIP3   OH258216   6.499   2.713   1.963 -0.3281  0.6140  0.3341
12242TIP3    H158217   6.470   2.705   1.872  1.6362 -0.2286 -0.2690
12242TIP3    H258218   6.432   2.667   2.013 -1.1808  0.6526 -0.7301
12243TIP3   OH258219   2.203   1.569  12.202 -0.3981  0.2212  0.3439
12243TIP3    H158220   2.129   1.533  12.250  0.3266 -1.2988  0.3849
12243TIP3    H258221   2.166   1.595  12.117 -0.7510 -1.9401 -0.2312
12244TIP3   OH258222   5.933   5.968   5.004  0.3030 -0.1369 -0.2596
12244TIP3    H158223   6.002   5.903   5.019  0.2312  0.0822  1.1266
12244TIP3    H258224   5.970   6.027   4.937  2.5581  1.4326  2.1643
12245TIP3   OH258225   6.473   0.826  12.316  0.0731  0.9548  0.9321
12245TIP3    H158226   6.463   0.769  12.391 -1.2553  0.3915  0.3439
12245TIP3    H258227   6.510   0.770  12.247 -0.2097  1.0638  0.6880
12246TIP3   OH258228   4.184   4.570  16.568  0.2859 -0.0187  0.1934
12246TIP3    H158229   4.136   4.516  16.505  0.5915  2.2455 -2.0907
12246TIP3    H258230   4.115   4.610  16.622 -0.1934  0.5535 -0.8293
12247TIP3   OH258231   5.173   2.136   6.133  0.2124  0.2569 -0.3316
12247TIP3    H158232   5.247   2.189   6.163 -0.2000  0.8918 -0.4013
12247TIP3    H258233   5.119   2.198   6.083 -0.0319 -0.3532 -0.8287
12248TIP3   OH258234   2.653   1.962   1.365  0.0004 -0.5049 -0.2799
12248TIP3    H158235   2.589   1.972   1.435  1.7340  1.1433  1.1926
12248TIP3    H258236   2.687   1.873   1.376 -0.9124 -0.8446 -0.1086
12249TIP3   OH258237   4.229   2.914   2.344 -0.0030 -0.0305 -0.0529
12249TIP3    H158238   4.140   2.912   2.378  0.0632 -0.3860  0.1119
12249TIP3    H258239   4.269   2.990   2.385 -0.0246 -0.2654  0.4206
12250TIP3   OH258240   4.346   6.455  11.129  0.3227  0.1024  0.1743
12250TIP3    H158241   4.402   6.520  11.087 -1.1893  0.3904 -1.5677
12250TIP3    H258242   4.296   6.417  11.056 -2.2652  0.3939  1.6712
12251TIP3   OH258243   0.850   6.219  13.531 -0.2166  0.6105 -0.0544
12251TIP3    H158244   0.767   6.172  13.538  0.2165  0.0158  1.4436
12251TIP3    H258245   0.873   6.242  13.621  2.5500 -1.6457 -0.0328
12252TIP3   OH258246   0.610   1.105   1.940 -0.0152 -0.3410 -0.4456
12252TIP3    H158247   0.618   1.181   1.881 -0.6865  0.7620  0.8299
12252TIP3    H258248   0.526   1.066   1.918 -0.3854  0.2264 -0.0418
12253TIP3   OH258249   4.995   0.839   3.713 -0.1563  0.0643 -0.1900
12253TIP3    H158250   4.997   0.757   3.662 -1.1826  0.6269 -1.1801
12253TIP3    H258251   5.008   0.908   3.648  1.9430  0.6763  0.7981
12254TIP3   OH258252   5.400   2.140   2.834 -0.1695  0.1127 -0.1261
12254TIP3    H158253   5.341   2.179   2.770  1.3465  0.1186 -1.5798
12254TIP3    H258254   5.391   2.045   2.820  0.8784  0.1350 -1.0575
12255TIP3   OH258255   1.967   4.089  12.838 -0.0165  0.6504 -0.5228
12255TIP3    H158256   1.957   4.099  12.932 -1.6849 -0.0162 -0.5976
12255TIP3    H258257   2.057   4.060  12.827  0.2540  0.8904  0.8469
12256TIP3   OH258258   0.329   6.043   1.307 -0.4791  0.1156 -0.4122
12256TIP3    H158259   0.334   6.118   1.367 -0.6603 -0.3508  0.2042
12256TIP3    H258260   0.320   6.082   1.220 -2.1869  0.8176  0.0436
12257TIP3   OH258261   3.391   3.595   1.263  0.4300 -0.3270 -0.1090
12257TIP3    H158262   3.367   3.503   1.271  1.3640 -0.6930 -1.1986
12257TIP3    H258263   3.367   3.618   1.173 -0.0560  0.5776  0.2447
12258TIP3   OH258264   2.298   5.850  17.030  0.0676 -0.0077  0.1287
12258TIP3    H158265   2.243   5.909  16.979 -0.9499  1.2360  2.4846
12258TIP3    H258266   2.387   5.882  17.016 -0.4928  2.4679  1.6533
12259TIP3   OH258267   1.037   1.150  11.590 -0.5518 -0.1616  0.1608
12259TIP3    H158268   1.019   1.058  11.567  1.5571 -1.0945  1.9384
12259TIP3    H258269   0.952   1.185  11.617 -1.3277 -1.7033 -0.1697
12260TIP3   OH258270   1.689   5.156   5.746  0.1257 -0.6552  0.1852
12260TIP3    H158271   1.665   5.237   5.791  1.0076  1.1477 -2.3137
12260TIP3    H258272   1.771   5.129   5.788  0.6232  0.6325  0.0939
12261TIP3   OH258273   2.162   6.421  15.990  0.0845  0.0825 -0.1549
12261TIP3    H158274   2.098   6.369  15.942 -0.4694  0.5872  0.0220
12261TIP3    H258275   2.194   6.484  15.925 -1.4589  1.4814  0.3616
12262TIP3   OH258276   2.724   3.133  13.981 -0.0614 -0.2479  0.1045
12262TIP3    H158277   2.733   3.066  14.049 -0.2151  0.3114  0.6853
12262TIP3    H258278   2.814   3.161  13.963 -0.0897  0.4167  0.9192
12263TIP3   OH258279   0.624   2.815  16.154  0.8589 -0.3092  0.3810
12263TIP3    H158280   0.637   2.720  16.161  0.7105 -0.4044 -0.5161
12263TIP3    H258281   0.581   2.839  16.235  2.4418 -0.7327  1.3970
12264TIP3   OH258282   1.712   2.873  16.043  0.2916 -0.0029  0.3505
12264TIP3    H158283   1.685   2.787  16.010  1.4316  0.2239 -1.3311
12264TIP3    H258284   1.806   2.877  16.024 -0.1274  2.4486 -1.6975
12265TIP3   OH258285   5.951   3.957   3.774  0.4521 -0.4210 -0.2696
12265TIP3    H158286   5.967   3.904   3.852 -2.6481 -0.2255  0.6363
12265TIP3    H258287   5.944   4.046   3.807  2.4328  0.1823 -1.3280
12266TIP3   OH258288   3.543   3.482  12.769  0.1574 -0.1829 -0.8753
12266TIP3    H158289   3.583   3.432  12.840  0.2332  0.4710 -0.4436
12266TIP3    H258290   3.452   3.453  12.768  0.2955 -0.6293 -0.9090
12267TIP3   OH258291   2.948   5.392  11.879  0.4405  0.3195  0.0319
12267TIP3    H158292   3.023   5.379  11.820  2.2200  0.2220  2.1795
12267TIP3    H258293   2.985   5.382  11.967 -2.5999 -2.4045  1.2041
12268TIP3   OH258294   3.043   0.306   4.019 -0.1497  0.4155  0.3064
12268TIP3    H158295   2.988   0.270   4.089 -1.6996  0.4586 -0.8179
12268TIP3    H258296   3.014   0.397   4.010  2.0424  1.3088  1.4871
12269TIP3   OH258297   3.501   2.330  11.830 -0.0664 -0.1407  0.0047
12269TIP3    H158298   3.525   2.339  11.737 -1.3489  1.3235 -0.2375
12269TIP3    H258299   3.425   2.272  11.829 -1.1526  1.2197 -0.0997
12270TIP3   OH258300   6.583   6.297   5.924  0.5574  0.2483 -0.8709
12270TIP3    H158301   6.596   6.214   5.971 -0.3965  0.0605 -0.9112
12270TIP3    H258302   6.558   6.271   5.836  2.0330  0.6032 -1.4246
12271TIP3   OH258303   5.737   6.178   2.819 -0.2642  0.2804  0.0912
12271TIP3    H158304   5.813   6.232   2.840  0.0205  0.6867 -1.7944
12271TIP3    H258305   5.747   6.099   2.872  0.4701  1.1356  1.2547
12272TIP3   OH258306   1.108   6.204  14.101 -0.2048 -0.2323 -0.4532
12272TIP3    H158307   1.092   6.298  14.112  0.6858 -0.0901 -0.3584
12272TIP3    H258308   1.060   6.163  14.173 -1.3156  0.0700 -0.9882
12273TIP3   OH258309   1.303   2.958   0.817 -0.1365 -0.6999  0.0561
12273TIP3    H158310   1.370   2.893   0.799 -0.5536 -0.9966 -0.4304
12273TIP3    H258311   1.221   2.917   0.790 -0.4606 -0.1641  0.2075
12274TIP3   OH258312   1.701   6.094  17.019  0.4203  0.1920 -0.4980
12274TIP3    H158313   1.623   6.037  17.015  0.0407  0.2890  2.9442
12274TIP3    H258314   1.689   6.145  17.098  1.5779  3.9911 -2.5485
12275TIP3   OH258315   5.912   5.467  16.766 -0.0452 -0.1505  0.2043
12275TIP3    H158316   5.881   5.378  16.756  1.9210 -0.8358 -0.1974
12275TIP3    H258317   5.873   5.515  16.693  1.6426 -1.5237 -1.7268
12276TIP3   OH258318   0.746   2.089   0.733 -0.1231  0.2371 -0.8569
12276TIP3    H158319   0.660   2.095   0.775  0.8721  0.1638  1.3520
12276TIP3    H258320   0.754   1.997   0.707 -0.0427 -0.1788  0.5473
12277TIP3   OH258321   5.492   4.151  15.033  0.0696  0.4951  0.1596
12277TIP3    H158322   5.447   4.110  15.106  0.6670  0.2046  0.3699
12277TIP3    H258323   5.515   4.078  14.974  0.1282  0.6550 -0.0182
12278TIP3   OH258324   4.413   3.887   1.918  0.4714  0.7373  0.4820
12278TIP3    H158325   4.494   3.926   1.885  1.4666 -0.1359  1.7699
12278TIP3    H258326   4.416   3.796   1.887  1.8884 -0.3788  3.5264
12279TIP3   OH258327   6.277   1.441  15.958 -0.7220 -0.4077 -0.0435
12279TIP3    H158328   6.352   1.426  15.900 -0.1598  1.1994  0.2319
12279TIP3    H258329   6.289   1.530  15.991 -3.2522  0.2614 -0.7262
12280TIP3   OH258330   0.518   0.674  16.974 -0.3644  0.0357  0.0278
12280TIP3    H158331   0.432   0.632  16.961 -0.9242  1.3073 -0.5646
12280TIP3    H258332   0.517   0.749  16.915  0.4071  1.1648  1.3877
12281TIP3   OH258333   4.414   3.777  16.377 -0.1684  0.2404  0.1415
12281TIP3    H158334   4.364   3.830  16.439  3.1610  3.0886  0.6621
12281TIP3    H258335   4.422   3.831  16.299 -1.7328 -2.0995 -1.8286
12282TIP3   OH258336   3.444   1.625   4.914 -0.0700 -1.0037  0.6115
12282TIP3    H158337   3.377   1.691   4.895  1.6639  0.6524 -0.0855
12282TIP3    H258338   3.451   1.574   4.833  0.0488 -0.6615  0.4019
12283TIP3   OH258339   5.833   2.152   6.204 -0.0913 -0.2896  0.1290
12283TIP3    H158340   5.808   2.195   6.122 -0.8911 -0.2946  0.3615
12283TIP3    H258341   5.755   2.158   6.259 -0.1981 -1.9550  0.2156
12284TIP3   OH258342   2.320   5.121  14.979  0.0525 -0.3792  0.2861
12284TIP3    H158343   2.348   5.212  14.992  0.5810 -0.2041 -1.6327
12284TIP3    H258344   2.226   5.127  14.967 -0.3282 -0.4646  2.8668
12285TIP3   OH258345   2.600   2.153   0.415  0.5518 -0.0687 -0.2484
12285TIP3    H158346   2.570   2.163   0.505  2.1072  0.4819  0.2327
12285TIP3    H258347   2.627   2.241   0.389 -1.2291  0.0842 -1.7855
12286TIP3   OH258348   0.128   5.542   4.655  0.6662 -0.1843 -0.0316
12286TIP3    H158349   0.156   5.633   4.646 -1.8253  0.5317 -1.6780
12286TIP3    H258350   0.168   5.496   4.582  0.0347  0.1543 -0.6013
12287TIP3   OH258351   1.957   4.930   6.343  0.2418 -0.0007 -0.1287
12287TIP3    H158352   2.037   4.897   6.383  0.3617  0.7741  0.2941
12287TIP3    H258353   1.948   5.019   6.377  0.5277  0.8187 -2.0839
12288TIP3   OH258354   0.251   5.148  11.969 -0.3747 -0.0063  0.2156
12288TIP3    H158355   0.343   5.165  11.949 -0.3847 -0.9806 -0.7830
12288TIP3    H258356   0.245   5.053  11.978 -1.6034 -0.1631 -1.6783
12289TIP3   OH258357   5.639   1.393  12.934 -0.3257  0.6502 -0.1594
12289TIP3    H158358   5.646   1.379  12.840 -1.5184  1.7919 -0.4437
12289TIP3    H258359   5.707   1.337  12.972 -0.4153 -0.5044 -1.6252
12290TIP3   OH258360   4.473   1.682  11.707 -0.1245  0.1851 -0.5304
12290TIP3    H158361   4.462   1.721  11.794  1.5536  1.6243 -0.8964
12290TIP3    H258362   4.531   1.743  11.661 -0.6192 -0.7735 -2.5200
12291TIP3   OH258363   5.673   5.139   4.611 -0.3300 -0.1040  0.4292
12291TIP3    H158364   5.761   5.105   4.625  0.4130  1.7142  0.4566
12291TIP3    H258365   5.682   5.198   4.536 -1.4190  0.4937  0.7434
12292TIP3   OH258366   0.355   5.503   4.384 -0.0856 -0.5108 -0.2057
12292TIP3    H158367   0.284   5.438   4.377  0.5447 -1.1516 -0.8637
12292TIP3    H258368   0.319   5.572   4.439  0.2565 -2.8860  3.4018
12293TIP3   OH258369   5.857   4.028  13.191  0.3006  0.0379 -0.8125
12293TIP3    H158370   5.795   4.087  13.234 -0.5544 -1.6042  0.2827
12293TIP3    H258371   5.872   3.958  13.254  0.1106 -1.7336 -2.6256
12294TIP3   OH258372   1.806   5.433  12.897 -0.0310 -0.0560  0.2036
12294TIP3    H158373   1.879   5.373  12.910  1.6613  1.6969 -0.6308
12294TIP3    H258374   1.775   5.414  12.808  0.5299  0.3109 -0.0767
12295TIP3   OH258375   2.051   6.304  15.604 -0.1719  0.7598 -0.0769
12295TIP3    H158376   2.070   6.394  15.577 -0.8757  0.8319 -0.3788
12295TIP3    H258377   2.115   6.250  15.556  0.2004  1.0913  0.0457
12296TIP3   OH258378   4.402   5.357   1.430 -0.1511  0.1093  0.1143
12296TIP3    H158379   4.446   5.357   1.516  0.7461  3.7406 -0.1769
12296TIP3    H258380   4.461   5.309   1.373 -0.0138 -1.0312  1.1602
12297TIP3   OH258381   2.289   3.393  14.432 -0.4668 -0.1876 -0.2296
12297TIP3    H158382   2.249   3.346  14.505 -1.1252  0.6996 -0.0059
12297TIP3    H258383   2.343   3.460  14.473  1.6764 -1.6461 -0.5138
12298TIP3   OH258384   2.125   3.779   1.439 -0.3922  0.5675  0.4269
12298TIP3    H158385   2.104   3.859   1.486  0.3484  0.9560  0.1110
12298TIP3    H258386   2.044   3.755   1.395 -1.1001  0.2048  1.8679
12299TIP3   OH258387   5.844   2.693  15.865 -0.1716  0.5812  0.0125
12299TIP3    H158388   5.849   2.788  15.873  1.2803  0.8393 -2.5860
12299TIP3    H258389   5.905   2.672  15.793 -1.4037 -2.1706 -0.3646
12300TIP3   OH258390   3.292   6.533   2.195 -0.2670 -0.2805  0.0486
12300TIP3    H158391   3.314   6.455   2.246  0.5641 -0.7172 -0.9429
12300TIP3    H258392   3.203   6.555   2.222  0.1999 -0.3997  1.7797
12301TIP3   OH258393   1.183   6.093   1.781  0.0732 -0.0420 -0.0739
12301TIP3    H158394   1.214   6.006   1.758  0.2403 -0.0152  0.0542
12301TIP3    H258395   1.099   6.101   1.734  0.7474  0.2859 -1.2772
12302TIP3   OH258396   5.007   0.509   4.230 -0.3134 -0.0759  0.2611
12302TIP3    H158397   5.015   0.582   4.169 -0.9403 -0.1058  0.1323
12302TIP3    H258398   5.061   0.439   4.192 -0.7841 -0.1311 -0.3188
12303TIP3   OH258399   2.369   0.538  12.832 -0.4173  0.0861 -0.2193
12303TIP3    H158400   2.329   0.452  12.848  0.6436 -0.0289  2.3593
12303TIP3    H258401   2.369   0.580  12.918  2.2123  1.2736 -0.7139
12304TIP3   OH258402   6.294   3.573  15.214  0.3025 -0.4813 -0.7378
12304TIP3    H158403   6.284   3.668  15.221  0.9021 -0.5005  0.8782
12304TIP3    H258404   6.350   3.561  15.137  2.3736  0.6920  0.4634
12305TIP3   OH258405   4.145   3.661  15.167 -0.0293 -0.2265 -0.5607
12305TIP3    H158406   4.080   3.690  15.231 -0.9090 -0.5641 -1.2682
12305TIP3    H258407   4.195   3.593  15.212 -0.1944  0.0089 -0.0124
12306TIP3   OH258408   6.018   4.978   3.218 -0.3112  0.1602 -0.1139
12306TIP3    H158409   6.045   5.070   3.221 -1.9295  0.6456  1.6248
12306TIP3    H258410   6.050   4.941   3.300 -0.4683 -0.5895 -0.3881
12307TIP3   OH258411   1.126   6.693  11.572  0.0956 -0.1187  0.3899
12307TIP3    H158412   1.090   6.703  11.484 -0.7373 -0.1521  0.7179
12307TIP3    H258413   1.051   6.706  11.630  0.6438 -0.0724  1.0948
12308TIP3   OH258414   2.078   4.209  17.121  0.2002  0.2304 -0.4521
12308TIP3    H158415   2.142   4.270  17.158 -0.2405  0.7578 -0.5523
12308TIP3    H258416   2.030   4.260  17.056 -0.3786 -0.1256 -0.3175
12309TIP3   OH258417   0.325   5.232   3.494 -0.6612 -0.1309  0.4078
12309TIP3    H158418   0.399   5.213   3.437 -1.4336  0.6293 -0.8988
12309TIP3    H258419   0.268   5.288   3.441 -1.1294  1.1198  2.1406
12310TIP3   OH258420   0.334   4.251  14.446  0.2810 -0.7220  0.1924
12310TIP3    H158421   0.395   4.214  14.510  1.7327  0.5374 -0.3886
12310TIP3    H258422   0.308   4.336  14.483  0.3408 -0.4376 -0.3966
12311TIP3   OH258423   1.510   1.000  14.835 -0.2573 -0.5573  0.1777
12311TIP3    H158424   1.550   1.037  14.914 -1.7606  1.3365  0.1205
12311TIP3    H258425   1.512   0.906  14.849 -0.1412 -0.2797  2.3160
12312TIP3   OH258426   6.105   2.913  17.006  0.3748  0.9184 -0.4800
12312TIP3    H158427   6.111   2.885  17.097 -1.9656 -0.0261 -0.5434
12312TIP3    H258428   6.120   2.834  16.955  2.3295  1.5678 -0.9986
12313TIP3   OH258429   2.929   6.740  12.771  0.1681 -1.1307 -0.2481
12313TIP3    H158430   2.993   6.698  12.828  0.3072 -0.7796 -0.1438
12313TIP3    H258431   2.914   6.676  12.701  2.5310 -0.2870 -1.6770
12314TIP3   OH258432   6.491   2.034  12.994  0.1406 -0.2321 -0.0075
12314TIP3    H158433   6.461   2.027  12.904  1.1463  0.1310 -0.3860
12314TIP3    H258434   6.427   1.983  13.045 -0.1831 -0.8133 -0.9685
12315TIP3   OH258435   5.791   3.162   0.077 -0.2924 -0.2252 -0.8969
12315TIP3    H158436   5.883   3.143   0.098 -0.4263 -1.6939 -1.5009
12315TIP3    H258437   5.744   3.140   0.157 -0.2602 -0.8507 -1.0449
12316TIP3   OH258438   5.845   2.408   2.618 -0.5192  0.5468 -0.2110
12316TIP3    H158439   5.811   2.464   2.688  2.2009  1.2269  0.6833
12316TIP3    H258440   5.915   2.459   2.577 -1.1168 -0.3898 -2.5828
12317TIP3   OH258441   5.841   5.756  14.836 -0.4781 -0.4496 -0.4481
12317TIP3    H158442   5.929   5.727  14.859 -0.9864 -1.9314 -0.3127
12317TIP3    H258443   5.851   5.799  14.751  0.4123 -0.3529 -0.2984
12318TIP3   OH258444   0.001   5.649  12.044  1.0660 -0.2448  0.3729
12318TIP3    H158445   0.066   5.651  12.114 -0.5851 -1.7108  2.0642
12318TIP3    H258446   0.003   5.559  12.012  0.2674 -0.1586  0.0611
12319TIP3   OH258447   2.410   0.770   4.722  0.4044  0.0888  0.0785
12319TIP3    H158448   2.339   0.707   4.716  0.4327  0.1520 -1.2369
12319TIP3    H258449   2.419   0.788   4.815 -1.7645  0.6167  0.2283
12320TIP3   OH258450   3.380   3.550  15.291  0.3068  0.6079 -0.6891
12320TIP3    H158451   3.306   3.604  15.318 -1.1365 -0.6921 -1.8591
12320TIP3    H258452   3.389   3.567  15.197  0.8123 -0.0380 -0.7692
12321TIP3   OH258453   3.584   1.305  13.605 -0.2020 -0.2203  0.0596
12321TIP3    H158454   3.643   1.291  13.531 -0.4239  0.2061 -0.2019
12321TIP3    H258455   3.528   1.378  13.577 -1.1057 -0.8642  0.1424
12322TIP3   OH258456   4.290   6.187  12.929 -0.8816 -0.3650 -0.5397
12322TIP3    H158457   4.255   6.258  12.982  2.2125 -0.1003  1.3744
12322TIP3    H258458   4.357   6.227  12.875  1.8077 -1.8625  1.4618
12323TIP3   OH258459   4.597   1.908  11.283  0.5053  0.0504  0.1940
12323TIP3    H158460   4.541   1.896  11.206  1.9568 -2.2087 -0.6114
12323TIP3    H258461   4.643   1.990  11.267  0.4727 -0.1725 -1.1551
12324TIP3   OH258462   2.194   4.112  11.820  0.1936  0.6704  0.3660
12324TIP3    H158463   2.243   4.030  11.812  0.2955  0.8445 -1.2310
12324TIP3    H258464   2.228   4.167  11.749 -1.6550  1.1157 -0.2409
12325TIP3   OH258465   0.888   5.291   1.437 -0.3288  0.4609 -0.0663
12325TIP3    H158466   0.950   5.275   1.508  0.2598  2.0081 -0.1888
12325TIP3    H258467   0.930   5.254   1.360 -1.0290 -1.3444  0.3648
12326TIP3   OH258468   2.341   3.112  17.153 -0.1964  0.2772 -0.0909
12326TIP3    H158469   2.417   3.063  17.184 -0.3792  0.1165  0.1079
12326TIP3    H258470   2.349   3.198  17.194 -0.4989  0.0289  0.5056
12327TIP3   OH258471   0.381   6.247  13.838  0.2354  0.3625  0.2899
12327TIP3    H158472   0.296   6.213  13.810 -0.4793  1.6411  0.8301
12327TIP3    H258473   0.413   6.298  13.764  1.5133 -1.7108 -0.6913
12328TIP3   OH258474   0.760   3.178  16.028 -0.0252  0.4926  0.3269
12328TIP3    H158475   0.703   3.207  15.957  0.0764  1.4772  0.6189
12328TIP3    H258476   0.701   3.143  16.094 -0.1030 -0.6285 -0.3148
12329TIP3   OH258477   5.691   1.493  11.674  0.0425 -0.5069  0.2860
12329TIP3    H158478   5.686   1.575  11.625  1.7591  0.0958  1.0430
12329TIP3    H258479   5.660   1.426  11.612  2.6108  0.1257 -1.9283
12330TIP3   OH258480   6.176   3.497  13.747 -0.3461 -0.8478  0.4147
12330TIP3    H158481   6.086   3.465  13.750 -1.2637  1.5884  1.0734
12330TIP3    H258482   6.209   3.484  13.836  0.4560 -2.9021 -0.1272
12331TIP3   OH258483   6.050   1.548   0.441  0.1732 -0.3404 -0.6182
12331TIP3    H158484   6.015   1.636   0.438  1.1583  0.0734 -0.4824
12331TIP3    H258485   6.131   1.552   0.390  0.4364 -1.0608 -0.2837
12332TIP3   OH258486   4.514   5.673  10.617  0.2037 -0.1701 -0.7052
12332TIP3    H158487   4.451   5.657  10.546 -1.7131 -1.3693  1.1572
12332TIP3    H258488   4.550   5.587  10.637  0.8837  0.1898 -0.3486
12333TIP3   OH258489   2.325   0.074  12.726  0.1484 -0.4287 -0.4804
12333TIP3    H158490   2.364   0.152  12.684 -0.9245  0.1891 -0.3701
12333TIP3    H258491   2.394   0.040  12.782 -0.3290  2.4083  2.1043
12334TIP3   OH258492   3.740   2.470   2.937 -0.5949  0.0534  0.6078
12334TIP3    H158493   3.674   2.505   2.878 -0.7782  0.1695  0.8800
12334TIP3    H258494   3.796   2.545   2.959 -0.5183  0.0080  0.5681
12335TIP3   OH258495   3.313   3.029  11.079  0.5342  0.0357  0.2928
12335TIP3    H158496   3.336   3.122  11.082  1.6030 -0.1831 -0.3921
12335TIP3    H258497   3.315   3.007  10.986 -0.5438 -0.4910  0.3771
12336TIP3   OH258498   4.941   2.107   1.308  0.5691 -0.3654 -0.2067
12336TIP3    H158499   4.947   2.186   1.361 -1.5713 -0.4636  0.2731
12336TIP3    H258500   5.031   2.078   1.298  1.3226  1.5618  0.4553
12337TIP3   OH258501   0.981   3.183  12.193 -0.1424 -0.4323 -0.0727
12337TIP3    H158502   0.913   3.245  12.165  1.2189  1.5000  0.6367
12337TIP3    H258503   1.030   3.164  12.113  0.1710  0.4187 -0.0943
12338TIP3   OH258504   4.039   3.531  13.564  0.4357  0.3864  0.5284
12338TIP3    H158505   4.062   3.588  13.490 -0.7307  1.5973  1.0788
12338TIP3    H258506   3.957   3.490  13.538  0.3516  0.3229  0.8924
12339TIP3   OH258507   0.009   6.648   5.249  0.2400 -0.0009 -0.2274
12339TIP3    H158508  -0.077   6.656   5.291 -0.2805  2.6072 -1.5918
12339TIP3    H258509   0.048   6.735   5.256  1.2299 -0.1481 -2.7676
12340TIP3   OH258510   2.625   5.947   3.885  0.2837  0.0498 -0.3023
12340TIP3    H158511   2.626   5.939   3.789 -0.6196  1.0656 -0.4178
12340TIP3    H258512   2.532   5.953   3.907  0.3580 -2.0532  0.8335
12341TIP3   OH258513   4.259   5.085  16.040  0.7823  0.1106 -0.4238
12341TIP3    H158514   4.308   5.024  15.985 -0.7428 -0.5350 -1.1160
12341TIP3    H258515   4.290   5.067  16.129  2.7375  0.6564 -0.9419
12342TIP3   OH258516   2.432   4.158  13.574 -0.0765  0.2953  0.8169
12342TIP3    H158517   2.430   4.171  13.668 -0.2056  1.4861  0.6645
12342TIP3    H258518   2.378   4.080  13.560  0.2583 -0.1183  1.7494
12343TIP3   OH258519   6.472   1.625   0.661 -0.1002  0.2326 -0.2674
12343TIP3    H158520   6.457   1.712   0.699 -1.2887 -0.3172  0.5921
12343TIP3    H258521   6.567   1.611   0.669 -0.1682  0.6051  1.4987
12344TIP3   OH258522   5.896   6.638   5.295  0.9010 -0.4513  0.5177
12344TIP3    H158523   5.892   6.563   5.235  0.5682 -0.8486  1.0279
12344TIP3    H258524   5.807   6.674   5.293  1.0480 -0.0996  0.3125
12345TIP3   OH258525   6.221   1.319  15.697  0.4488 -0.3794  0.2327
12345TIP3    H158526   6.160   1.301  15.625 -1.9675  0.3012  1.9703
12345TIP3    H258527   6.254   1.407  15.678 -1.6725  0.6103  0.8597
12346TIP3   OH258528   6.686   1.739  15.582  0.3212  0.5613 -0.2934
12346TIP3    H158529   6.767   1.789  15.592  0.5541  0.0061  0.7456
12346TIP3    H258530   6.623   1.802  15.547  0.8995  1.2928 -0.0352
12347TIP3   OH258531   3.178   5.426   5.756 -0.4204 -0.4511  0.1353
12347TIP3    H158532   3.173   5.331   5.744  0.2137 -0.7658  1.9693
12347TIP3    H258533   3.199   5.461   5.669 -3.7913 -1.6399 -1.3532
12348TIP3   OH258534   1.758   4.628   2.410  0.0865  0.5411 -0.3189
12348TIP3    H158535   1.803   4.708   2.386  0.8077  0.7723  1.6391
12348TIP3    H258536   1.694   4.614   2.340  1.8262  1.2781 -2.1255
12349TIP3   OH258537   3.757   0.813   5.996 -0.3103 -0.3337  0.3121
12349TIP3    H158538   3.665   0.791   5.978 -0.1676  0.2311 -1.3365
12349TIP3    H258539   3.753   0.885   6.058 -1.0573  0.5774 -0.7490
12350TIP3   OH258540   3.137   6.687   5.291  0.2475  0.4057 -0.2675
12350TIP3    H158541   3.102   6.759   5.344 -0.7196  0.6236 -1.1889
12350TIP3    H258542   3.078   6.614   5.307  1.7540 -0.5197  1.4004
12351TIP3   OH258543   1.370   3.162   1.691 -0.2579 -0.1463  0.2962
12351TIP3    H158544   1.355   3.198   1.779 -0.3680 -2.3744  1.2567
12351TIP3    H258545   1.283   3.144   1.657 -0.1772 -0.6135  0.3291
12352TIP3   OH258546   2.115   3.235  13.994 -0.1643 -0.3556  0.1258
12352TIP3    H158547   2.174   3.244  14.068 -0.7018  1.4101  0.3923
12352TIP3    H258548   2.047   3.301  14.009 -1.1238 -0.9969 -1.1581
12353TIP3   OH258549   1.102   6.116   2.057 -0.3479 -0.6072 -0.4310
12353TIP3    H158550   1.095   6.024   2.084 -0.9446 -0.8335 -1.3010
12353TIP3    H258551   1.141   6.111   1.969 -1.5115 -0.1086 -0.9821
12354TIP3   OH258552   2.604   1.412  17.079 -0.1546  0.1341  0.3267
12354TIP3    H158553   2.539   1.455  17.135 -0.1374  0.0004  0.4467
12354TIP3    H258554   2.644   1.484  17.030  0.3734  0.3375  1.0470
12355TIP3   OH258555   4.843   4.734   0.006 -0.8900 -0.4790  0.1748
12355TIP3    H158556   4.910   4.801   0.018 -1.4280 -0.1387  1.4550
12355TIP3    H258557   4.776   4.777  -0.047 -0.6384 -0.4254 -0.0989
12356TIP3   OH258558   5.231   2.398   2.467  0.9348 -0.0733  0.6322
12356TIP3    H158559   5.260   2.481   2.430  0.8184 -0.9236 -1.4825
12356TIP3    H258560   5.300   2.336   2.445 -0.2080 -1.0947 -0.1871
12357TIP3   OH258561   3.512   2.223   3.995  1.0263 -0.1085 -0.3622
12357TIP3    H158562   3.585   2.273   3.958  1.5931 -0.9472 -0.4193
12357TIP3    H258563   3.535   2.132   3.978 -0.6853 -0.3648 -1.5638
12358TIP3   OH258564   3.788   5.325   1.994 -0.0591 -0.6178  0.4962
12358TIP3    H158565   3.806   5.375   2.074  0.7013 -0.0324 -0.0249
12358TIP3    H258566   3.780   5.235   2.024  0.0138 -0.3825  1.2618
12359TIP3   OH258567   2.658   3.346  12.904 -0.5456 -0.6561  0.0428
12359TIP3    H158568   2.569   3.316  12.919 -0.9292  0.7244  0.6414
12359TIP3    H258569   2.649   3.421  12.846  0.2031 -0.3086  0.3553
12360TIP3   OH258570   0.725   2.449   4.113  0.1105  0.3094 -0.1098
12360TIP3    H158571   0.710   2.542   4.100 -0.2607  0.1973 -0.5438
12360TIP3    H258572   0.770   2.421   4.033 -1.1649 -0.1732 -0.7029
12361TIP3   OH258573   3.159   2.744  15.227 -0.1228 -0.4613  0.0572
12361TIP3    H158574   3.070   2.766  15.256 -0.5341 -1.4991 -0.3685
12361TIP3    H258575   3.215   2.803  15.276 -1.0061 -0.2381  0.8303
12362TIP3   OH258576   6.759   2.364   4.200 -0.7477 -0.4236 -0.3015
12362TIP3    H158577   6.788   2.445   4.243 -0.4881 -0.2474 -0.8064
12362TIP3    H258578   6.742   2.389   4.110  0.0905 -1.0935 -0.6643
12363TIP3   OH258579   2.569   0.976   3.093  0.2640 -0.4794  0.2827
12363TIP3    H158580   2.542   0.921   3.167 -1.0929 -0.9531 -0.5205
12363TIP3    H258581   2.515   1.055   3.101  0.1452 -0.5127 -0.1720
12364TIP3   OH258582   3.012   6.399   0.695  0.2184  0.3615  0.5483
12364TIP3    H158583   3.098   6.399   0.735 -0.1732 -0.4093  1.4330
12364TIP3    H258584   2.956   6.354   0.758 -0.0649 -2.6393 -1.6298
12365TIP3   OH258585   2.005   0.669  12.414 -0.4721 -0.4127  0.3069
12365TIP3    H158586   2.044   0.677  12.501 -0.9303  0.8340  0.4132
12365TIP3    H258587   2.080   0.660  12.354 -0.1023  0.1744  0.6828
12366TIP3   OH258588   4.746   1.779   0.889  0.5307 -0.0399 -0.4226
12366TIP3    H158589   4.836   1.795   0.919  1.1850 -0.2213 -2.1808
12366TIP3    H258590   4.702   1.864   0.898  0.3282 -0.3382  2.0741
12367TIP3   OH258591   4.870   0.751   1.282  0.1563  0.5941  0.0667
12367TIP3    H158592   4.920   0.671   1.269  0.7790  0.8253  0.9172
12367TIP3    H258593   4.926   0.805   1.338 -1.7154  0.1925  2.5229
12368TIP3   OH258594   1.864   0.624  13.580  0.1644 -0.6093 -0.1615
12368TIP3    H158595   1.812   0.550  13.548  2.0036 -1.6814 -0.8895
12368TIP3    H258596   1.911   0.655  13.503  1.8473 -0.7944  0.7386
12369TIP3   OH258597   3.844   0.254   4.231  0.1451 -0.6036 -0.3938
12369TIP3    H158598   3.752   0.268   4.255  0.3856 -0.3918  0.4306
12369TIP3    H258599   3.887   0.232   4.313  0.7539 -1.1556 -0.8482
12370TIP3   OH258600   4.832   2.863   0.777  0.2449 -0.6061 -0.3262
12370TIP3    H158601   4.816   2.941   0.830  0.4234 -1.6296  1.2915
12370TIP3    H258602   4.744   2.833   0.752  0.0209 -1.2959  1.1969
12371TIP3   OH258603   6.580   4.891   1.834 -1.0211 -0.6225 -0.0056
12371TIP3    H158604   6.589   4.986   1.831  0.1730 -0.7166 -2.9218
12371TIP3    H258605   6.521   4.875   1.908 -0.5935  2.2795  1.1268
12372TIP3   OH258606   3.257   2.606   0.917 -0.3334  0.2013  0.2058
12372TIP3    H158607   3.186   2.542   0.928  0.2657 -0.1191  2.8618
12372TIP3    H258608   3.336   2.553   0.909  0.1017  0.5480  1.8588
12373TIP3   OH258609   2.966   1.293  16.110 -0.5763 -0.0905  0.3251
12373TIP3    H158610   2.974   1.365  16.048  0.4048 -0.6534 -0.2158
12373TIP3    H258611   3.013   1.220  16.069 -1.5985 -1.0632  0.8325
12374TIP3   OH258612   0.116   2.612  16.353 -0.3860  0.2827  0.5617
12374TIP3    H158613   0.123   2.700  16.315 -1.2298 -0.3147 -1.0344
12374TIP3    H258614   0.205   2.577  16.349 -0.8503 -1.0241 -4.1510
12375TIP3   OH258615   2.970   5.669   1.137  0.3136  0.3357  0.0479
12375TIP3    H158616   2.881   5.647   1.108 -0.8437  2.4216  1.7850
12375TIP3    H258617   3.017   5.687   1.055 -1.1027  0.1015 -0.8639
12376TIP3   OH258618   0.039   0.913   5.184 -0.4426  0.2849  0.0928
12376TIP3    H158619  -0.040   0.869   5.154 -0.1820 -1.6743  2.0485
12376TIP3    H258620   0.007   0.987   5.237 -1.0041 -0.4263  0.7749
12377TIP3   OH258621   0.321   5.969  12.264 -0.5768  0.1892  0.8840
12377TIP3    H158622   0.247   6.012  12.221 -1.5785 -0.5260  1.8348
12377TIP3    H258623   0.326   6.010  12.350 -1.2607 -1.2251  1.6377
12378TIP3   OH258624   0.388   2.774   1.095 -0.7324 -0.2443 -0.0383
12378TIP3    H158625   0.416   2.739   1.011  3.1904  1.2397  0.4424
12378TIP3    H258626   0.422   2.712   1.160  1.0863  1.2823  0.5640
12379TIP3   OH258627   6.729   5.258   4.072 -0.3163 -0.0227  0.0330
12379TIP3    H158628   6.794   5.253   4.002 -0.4486 -0.6094 -0.0540
12379TIP3    H258629   6.697   5.348   4.068 -1.2707 -0.3912 -1.5239
12380TIP3   OH258630   1.773   0.939   0.343  0.5920  0.1257  0.0122
12380TIP3    H158631   1.808   0.939   0.254 -0.4821  1.3027 -0.4417
12380TIP3    H258632   1.850   0.930   0.399  1.3617  0.1682 -1.0181
12381TIP3   OH258633   2.727   6.062  14.224 -0.1945  0.0760  0.1401
12381TIP3    H158634   2.719   6.098  14.136  0.3133  1.8181  0.7574
12381TIP3    H258635   2.810   6.013  14.223 -0.0954  0.2524 -0.2913
12382TIP3   OH258636   4.242   3.221   1.437 -0.6052  0.4697  0.0259
12382TIP3    H158637   4.288   3.238   1.520 -0.4901  1.2981 -0.1951
12382TIP3    H258638   4.195   3.139   1.452 -1.9272  1.4373  1.5185
12383TIP3   OH258639   2.407   1.001  16.131  0.0727 -0.2061  0.6274
12383TIP3    H158640   2.344   1.033  16.194  0.9164 -0.2455  1.5182
12383TIP3    H258641   2.489   0.993  16.180  1.5353  2.5342 -1.1120
12384TIP3   OH258642   0.263   1.098   5.140 -0.0235  0.2049 -0.1515
12384TIP3    H158643   0.283   1.110   5.233  0.8132  0.7103 -0.3856
12384TIP3    H258644   0.235   1.006   5.134  0.2023  0.0799  0.5448
12385TIP3   OH258645   2.154   6.314  16.945 -0.3489  0.9054 -0.0428
12385TIP3    H158646   2.176   6.233  16.991  1.0437  1.2656 -0.0327
12385TIP3    H258647   2.071   6.294  16.900  0.8150 -1.1186 -1.4760
12386TIP3   OH258648   4.749   2.620  14.491  0.3835 -0.3852 -0.5166
12386TIP3    H158649   4.684   2.577  14.546 -0.4942  0.2734 -1.0198
12386TIP3    H258650   4.762   2.706  14.532  0.4257 -0.2530 -0.8047
12387TIP3   OH258651   2.493   5.949   4.814  0.2126 -0.6314 -0.0324
12387TIP3    H158652   2.556   5.980   4.879 -0.1064 -0.7947  0.3690
12387TIP3    H258653   2.437   5.889   4.863 -0.1609 -0.6017 -0.4143
12388TIP3   OH258654   6.538   2.896   0.929 -0.0476  0.2883  0.3619
12388TIP3    H158655   6.576   2.823   0.880 -0.9807  1.0647 -1.6335
12388TIP3    H258656   6.456   2.861   0.964  0.6815 -0.3063  1.5532
12389TIP3   OH258657   4.197   4.381  12.144  0.1694 -0.1739  0.2654
12389TIP3    H158658   4.216   4.292  12.173 -1.2862 -0.4250  0.5161
12389TIP3    H258659   4.275   4.408  12.097  0.4684 -1.7425 -0.1911
12390TIP3   OH258660   4.476   3.915   5.134  0.5245 -0.3132 -0.1980
12390TIP3    H158661   4.510   3.981   5.196  0.5540  0.4920 -1.0523
12390TIP3    H258662   4.479   3.833   5.183  1.4429  0.1491  0.5604
12391TIP3   OH258663   1.715   5.617  14.420  0.5292 -0.2792  0.1240
12391TIP3    H158664   1.781   5.654  14.478 -0.8408  0.7197  1.1277
12391TIP3    H258665   1.764   5.566  14.357  2.1270 -1.1841  1.9839
12392TIP3   OH258666   2.362   5.233  14.698 -0.7847 -0.0574  0.4360
12392TIP3    H158667   2.405   5.256  14.780  1.4095 -0.8025 -0.4023
12392TIP3    H258668   2.315   5.312  14.671 -0.1425  0.7336  1.5763
12393TIP3   OH258669   0.205   4.639   5.898  0.0547  0.1619 -0.4307
12393TIP3    H158670   0.215   4.658   5.991  0.3640  1.2358 -0.6665
12393TIP3    H258671   0.292   4.657   5.861  0.3166 -1.5635 -0.7258
12394TIP3   OH258672   5.480   4.015  11.256  0.1946 -0.2116 -0.2833
12394TIP3    H158673   5.449   4.039  11.343  2.2117  0.4012  0.3126
12394TIP3    H258674   5.538   4.086  11.230  2.1094 -1.8535 -0.7578
12395TIP3   OH258675   1.090   2.200   3.318  0.4148  0.1163  0.2557
12395TIP3    H158676   1.086   2.207   3.222  1.2037 -1.1913  0.1001
12395TIP3    H258677   0.999   2.203   3.346  0.2228  1.5705 -0.4343
12396TIP3   OH258678   5.329   0.865  16.444  0.0310  0.4609  0.5103
12396TIP3    H158679   5.249   0.900  16.403 -0.1277 -0.9568 -0.4825
12396TIP3    H258680   5.303   0.844  16.533 -0.3667  1.1455  0.5613
12397TIP3   OH258681   5.372   2.879  16.481  0.1914 -0.3626  0.1742
12397TIP3    H158682   5.299   2.818  16.486 -0.0985 -0.0013  0.3970
12397TIP3    H258683   5.447   2.830  16.516 -0.0600 -0.5506  0.4493
12398TIP3   OH258684   1.560   6.393   4.528 -0.2144  0.7836  0.6108
12398TIP3    H158685   1.490   6.452   4.498 -0.7835  0.5595  1.4613
12398TIP3    H258686   1.579   6.422   4.617 -0.4837 -0.2874  1.0322
12399TIP3   OH258687   0.541   3.436  15.036  0.2114 -0.2680  0.2289
12399TIP3    H158688   0.563   3.459  15.126 -1.6238 -0.7270  0.8349
12399TIP3    H258689   0.544   3.519  14.989  0.0908  0.1559  0.9522
12400TIP3   OH258690   2.623   6.478  12.858  0.3725 -0.1336  0.2496
12400TIP3    H158691   2.622   6.522  12.943  2.2580  0.0817  0.2017
12400TIP3    H258692   2.687   6.407  12.868 -0.2475 -0.8471 -0.6420
12401TIP3   OH258693   5.496   1.462   3.984 -0.5093 -0.0904 -0.0654
12401TIP3    H158694   5.552   1.432   4.055 -1.3036  0.6306  0.9007
12401TIP3    H258695   5.482   1.555   4.002 -2.4241 -0.3594  0.0254
12402TIP3   OH258696   0.437   5.275   2.846 -0.0959  0.0846 -0.0039
12402TIP3    H158697   0.529   5.281   2.822 -0.0819  0.3903  0.1185
12402TIP3    H258698   0.390   5.318   2.775 -0.0688  0.7992  0.3908
12403TIP3   OH258699   1.692   6.644   3.625 -0.6854  0.1977 -0.8319
12403TIP3    H158700   1.729   6.690   3.550  2.1206 -2.0314 -1.0047
12403TIP3    H258701   1.765   6.635   3.687 -2.2979 -0.0861  1.1499
12404TIP3   OH258702   4.976   3.429  13.944  0.0553  0.3051  0.0965
12404TIP3    H158703   4.991   3.371  14.019  0.7703 -1.8207 -1.6014
12404TIP3    H258704   4.911   3.384  13.890 -0.1345  1.5844 -0.8007
12405TIP3   OH258705   1.139   2.484  15.626 -0.5081  0.3478 -0.4263
12405TIP3    H158706   1.084   2.405  15.626 -1.7883  1.2047 -0.9807
12405TIP3    H258707   1.195   2.474  15.549 -0.6324 -0.0368 -0.4693
12406TIP3   OH258708   5.479   3.607  15.991 -0.0771 -0.2645  0.4679
12406TIP3    H158709   5.430   3.684  16.022 -1.6539  0.4100 -3.1333
12406TIP3    H258710   5.513   3.634  15.906  0.1550 -3.2435 -0.4966
12407TIP3   OH258711   4.882   4.460   3.935  0.2527 -0.0124  0.3040
12407TIP3    H158712   4.901   4.428   4.023 -0.6379 -0.5673  0.3058
12407TIP3    H258713   4.959   4.437   3.883  0.4949 -0.2870  0.7862
12408TIP3   OH258714   6.242   1.810   5.663 -0.0445 -0.2168 -0.0226
12408TIP3    H158715   6.246   1.719   5.634 -0.7987 -0.6024  1.0352
12408TIP3    H258716   6.203   1.857   5.590 -0.5887 -0.9235 -0.2000
12409TIP3   OH258717   6.310   5.017  12.857 -0.3943  0.1240 -0.4975
12409TIP3    H158718   6.219   5.004  12.884  0.4493 -1.0404  2.1621
12409TIP3    H258719   6.346   4.928  12.850  0.4629  0.5531 -1.8523
12410TIP3   OH258720   3.785   5.854  11.787 -0.3916 -0.1811 -0.5640
12410TIP3    H158721   3.842   5.930  11.773  1.1841 -0.8513  1.7120
12410TIP3    H258722   3.706   5.891  11.826  0.9188  0.2502  1.8612
12411TIP3   OH258723   1.173   4.784   5.007  0.2115 -0.5018  0.4221
12411TIP3    H158724   1.261   4.747   5.012  0.1853 -1.2054 -2.5599
12411TIP3    H258725   1.115   4.708   5.009 -0.3800 -0.0642  1.9526
12412TIP3   OH258726   0.161   6.602  11.697  0.1758 -0.0270 -0.4146
12412TIP3    H158727   0.162   6.595  11.793  0.5193  0.0933 -0.4078
12412TIP3    H258728   0.184   6.514  11.667  1.5553  0.2899 -0.3634
12413TIP3   OH258729   1.620   0.732  11.566 -0.5826  0.3550 -0.2447
12413TIP3    H158730   1.581   0.789  11.632  0.1674 -0.5307  1.0003
12413TIP3    H258731   1.692   0.784  11.529  1.1801 -0.3059  2.0639
12414TIP3   OH258732   0.318   1.052   3.450 -0.7057  0.1423  0.1639
12414TIP3    H158733   0.243   1.031   3.394  0.4419 -0.5033 -1.2023
12414TIP3    H258734   0.340   0.969   3.492 -0.7410  0.3217  0.5354
12415TIP3   OH258735   4.071   2.974  15.192  0.1147  0.7652 -0.1015
12415TIP3    H158736   3.997   3.022  15.155 -1.1982 -2.1966 -1.6839
12415TIP3    H258737   4.148   3.023  15.164 -1.1194  2.2630 -1.0479
12416TIP3   OH258738   1.800   0.320  16.173 -0.3456  0.2007 -0.3388
12416TIP3    H158739   1.780   0.410  16.198 -0.7868  0.0738 -0.2146
12416TIP3    H258740   1.802   0.272  16.256  0.6446  0.2338 -0.3350
12417TIP3   OH258741   2.085   1.544  13.143  0.2009  0.0954  0.0874
12417TIP3    H158742   1.998   1.554  13.183  0.7057 -0.4809  1.4160
12417TIP3    H258743   2.113   1.456  13.170  1.3961  0.4665  0.0950
12418TIP3   OH258744   5.133   2.055  14.570 -0.0561 -0.6034  0.8844
12418TIP3    H158745   5.073   2.092  14.635 -0.3830 -0.5600  0.5664
12418TIP3    H258746   5.177   1.983  14.614  0.4800  0.0669  1.4718
12419TIP3   OH258747   5.619   6.246  15.352  0.2768 -0.4480 -0.1494
12419TIP3    H158748   5.547   6.219  15.296  0.0968 -1.5571  0.5807
12419TIP3    H258749   5.696   6.245  15.295 -0.1391 -0.1339 -0.7183
12420TIP3   OH258750   0.404   5.964  12.776 -0.0939  0.1291  0.2809
12420TIP3    H158751   0.475   6.005  12.727 -0.5490 -0.3704 -0.8365
12420TIP3    H258752   0.449   5.911  12.843  0.5640  0.3346  0.0115
12421TIP3   OH258753   3.281   2.883   4.052 -0.1358  0.4208  0.2662
12421TIP3    H158754   3.305   2.800   4.094 -1.3608  0.2762  0.7388
12421TIP3    H258755   3.225   2.858   3.979 -0.3798  0.8113  0.3130
12422TIP3   OH258756   3.666   1.966   2.189 -0.1787  0.1438 -1.4840
12422TIP3    H158757   3.698   2.050   2.158 -0.7108  0.5583 -0.9478
12422TIP3    H258758   3.701   1.958   2.278 -0.7655  0.1736 -1.2420
12423TIP3   OH258759   2.408   3.724  13.521  0.3939  0.0462 -0.2060
12423TIP3    H158760   2.397   3.629  13.522  1.1731 -0.0802 -1.4265
12423TIP3    H258761   2.394   3.749  13.429 -0.2927  1.1819  0.1872
12424TIP3   OH258762   1.769   3.751  13.288  0.0094  0.8564 -0.2839
12424TIP3    H158763   1.728   3.688  13.347 -0.8548  0.5489 -1.1829
12424TIP3    H258764   1.817   3.810  13.345  0.2866 -0.2271  0.6233
12425TIP3   OH258765   4.820   0.039  15.917 -0.2233  0.0999 -0.2555
12425TIP3    H158766   4.856  -0.049  15.928 -1.0810 -0.1767  0.3958
12425TIP3    H258767   4.794   0.042  15.824 -0.9433 -0.6413 -0.0963
12426TIP3   OH258768   6.254   1.013  16.120 -0.0315  0.1889 -0.4336
12426TIP3    H158769   6.222   0.923  16.123  0.9404 -0.2167 -1.4981
12426TIP3    H258770   6.185   1.062  16.076 -1.3203  0.3514  1.6099
12427TIP3   OH258771   5.459   2.842   5.382 -1.0419 -0.6575  0.3280
12427TIP3    H158772   5.550   2.869   5.399 -0.6856  0.9068 -3.2092
12427TIP3    H258773   5.462   2.746   5.385 -0.0053 -0.6373  3.0631
12428TIP3   OH258774   5.322   4.614   4.968 -0.5536  0.4586  0.0791
12428TIP3    H158775   5.293   4.525   4.987  0.2525  0.2128  0.1612
12428TIP3    H258776   5.387   4.634   5.035  0.4398  0.5153 -0.8725
12429TIP3   OH258777   1.479   2.535   1.953 -0.0075  0.1017 -0.5568
12429TIP3    H158778   1.551   2.551   1.892  0.1409  1.3578 -0.0908
12429TIP3    H258779   1.522   2.505   2.034 -0.0962 -0.2465 -0.6388
12430TIP3   OH258780   4.914   4.826  15.582 -0.3468 -0.2806  0.1264
12430TIP3    H158781   4.905   4.913  15.542 -0.8213 -0.4394 -0.1147
12430TIP3    H258782   4.849   4.773  15.538  1.2635 -1.2768 -1.1892
12431TIP3   OH258783   6.450   5.617   5.003  0.3502 -0.7825  0.3530
12431TIP3    H158784   6.411   5.699   5.034  2.0386  0.6409 -1.0884
12431TIP3    H258785   6.410   5.603   4.917  2.2418  0.2595 -0.7771
12432TIP3   OH258786   2.900   3.600  13.489 -0.1136 -0.2077 -0.0665
12432TIP3    H158787   2.854   3.598  13.406  1.4336  1.5390 -1.0369
12432TIP3    H258788   2.838   3.639  13.550 -0.4426  0.7386 -0.9859
12433TIP3   OH258789   3.137   1.076   2.019  0.1557 -0.0111  0.7412
12433TIP3    H158790   3.070   1.016   1.986  1.9939 -1.0449 -1.4306
12433TIP3    H258791   3.104   1.163   1.997 -0.9849 -0.4316  0.7420
12434TIP3   OH258792   6.685   4.421  16.335 -0.1288 -0.1174 -0.0535
12434TIP3    H158793   6.724   4.335  16.353  0.9513  1.0769  5.1375
12434TIP3    H258794   6.592   4.410  16.357 -0.3467 -0.2861 -1.0193
12435TIP3   OH258795   0.284   1.395  10.724  0.6138 -0.3024  0.1265
12435TIP3    H158796   0.378   1.378  10.723  0.8525  0.7875 -1.9377
12435TIP3    H258797   0.248   1.334  10.661 -0.1285 -0.9251  1.1390
12436TIP3   OH258798   5.942   2.103  11.682  0.1267  0.3942 -0.3619
12436TIP3    H158799   5.870   2.166  11.689  0.3638  0.6952 -0.5731
12436TIP3    H258800   5.959   2.074  11.771 -2.2466 -1.9688 -0.5696
12437TIP3   OH258801   6.615   4.326   0.747 -0.0011  0.3922 -0.2991
12437TIP3    H158802   6.549   4.336   0.816 -1.2958  1.5950 -1.6299
12437TIP3    H258803   6.685   4.275   0.788 -1.0186  0.4688  1.6740
12438TIP3   OH258804   5.600   4.645   5.660  0.2610  0.0657 -0.1210
12438TIP3    H158805   5.629   4.730   5.694 -0.8721 -0.2718  1.8223
12438TIP3    H258806   5.533   4.667   5.595 -1.7372  0.7191  2.0078
12439TIP3   OH258807   6.573   0.600   2.337  0.1502 -0.6387 -0.3695
12439TIP3    H158808   6.607   0.557   2.258  0.0937  0.9598 -1.3195
12439TIP3    H258809   6.501   0.654   2.306  0.1136  0.0125  0.7815
12440TIP3   OH258810   5.894   1.612  15.103 -0.4518 -0.0287  0.1805
12440TIP3    H158811   5.951   1.688  15.105 -1.0593  0.4426 -0.1597
12440TIP3    H258812   5.953   1.538  15.085  0.0696  0.4188  0.0366
12441TIP3   OH258813   6.795   0.415  13.333 -0.0825 -0.1426 -0.0855
12441TIP3    H158814   6.785   0.502  13.370 -2.3391 -0.6151  0.5506
12441TIP3    H258815   6.831   0.430  13.245  1.3070  1.2618  0.6762
12442TIP3   OH258816   5.780   3.920  15.442 -0.2008 -0.8537  0.0413
12442TIP3    H158817   5.793   3.831  15.475  1.0724 -0.7446 -0.1187
12442TIP3    H258818   5.732   3.965  15.512  0.0994 -1.3650  0.5823
12443TIP3   OH258819   6.353   6.312  12.966  0.3736 -0.2355  0.7280
12443TIP3    H158820   6.323   6.372  13.035  0.1242  2.1740 -1.3477
12443TIP3    H258821   6.438   6.281  12.998  0.8785  1.8272  1.6293
12444TIP3   OH258822   0.039   3.911   5.774 -0.0108 -0.2906  0.2030
12444TIP3    H158823   0.066   3.970   5.704 -0.3481 -0.8780 -0.4387
12444TIP3    H258824  -0.025   3.853   5.733 -1.2212  0.2035  1.3414
12445TIP3   OH258825   2.625   4.032  13.906 -0.0354  0.4791  0.0226
12445TIP3    H158826   2.609   3.945  13.942 -2.6734  0.4898 -0.8746
12445TIP3    H258827   2.720   4.041  13.906  0.3521 -2.5823 -0.3187
12446TIP3   OH258828   2.666   4.135  16.603 -0.2288 -0.3489 -0.0104
12446TIP3    H158829   2.643   4.225  16.626  1.1759 -0.0464  0.3341
12446TIP3    H258830   2.706   4.142  16.516  0.3375 -0.5537  0.2277
12447TIP3   OH258831   0.781   5.546   2.184  0.1960  0.8064  0.9150
12447TIP3    H158832   0.829   5.611   2.236  3.1858 -0.9702  0.6211
12447TIP3    H258833   0.805   5.566   2.094  1.7228 -1.0065  0.8613
12448TIP3   OH258834   5.313   0.075  16.024 -0.0206  0.2128  0.5130
12448TIP3    H158835   5.305   0.169  16.044  0.9195  0.2562  0.7266
12448TIP3    H258836   5.254   0.061  15.950 -1.5588  0.6000  1.6155
12449TIP3   OH258837   4.018   0.937   0.544  0.0571  0.5019  0.1123
12449TIP3    H158838   3.924   0.944   0.531  0.2395  2.4082 -0.4404
12449TIP3    H258839   4.055   0.953   0.457  0.8849 -1.6673 -0.0009
12450TIP3   OH258840   3.206   5.419  11.151  0.0164 -0.7446 -0.7322
12450TIP3    H158841   3.288   5.387  11.114 -0.9139 -1.2358 -2.4783
12450TIP3    H258842   3.145   5.345  11.143 -0.6630 -0.3331  0.3634
12451TIP3   OH258843   6.279   2.117   3.999 -0.5761  0.3372 -0.3394
12451TIP3    H158844   6.200   2.084   3.956 -1.4624  2.2675 -0.2664
12451TIP3    H258845   6.286   2.063   4.078 -2.0200  0.3454 -0.1695
12452TIP3   OH258846   3.284   6.395   3.508  0.0703  0.2652 -0.4283
12452TIP3    H158847   3.349   6.391   3.578  0.0378  0.0593 -0.4107
12452TIP3    H258848   3.248   6.484   3.515 -1.2140 -0.3175  0.9833
12453TIP3   OH258849   6.630   1.595   4.045  1.2028  0.0194  0.7192
12453TIP3    H158850   6.630   1.562   4.135 -2.3224  1.0861  1.2835
12453TIP3    H258851   6.539   1.586   4.017  1.8504  1.3640 -2.1474
12454TIP3   OH258852   2.657   5.108   4.428 -0.4235  0.1338 -0.4480
12454TIP3    H158853   2.571   5.116   4.386 -0.1052 -0.5101 -1.2396
12454TIP3    H258854   2.689   5.198   4.433 -1.9297  0.6359  1.5949
12455TIP3   OH258855   0.084   0.403   5.561 -0.4801  1.1330  0.7612
12455TIP3    H158856   0.115   0.389   5.472  1.0459  1.0251  1.2772
12455TIP3    H258857   0.010   0.463   5.552 -1.0924  0.2240 -0.6596
12456TIP3   OH258858   4.380   5.880  12.296 -0.2526  0.5131  0.0917
12456TIP3    H158859   4.450   5.929  12.339 -0.3110  0.5052  0.1956
12456TIP3    H258860   4.352   5.936  12.224 -1.5656  1.4560  1.2944
12457TIP3   OH258861   3.140   4.531  11.573  0.1453  0.2683  0.2054
12457TIP3    H158862   3.193   4.607  11.548  1.9485 -1.3017 -1.0012
12457TIP3    H258863   3.152   4.523  11.667  0.5254  1.0444  0.2289
12458TIP3   OH258864   6.556   1.551   0.334 -0.2178 -0.0098  0.0341
12458TIP3    H158865   6.625   1.509   0.282 -0.7598 -0.1929 -0.5448
12458TIP3    H258866   6.596   1.632   0.365  0.6650 -0.6849  0.7221
12459TIP3   OH258867   6.064   4.537  12.290 -0.3636  0.4274  0.4278
12459TIP3    H158868   5.977   4.501  12.273 -0.7953  1.9568 -0.8442
12459TIP3    H258869   6.052   4.632  12.286  1.4924  0.6802 -0.4781
12460TIP3   OH258870   3.854   5.999  16.310  0.3158  0.1241  0.2530
12460TIP3    H158871   3.771   6.041  16.288 -0.4408 -0.4486  1.8527
12460TIP3    H258872   3.884   6.045  16.388  2.3256  1.3515 -1.1652
12461TIP3   OH258873   3.036   0.785  12.236 -0.9217 -0.0226 -0.0451
12461TIP3    H158874   3.061   0.878  12.229  0.0204 -0.2197  0.4315
12461TIP3    H258875   3.082   0.743  12.164  0.2221 -0.3946  0.8517
12462TIP3   OH258876   1.154   4.589   2.383  0.2914 -0.7215 -0.2239
12462TIP3    H158877   1.115   4.527   2.322 -1.1643  0.2930 -0.3780
12462TIP3    H258878   1.141   4.551   2.469 -0.7105 -0.5924 -0.3073
12463TIP3   OH258879   5.152   6.385  14.895 -0.1067  0.0189  0.4369
12463TIP3    H158880   5.073   6.392  14.841  0.4210 -0.9624 -0.5160
12463TIP3    H258881   5.160   6.470  14.938 -1.6248  0.1583  0.4828
12464TIP3   OH258882   2.820   3.068   2.060 -0.2560 -0.1244  0.7459
12464TIP3    H158883   2.915   3.064   2.074 -0.4357 -2.3829  1.7932
12464TIP3    H258884   2.806   3.020   1.978 -0.4776  0.5726  0.3675
12465TIP3   OH258885   0.801   3.433   4.634  0.3781  0.1182 -0.3730
12465TIP3    H158886   0.889   3.402   4.655  0.0795 -1.1066 -0.8101
12465TIP3    H258887   0.754   3.428   4.717 -0.1152 -2.2932 -0.7213
12466TIP3   OH258888   0.625   6.156  15.349  0.1538 -0.0935 -0.5263
12466TIP3    H158889   0.702   6.121  15.393 -0.2634 -1.9967 -1.2452
12466TIP3    H258890   0.551   6.122  15.399 -0.2704  1.7728  0.2013
12467TIP3   OH258891   6.786   0.151   3.874 -0.0889  0.7592  0.3418
12467TIP3    H158892   6.834   0.068   3.876  1.6565  1.7325  1.1554
12467TIP3    H258893   6.730   0.148   3.952 -0.6130  0.0476 -0.0456
12468TIP3   OH258894   2.223   3.943   4.661 -0.4727  0.2603 -0.4424
12468TIP3    H158895   2.193   4.027   4.695 -1.1455 -0.8569  1.9464
12468TIP3    H258896   2.169   3.878   4.706 -0.1334 -1.4768 -2.3882
12469TIP3   OH258897   2.636   0.718   0.362  0.0990  0.3097  0.5198
12469TIP3    H158898   2.547   0.688   0.381  0.2250  0.5042  1.4878
12469TIP3    H258899   2.692   0.656   0.407  0.3645  1.9484  2.6061
12470TIP3   OH258900   6.058   6.143  12.337  0.1294 -0.3650  0.2266
12470TIP3    H158901   6.107   6.125  12.257  1.1125 -1.4470  1.0242
12470TIP3    H258902   6.109   6.100  12.406 -1.6562 -1.0704  1.1826
12471TIP3   OH258903   3.923   3.347   2.169  0.3718 -0.6915 -0.6505
12471TIP3    H158904   3.906   3.331   2.262 -0.6268  1.6041 -0.3674
12471TIP3    H258905   3.943   3.261   2.133 -2.9632 -2.2869  0.9086
12472TIP3   OH258906   3.254   4.808  16.908 -0.1626 -0.0014  0.0599
12472TIP3    H158907   3.287   4.897  16.895 -1.1427  0.2070 -1.1703
12472TIP3    H258908   3.317   4.767  16.967 -0.2959  1.8650  1.6035
12473TIP3   OH258909   4.630   0.316  10.994 -0.0437 -0.6733  0.1888
12473TIP3    H158910   4.608   0.223  10.995 -1.0025 -0.4516  0.8823
12473TIP3    H258911   4.572   0.354  10.927  0.3700 -0.5710 -0.1181
12474TIP3   OH258912   6.674   6.079   1.098 -0.1450  0.1037 -0.0654
12474TIP3    H158913   6.742   6.067   1.031 -0.5312 -0.0727 -0.4332
12474TIP3    H258914   6.621   6.151   1.064 -0.4361 -0.0912 -0.0241
12475TIP3   OH258915   1.631   3.279   2.017 -0.4753 -0.0356  0.7112
12475TIP3    H158916   1.625   3.319   1.930  0.4078  1.4299  1.2800
12475TIP3    H258917   1.540   3.261   2.041 -0.6494 -2.8995 -1.5224
12476TIP3   OH258918   3.899   0.133   2.033  0.1884  0.0520 -0.6290
12476TIP3    H158919   3.851   0.118   2.113 -0.9372 -0.3757 -1.3640
12476TIP3    H258920   3.964   0.063   2.029 -0.5555 -0.6353 -0.6898
12477TIP3   OH258921   3.677   0.934   3.514 -0.4191 -0.6010 -0.1590
12477TIP3    H158922   3.630   0.997   3.460 -2.4859 -0.6106  1.4626
12477TIP3    H258923   3.636   0.850   3.494 -0.0342 -0.8708  0.1665
12478TIP3   OH258924   2.227   6.519  11.382  0.4419 -0.0964 -0.1732
12478TIP3    H158925   2.252   6.507  11.474  1.8387 -1.6257 -0.6999
12478TIP3    H258926   2.290   6.466  11.333  0.6372  1.8335 -2.1459
12479TIP3   OH258927   4.519   6.159   2.418  0.7821  0.1800 -0.1728
12479TIP3    H158928   4.425   6.151   2.403  0.3363 -0.1540  2.3253
12479TIP3    H258929   4.536   6.253   2.412  0.1301  0.3207  0.0921
12480TIP3   OH258930   3.396   0.205   5.763  0.0567 -0.5076 -0.1185
12480TIP3    H158931   3.419   0.234   5.675 -0.3654 -1.3185 -0.5095
12480TIP3    H258932   3.387   0.286   5.813 -0.9870  0.0448 -1.1466
12481TIP3   OH258933   5.885   0.436   0.730 -0.4539  0.0912 -0.0901
12481TIP3    H158934   5.893   0.352   0.775 -1.4517 -0.6383 -1.2190
12481TIP3    H258935   5.968   0.480   0.747  0.4752 -1.5259 -0.2921
12482TIP3   OH258936   1.977   4.448  16.960 -0.4645  0.0508  0.2834
12482TIP3    H158937   1.882   4.459  16.970 -0.3428  1.2940  0.3160
12482TIP3    H258938   2.014   4.526  17.001  0.5381 -0.0993 -0.2993
12483TIP3   OH258939   1.903   1.214   0.328 -0.0304 -0.0014  0.1891
12483TIP3    H158940   1.939   1.132   0.293  1.1055 -0.1492  1.5998
12483TIP3    H258941   1.853   1.187   0.405 -2.3887  0.3310 -1.1325
12484TIP3   OH258942   0.619   1.769  16.685 -0.1707  0.0928  0.1633
12484TIP3    H158943   0.660   1.686  16.709  1.5796  0.7961 -0.1859
12484TIP3    H258944   0.595   1.758  16.593  1.0524  0.3024 -0.2037
12485TIP3   OH258945   3.527   2.570  13.519 -0.0708  0.3183 -0.0692
12485TIP3    H158946   3.548   2.663  13.513  0.7553  0.2307  1.0312
12485TIP3    H258947   3.537   2.549  13.612  1.2361 -1.1831 -0.4872
12486TIP3   OH258948   6.008   6.116   4.795 -0.0143 -0.8873  0.4559
12486TIP3    H158949   6.051   6.131   4.710 -1.4105  0.2285 -0.1055
12486TIP3    H258950   6.063   6.163   4.858 -0.0777  0.0643 -0.1663
12487TIP3   OH258951   6.541   6.293   3.810  0.0026  0.7462  0.3188
12487TIP3    H158952   6.476   6.361   3.822 -0.6191  0.3479 -0.7193
12487TIP3    H258953   6.608   6.312   3.876 -1.4873  0.7464  1.8780
12488TIP3   OH258954   2.429   0.418   1.049 -0.0065 -0.3766 -0.2169
12488TIP3    H158955   2.386   0.333   1.058 -1.2585  0.4216  2.0465
12488TIP3    H258956   2.515   0.405   1.089 -0.0128 -0.6834 -0.2936
12489TIP3   OH258957   0.748   3.493   1.524 -0.7981  0.4386  0.1247
12489TIP3    H158958   0.839   3.519   1.510 -0.9169  0.8906  0.2002
12489TIP3    H258959   0.699   3.575   1.522 -1.2156  0.1882 -0.0030
12490TIP3   OH258960   1.102   4.549  13.468  0.4167 -0.1220 -0.7168
12490TIP3    H158961   1.109   4.641  13.443 -2.6263  0.0157 -1.4155
12490TIP3    H258962   1.133   4.545  13.558  2.1395  1.2341 -1.1971
12491TIP3   OH258963   4.391   0.865   2.348 -0.3399 -0.8555  0.2326
12491TIP3    H158964   4.317   0.884   2.289  0.2454  0.2986 -0.1525
12491TIP3    H258965   4.372   0.777   2.382 -2.4847 -0.1624  1.0317
12492TIP3   OH258966   4.540   1.617  15.688 -0.0412 -0.3051  0.2234
12492TIP3    H158967   4.462   1.630  15.742 -1.2124  2.1776 -1.8310
12492TIP3    H258968   4.565   1.526  15.704 -2.5477 -0.8057  1.9938
12493TIP3   OH258969   2.129   6.319   0.950  0.1190  0.2268  0.2092
12493TIP3    H158970   2.100   6.228   0.937  0.2307  0.0926  0.8688
12493TIP3    H258971   2.221   6.311   0.976  0.7650  0.6464 -1.8238
12494TIP3   OH258972   1.450   0.508  15.471 -0.2249 -0.0739 -0.3754
12494TIP3    H158973   1.402   0.515  15.388 -1.5391  0.9702  0.4289
12494TIP3    H258974   1.526   0.565  15.460 -0.0541 -0.4148 -1.0546
12495TIP3   OH258975   0.778   3.162  12.980  0.3884 -0.2973 -0.0668
12495TIP3    H158976   0.861   3.189  12.941  0.8342 -0.1749  0.9324
12495TIP3    H258977   0.796   3.074  13.015  0.0326 -0.3649 -0.0526
12496TIP3   OH258978   5.664   4.874  12.870  0.2328  0.0484  0.0410
12496TIP3    H158979   5.654   4.856  12.777 -0.8655  1.2034 -0.1064
12496TIP3    H258980   5.613   4.955  12.884 -1.1486 -1.0585  1.9675
12497TIP3   OH258981   5.029   4.129  11.843 -0.7760 -0.0588  0.2754
12497TIP3    H158982   5.076   4.177  11.911 -1.2933 -0.3482  0.8393
12497TIP3    H258983   5.041   4.183  11.764 -0.7714  0.6490  0.7473
12498TIP3   OH258984   3.317   5.551  13.889 -0.8123 -0.1674 -0.0588
12498TIP3    H158985   3.275   5.537  13.973 -0.8065  0.5481  0.0633
12498TIP3    H258986   3.378   5.623  13.904 -0.6798 -0.1578 -0.6269
12499TIP3   OH258987   4.914   5.853   0.041  0.4960 -0.4705 -0.6619
12499TIP3    H158988   4.820   5.866   0.026  0.6405  0.6771 -0.6965
12499TIP3    H258989   4.923   5.850   0.136  0.4433 -0.4102 -0.6549
12500TIP3   OH258990   1.326   1.056   5.373  0.0554  0.3454  0.5644
12500TIP3    H158991   1.268   1.088   5.304  0.6970  0.1684 -0.0621
12500TIP3    H258992   1.383   1.130   5.393 -0.6230  0.6539  1.4686
12501TIP3   OH258993   1.059   0.688   1.056 -0.8102 -0.0451 -0.4834
12501TIP3    H158994   1.000   0.632   1.004 -1.4010  0.6865 -0.6214
12501TIP3    H258995   1.117   0.727   0.991 -0.8649  0.0556 -0.4716
12502TIP3   OH258996   4.976   3.325  13.577 -0.1357 -0.2056 -0.3743
12502TIP3    H158997   4.961   3.323  13.482  1.1891 -2.3732 -0.5965
12502TIP3    H258998   4.982   3.233  13.602  2.2580  0.3480  1.3558
12503TIP3   OH258999   5.829   3.560   0.447  0.1297 -0.6253  0.4951
12503TIP3    H159000   5.895   3.629   0.438  0.3996 -0.8805  0.4963
12503TIP3    H259001   5.765   3.596   0.509  0.9988 -0.9072  1.5996
12504TIP3   OH259002   5.549   4.367   4.796 -1.2246 -0.2719  0.9505
12504TIP3    H159003   5.545   4.272   4.801  1.4137 -0.5392 -0.3933
12504TIP3    H259004   5.604   4.393   4.870 -1.7388  0.1828  1.1761
12505TIP3   OH259005   0.084   1.091  16.390  0.1998  0.3872 -0.5003
12505TIP3    H159006   0.043   1.019  16.342  0.2188  0.4426 -0.6002
12505TIP3    H259007   0.117   1.150  16.322  2.3579 -0.6927 -0.4875
12506TIP3   OH259008   0.718   6.046  13.012  0.2080 -0.1521  0.3816
12506TIP3    H159009   0.658   5.977  13.041 -0.0361  0.2381  0.8102
12506TIP3    H259010   0.699   6.120  13.069  0.3133  0.3494 -0.2223
12507TIP3   OH259011   1.363   0.215  15.714 -0.1195  0.1411 -0.1724
12507TIP3    H159012   1.324   0.233  15.629 -2.4187 -2.9343  0.0640
12507TIP3    H259013   1.419   0.291  15.731 -0.2775  1.3244 -3.9405
12508TIP3   OH259014   6.759   1.600   0.644 -0.2795  0.7605 -0.0636
12508TIP3    H159015   6.809   1.606   0.562  1.6297 -0.4667  0.9242
12508TIP3    H259016   6.769   1.508   0.670  0.5927  1.4938  2.3924
12509TIP3   OH259017   6.574   0.272   1.347  0.5637  0.0899  0.2933
12509TIP3    H159018   6.506   0.230   1.399  1.8500  0.8515  2.7199
12509TIP3    H259019   6.527   0.311   1.273 -1.0578 -2.8994 -0.4527
12510TIP3   OH259020   1.016   6.334  16.002 -0.3958 -0.3761 -0.8555
12510TIP3    H159021   1.030   6.329  15.908 -0.5110  0.8535 -0.9609
12510TIP3    H259022   1.034   6.426  16.024 -0.2796 -0.6593  0.3350
12511TIP3   OH259023   3.001   1.648  13.271  0.2500 -0.3044 -0.4104
12511TIP3    H159024   3.068   1.619  13.334 -1.9245 -1.7434  1.4006
12511TIP3    H259025   3.006   1.743  13.273 -0.3057 -0.2405  2.6954
12512TIP3   OH259026   6.643   3.663  14.055  0.0606  0.9561  0.5462
12512TIP3    H159027   6.679   3.634  13.972 -3.5410  0.3644 -0.9647
12512TIP3    H259028   6.653   3.758  14.053  0.1256  0.9371 -0.4986
12513TIP3   OH259029   0.498   6.613  16.545 -0.0285  0.5574  0.0663
12513TIP3    H159030   0.593   6.603  16.556  0.0763 -0.6995 -1.5893
12513TIP3    H259031   0.488   6.653  16.459 -0.9950  1.3867  0.5507
12514TIP3   OH259032   3.069   3.037   0.112  0.4826 -0.0824  0.5361
12514TIP3    H159033   3.098   2.958   0.066 -2.0618 -0.7005 -0.1934
12514TIP3    H259034   3.148   3.074   0.151  2.0870 -1.7701 -0.9824
12515TIP3   OH259035   0.797   5.477   3.180 -0.1116 -0.1898 -0.0458
12515TIP3    H159036   0.752   5.492   3.096  0.4624 -0.2046 -0.3612
12515TIP3    H259037   0.790   5.561   3.226 -1.4454 -0.5194  0.3961
12516TIP3   OH259038   3.861   0.945   4.290  0.4978  0.2367  0.5047
12516TIP3    H159039   3.777   0.900   4.285 -0.3031  1.7612 -0.6480
12516TIP3    H259040   3.844   1.023   4.343  1.7528 -0.5468  2.1332
12517TIP3   OH259041   0.630   1.683  10.626  0.4220 -0.3879 -0.3607
12517TIP3    H159042   0.705   1.743  10.618  0.0208  0.1798  0.0211
12517TIP3    H259043   0.588   1.709  10.708  0.7055 -1.7431  0.2549
12518TIP3   OH259044   3.547   4.758   2.629  0.2120  0.8757 -0.2306
12518TIP3    H159045   3.576   4.682   2.680  0.3808  0.0917 -1.4298
12518TIP3    H259046   3.560   4.833   2.687  0.0949 -0.0037  0.9654
12519TIP3   OH259047   0.955   5.468   0.774  0.3702 -0.2529  0.3001
12519TIP3    H159048   0.947   5.520   0.694  1.8489  0.8803  0.8576
12519TIP3    H259049   0.876   5.490   0.824 -0.8324 -1.3653 -1.0207
12520TIP3   OH259050   4.827   2.243  16.274 -0.0659 -0.1093 -0.1803
12520TIP3    H159051   4.768   2.297  16.325 -0.8187 -0.3089 -0.8190
12520TIP3    H259052   4.801   2.153  16.295 -3.3436 -0.3561 -3.9776
12521TIP3   OH259053   1.616   3.461  16.387 -0.8176 -0.8075  0.4655
12521TIP3    H159054   1.613   3.446  16.292  1.5005  0.7601  0.0402
12521TIP3    H259055   1.566   3.542  16.399 -0.1704 -0.3821  0.3731
12522TIP3   OH259056   3.723   0.186  12.951 -0.9549 -0.3173  0.8387
12522TIP3    H159057   3.732   0.182  12.855 -0.9508 -0.8989  0.8607
12522TIP3    H259058   3.715   0.095  12.978 -0.5748 -0.1785  1.4339
12523TIP3   OH259059   5.514   2.768  13.434 -0.4833  0.1023 -0.1867
12523TIP3    H159060   5.550   2.850  13.467 -1.7843  0.0430  1.4759
12523TIP3    H259061   5.572   2.701  13.469  0.1303  0.2256 -0.9174
12524TIP3   OH259062   6.770   1.978  13.399  0.0322  0.1646 -0.6772
12524TIP3    H159063   6.832   1.908  13.379  1.4274  0.9914  0.6634
12524TIP3    H259064   6.719   1.987  13.318  0.2421 -1.9265 -1.1084
12525TIP3   OH259065   3.100   4.920  13.044 -0.2162 -0.0851 -0.4189
12525TIP3    H159066   3.148   4.945  13.123 -0.6032 -2.0027  0.4813
12525TIP3    H259067   3.039   4.992  13.029  1.5500  1.4855 -0.4710
12526TIP3   OH259068   5.538   4.244   5.226  0.0020 -0.0250  0.2110
12526TIP3    H159069   5.533   4.150   5.243 -0.6508 -0.0533 -0.1127
12526TIP3    H259070   5.448   4.275   5.233 -0.3225  0.0096 -2.8236
12527TIP3   OH259071   4.704   6.541  11.000  0.3016 -0.2375 -0.0631
12527TIP3    H159072   4.620   6.568  11.035  1.0820  1.1154  0.8536
12527TIP3    H259073   4.713   6.591  10.918 -0.4038 -1.5050 -0.9602
12528TIP3   OH259074   5.446   3.866   2.538  0.6023  0.0540 -0.3428
12528TIP3    H159075   5.518   3.928   2.554  0.2781  0.2499  0.4218
12528TIP3    H259076   5.455   3.801   2.607 -1.1099  1.1547  1.0031
12529TIP3   OH259077   0.901   1.121   0.993  0.5693  0.4704 -0.3780
12529TIP3    H159078   0.936   1.120   1.082  0.1425 -0.4005 -0.2083
12529TIP3    H259079   0.808   1.100   1.003  0.5487  0.2145 -1.0424
12530TIP3   OH259080   5.524   3.393   3.141  0.5328 -0.1307  0.6357
12530TIP3    H159081   5.489   3.463   3.086 -0.6259 -0.2582  1.1633
12530TIP3    H259082   5.618   3.406   3.140  0.4722  0.4244 -0.6220
12531TIP3   OH259083   1.358   5.506  16.244  0.0646  0.5794  0.5841
12531TIP3    H159084   1.332   5.425  16.287  0.2047  0.9584  1.4002
12531TIP3    H259085   1.295   5.571  16.273  0.1976  0.8589  0.2607
12532TIP3   OH259086   3.042   4.098  15.155  0.5694 -0.9909  0.1547
12532TIP3    H159087   3.056   4.006  15.132  2.8872 -0.9884  1.2457
12532TIP3    H259088   3.092   4.147  15.089 -0.7473 -0.4794 -0.4893
12533TIP3   OH259089   3.600   2.052  14.676 -0.7857  0.1586  0.4492
12533TIP3    H159090   3.593   1.993  14.601 -3.7032  1.6910 -0.6277
12533TIP3    H259091   3.694   2.054  14.696 -0.3613 -3.3918 -0.5444
12534TIP3   OH259092   4.951   5.368  12.019  0.1331  0.6917  0.1253
12534TIP3    H159093   5.005   5.322  12.084  0.1397  2.4693  1.4432
12534TIP3    H259094   4.867   5.323  12.023  0.7805 -0.6311 -0.2812
12535TIP3   OH259095   5.644   5.408   5.461 -0.5785  0.0672  0.0945
12535TIP3    H159096   5.581   5.336   5.451 -0.0983 -0.4227  0.5183
12535TIP3    H259097   5.662   5.436   5.371 -1.5633  0.3630 -0.0196
12536TIP3   OH259098   6.328   1.362  14.626 -0.3338  1.0927  0.5518
12536TIP3    H159099   6.384   1.431  14.661  2.7800 -0.2054 -1.3712
12536TIP3    H259100   6.374   1.281  14.649 -1.1360 -0.0267 -1.5598
12537TIP3   OH259101   3.339   0.495   4.753  0.1418  0.0380 -0.2691
12537TIP3    H159102   3.342   0.412   4.800 -1.0845 -0.1542 -0.5143
12537TIP3    H259103   3.296   0.556   4.814  1.4408  0.6388  0.0928
12538TIP3   OH259104   6.687   1.526  14.130  0.2698 -0.1684 -0.4034
12538TIP3    H159105   6.629   1.475  14.187 -0.7431  0.9965 -0.3557
12538TIP3    H259106   6.738   1.460  14.083 -0.5749 -1.2091  0.0918
12539TIP3   OH259107   5.804   4.863   3.710  0.0889 -0.1411 -0.3309
12539TIP3    H159108   5.709   4.853   3.717  0.1454 -0.4025  0.0428
12539TIP3    H259109   5.827   4.922   3.782  0.4830 -1.7331  0.8915
12540TIP3   OH259110   0.747   1.043   1.424 -0.4122  0.0583  0.0037
12540TIP3    H159111   0.747   1.072   1.516 -0.2134 -3.6009  1.3087
12540TIP3    H259112   0.662   1.003   1.411 -0.0287 -0.4255 -1.0994
12541TIP3   OH259113   4.991   3.282   0.485  0.0894  0.1865 -0.0938
12541TIP3    H159114   4.925   3.310   0.550 -1.8208 -0.1192 -1.7948
12541TIP3    H259115   5.029   3.203   0.523  1.8974  2.0837  2.4161
12542TIP3   OH259116   3.361   4.977   3.655  0.3429 -0.5810  0.2828
12542TIP3    H159117   3.314   5.019   3.727  2.1800  0.1645  1.1034
12542TIP3    H259118   3.451   5.010   3.662  0.4497  0.1490 -2.8178
12543TIP3   OH259119   6.358   5.599  14.737  0.4494 -0.1577 -0.2667
12543TIP3    H159120   6.385   5.607  14.828 -0.2592  1.8073 -0.1805
12543TIP3    H259121   6.434   5.560  14.693  1.8837  1.4270  0.6869
12544TIP3   OH259122   1.482   1.629   3.773 -0.2458  0.4697 -0.3715
12544TIP3    H159123   1.435   1.571   3.713 -1.7570  0.9976  0.2389
12544TIP3    H259124   1.467   1.717   3.737 -0.5024  0.7208  0.3177
12545TIP3   OH259125   5.385   3.555  16.540 -0.1038  0.8109  0.1647
12545TIP3    H159126   5.317   3.497  16.505 -0.4090  0.3389  1.4822
12545TIP3    H259127   5.397   3.526  16.630  1.4594  1.2546  0.1244
12546TIP3   OH259128   1.996   6.377  13.385 -0.0715 -0.2762 -0.3980
12546TIP3    H159129   2.007   6.289  13.348 -1.1775 -0.7386  0.3087
12546TIP3    H259130   1.938   6.422  13.324  1.0777  0.2332 -1.1456
12547TIP3   OH259131   6.496   3.311   4.955 -0.3038 -0.1051 -0.2940
12547TIP3    H159132   6.539   3.225   4.962  1.0222  0.4881 -0.8637
12547TIP3    H259133   6.496   3.330   4.861  0.3344  0.9612 -0.0920
12548TIP3   OH259134   0.096   4.096   2.590 -0.3536  0.5673  0.5988
12548TIP3    H159135   0.133   4.019   2.633 -1.6789 -0.3573  0.1781
12548TIP3    H259136   0.047   4.141   2.659 -0.5778  0.3496  0.5858
12549TIP3   OH259137   3.843   0.132  12.085 -0.0471 -0.1108  0.3784
12549TIP3    H159138   3.936   0.149  12.103  0.4782 -0.9215 -1.3876
12549TIP3    H259139   3.831   0.158  11.994 -1.8530  1.0194  0.8730
12550TIP3   OH259140   2.844   4.909   5.230 -0.7617 -0.0745  0.1962
12550TIP3    H159141   2.922   4.964   5.220  0.5543 -1.9799 -0.6293
12550TIP3    H259142   2.801   4.916   5.145 -2.1137  1.7632  0.9646
12551TIP3   OH259143   1.082   4.129   2.507 -0.4732  0.0705 -0.7660
12551TIP3    H159144   1.031   4.133   2.587  0.7792  0.0656  0.0638
12551TIP3    H259145   1.073   4.039   2.477  0.4294 -0.4077  0.3301
12552TIP3   OH259146   3.049   4.104   4.635  0.7689  0.2114 -0.6115
12552TIP3    H159147   3.123   4.148   4.677  1.1953 -0.5535 -0.5242
12552TIP3    H259148   2.973   4.128   4.687  1.0070  0.7514 -0.5059
12553TIP3   OH259149   3.938   5.880   0.285  0.5032 -0.2937  0.2170
12553TIP3    H159150   3.966   5.953   0.340 -1.5129  0.5730  0.1907
12553TIP3    H259151   3.969   5.901   0.197 -2.2935  1.9921 -0.3581
12554TIP3   OH259152   3.448   6.767   3.130  0.6636 -0.1066 -0.0412
12554TIP3    H159153   3.468   6.748   3.039 -1.0729 -0.5082 -0.3805
12554TIP3    H259154   3.352   6.771   3.133  0.7095  0.5832  1.6307
12555TIP3   OH259155   1.556   0.249   0.855 -0.1520 -0.3332  0.2464
12555TIP3    H159156   1.465   0.257   0.825 -0.9239  0.5159  2.5676
12555TIP3    H259157   1.583   0.340   0.872  1.0527 -0.6001 -0.1371
12556TIP3   OH259158   4.574   2.392  15.165  0.3162  0.2107  0.5978
12556TIP3    H159159   4.479   2.381  15.167  0.2281  0.4146 -0.7883
12556TIP3    H259160   4.587   2.486  15.175  0.1429  0.6106 -2.0911
12557TIP3   OH259161   0.788   2.873  15.733  0.4270 -0.0995 -0.5024
12557TIP3    H159162   0.722   2.886  15.801 -0.5856 -1.0381 -1.2776
12557TIP3    H259163   0.866   2.917  15.767 -0.1141 -0.3576  1.1762
12558TIP3   OH259164   2.168   3.913  13.878  0.0823  0.4693  0.4059
12558TIP3    H159165   2.102   3.979  13.901 -2.7165 -1.9605 -0.1036
12558TIP3    H259166   2.207   3.888  13.962 -0.7501  0.8601  0.9270
12559TIP3   OH259167   4.474   2.138   2.378 -0.2943 -0.0603  0.1628
12559TIP3    H159168   4.492   2.155   2.471 -1.4851  2.1880  0.0592
12559TIP3    H259169   4.383   2.111   2.375 -0.1647 -0.4534 -0.3153
12560TIP3   OH259170   5.993   4.729   0.597  0.5002 -0.2099 -0.2705
12560TIP3    H159171   5.902   4.752   0.576 -0.0320 -1.4210  0.6052
12560TIP3    H259172   6.034   4.714   0.512 -0.2381 -0.0608 -0.6582
12561TIP3   OH259173   4.364   0.098  11.373 -0.1399 -0.4172  0.2650
12561TIP3    H159174   4.430   0.073  11.437 -1.8814 -2.6521  1.3249
12561TIP3    H259175   4.413   0.115  11.293  1.7440 -1.8022  1.0565
12562TIP3   OH259176   2.533   2.422   2.500 -0.1948 -0.1104  0.3533
12562TIP3    H159177   2.579   2.502   2.526  2.3927 -1.8590  1.6033
12562TIP3    H259178   2.472   2.405   2.571  0.5508 -0.1856  0.9902
12563TIP3   OH259179   6.653   4.655   3.140  1.1872  0.1776  0.6246
12563TIP3    H159180   6.678   4.627   3.052 -1.9539 -0.8124 -0.1015
12563TIP3    H259181   6.689   4.588   3.198 -0.1613 -1.5181 -0.3898
12564TIP3   OH259182   4.130   1.968   1.522 -0.6439 -0.3198  0.2194
12564TIP3    H159183   4.067   1.986   1.592 -1.5326  1.5239 -0.9569
12564TIP3    H259184   4.190   1.905   1.559 -0.2580  1.6010  3.1641
12565TIP3   OH259185   4.742   2.245   2.379  0.0693 -0.7244  0.0951
12565TIP3    H159186   4.664   2.190   2.373  0.9787 -1.9022 -2.5635
12565TIP3    H259187   4.779   2.244   2.291  0.7275  3.4063  0.1382
12566TIP3   OH259188   1.248   3.846   2.619 -0.4105  0.1874 -0.8927
12566TIP3    H159189   1.194   3.853   2.541  0.3216  2.9356 -1.2384
12566TIP3    H259190   1.333   3.819   2.587 -0.3575  0.3993 -0.9312
12567TIP3   OH259191   4.461   4.455   2.555  0.1392  0.2439 -0.2722
12567TIP3    H159192   4.422   4.460   2.642 -1.3114 -2.3869 -0.6764
12567TIP3    H259193   4.418   4.380   2.514  1.2616  1.0083 -3.0312
12568TIP3   OH259194   0.611   3.355  12.194 -0.4565  0.5777  0.1119
12568TIP3    H159195   0.678   3.286  12.201 -1.2633 -0.3913 -1.1250
12568TIP3    H259196   0.660   3.434  12.174  0.3491 -0.0891 -0.6380
12569TIP3   OH259197   4.206   5.255   1.190  0.1470 -0.2257  0.2782
12569TIP3    H159198   4.297   5.271   1.213  0.4037 -0.9388 -0.2292
12569TIP3    H259199   4.201   5.277   1.097 -0.9220  2.8451  0.9123
12570TIP3   OH259200   4.776   3.146   4.885 -0.1585 -0.5523 -0.5605
12570TIP3    H159201   4.714   3.172   4.818  0.8333 -0.5661 -1.5146
12570TIP3    H259202   4.858   3.130   4.838  0.1091 -2.3126  0.4117
12571TIP3   OH259203   2.289   4.863   1.895 -0.4324 -0.6789  0.2426
12571TIP3    H159204   2.368   4.852   1.842  1.0154  2.5941  1.4643
12571TIP3    H259205   2.220   4.820   1.844  1.5168 -0.8913 -2.4547
12572TIP3   OH259206   0.548   1.131   0.065 -0.1999  0.4768  0.1235
12572TIP3    H159207   0.603   1.210   0.067  1.4966 -0.6346  2.6686
12572TIP3    H259208   0.607   1.060   0.090 -2.1616 -1.3140 -0.0261
12573TIP3   OH259209   2.805   6.331   1.391 -0.5752  0.6388 -0.3132
12573TIP3    H159210   2.759   6.310   1.310  0.3716  1.8435 -1.2122
12573TIP3    H259211   2.897   6.309   1.372 -0.2622  1.4289  0.2104
12574TIP3   OH259212   2.230   5.293   3.970 -0.1901  0.4722  0.6319
12574TIP3    H159213   2.136   5.290   3.991 -0.1380  0.5601  0.8756
12574TIP3    H259214   2.233   5.319   3.878 -0.4257 -0.1132  0.4573
12575TIP3   OH259215   1.841   4.315   0.388 -0.5007  0.1939 -0.0584
12575TIP3    H159216   1.767   4.327   0.328 -1.5439 -2.3743  0.5666
12575TIP3    H259217   1.850   4.220   0.396  0.5312  0.4319  2.7101
12576TIP3   OH259218   2.067   6.621  16.880  0.1479  0.6157 -0.6297
12576TIP3    H159219   2.162   6.607  16.885 -0.0736 -1.1075 -0.5580
12576TIP3    H259220   2.038   6.617  16.971 -0.4039 -2.6624 -0.8270
12577TIP3   OH259221   4.367   0.989  16.992 -0.2498 -0.0705  0.3711
12577TIP3    H159222   4.451   0.992  16.947 -0.1370  2.0634  0.6175
12577TIP3    H259223   4.359   0.899  17.022  2.3558 -0.1240  1.1076
12578TIP3   OH259224   2.075   1.096  13.873  0.5830  0.3224  0.0342
12578TIP3    H159225   2.064   1.078  13.966  1.4595  0.9868  0.2901
12578TIP3    H259226   2.074   1.010  13.831  1.3210 -0.0731  0.7962
12579TIP3   OH259227   5.173   3.983  14.503 -0.0156 -0.1836  0.3917
12579TIP3    H159228   5.173   4.045  14.575  1.2945  1.5236 -0.9791
12579TIP3    H259229   5.261   3.944  14.505  0.1207  0.0675 -0.4198
12580TIP3   OH259230   3.076   0.142  12.406 -0.1284 -0.4951 -0.3217
12580TIP3    H159231   3.158   0.094  12.392  1.3155  2.1683 -1.7473
12580TIP3    H259232   3.019   0.111  12.335  0.4516 -0.7450 -0.6924
12581TIP3   OH259233   1.524   2.706  16.707  0.2954  0.1359  0.2245
12581TIP3    H159234   1.574   2.667  16.779 -0.6361  1.1557  1.4499
12581TIP3    H259235   1.589   2.718  16.637  1.1273 -1.2738  0.6985
12582TIP3   OH259236   4.976   3.143   4.703 -0.1704 -0.0043 -0.4619
12582TIP3    H159237   5.022   3.227   4.696  1.1923 -0.6804 -0.0998
12582TIP3    H259238   4.941   3.128   4.615 -2.0566  1.7872 -0.0833
12583TIP3   OH259239   2.067   2.269   0.619  0.5516  0.6035 -1.0213
12583TIP3    H159240   2.033   2.347   0.575 -0.8579  1.1386  0.8805
12583TIP3    H259241   2.010   2.198   0.590 -1.2200  1.1859  0.8051
12584TIP3   OH259242   0.413   5.606  12.152 -0.3373  0.2769 -0.0545
12584TIP3    H159243   0.335   5.651  12.185 -0.0362  0.9847 -0.3052
12584TIP3    H259244   0.409   5.618  12.058  0.9292  1.7318  0.0450
12585TIP3   OH259245   1.321   3.976   3.385 -0.4385  0.2836  1.1464
12585TIP3    H159246   1.302   4.002   3.475 -3.0823 -0.7208  0.9511
12585TIP3    H259247   1.298   3.883   3.381 -2.2205  0.7201 -0.9697
12586TIP3   OH259248   1.403   1.273   4.505  0.1121 -0.0868  0.9280
12586TIP3    H159249   1.309   1.260   4.506 -0.0064  0.6364  0.0557
12586TIP3    H259250   1.415   1.367   4.498  0.8505 -0.2908 -1.6023
12587TIP3   OH259251   4.582   4.418  11.180  0.1008 -0.2231  0.0196
12587TIP3    H159252   4.542   4.335  11.158 -1.2766 -0.1237  1.9730
12587TIP3    H259253   4.604   4.457  11.095  1.2118 -2.7133 -0.9424
12588TIP3   OH259254   6.381   3.202  14.842  0.4152  0.3974  0.2652
12588TIP3    H159255   6.357   3.167  14.928 -1.1269  1.7550  0.4458
12588TIP3    H259256   6.350   3.137  14.779  0.2300  0.0676  0.6904
12589TIP3   OH259257   6.423   2.347   5.851  0.2455 -0.4468  0.3874
12589TIP3    H159258   6.465   2.260   5.848 -0.9788 -1.0471  0.2764
12589TIP3    H259259   6.333   2.329   5.878  0.1100  0.8492  0.8443
12590TIP3   OH259260   0.689   4.829  15.777 -0.5276 -0.3246 -1.0598
12590TIP3    H159261   0.610   4.826  15.831 -0.7776  1.1449 -1.3090
12590TIP3    H259262   0.658   4.815  15.688 -0.1776 -2.2174 -0.9291
12591TIP3   OH259263   3.244   3.620  10.970  0.0004  0.3223 -1.0227
12591TIP3    H159264   3.314   3.651  10.912  0.3868  0.8504 -0.2909
12591TIP3    H259265   3.212   3.698  11.014 -1.2500  0.1195 -1.5360
12592TIP3   OH259266   1.211   0.744   1.347  0.0163  0.4243 -0.0057
12592TIP3    H159267   1.282   0.803   1.373 -0.7384  0.7236  1.4878
12592TIP3    H259268   1.219   0.736   1.252  3.1803 -0.9819  0.2540
12593TIP3   OH259269   1.431   1.996  11.237  0.6789  0.2958 -0.1132
12593TIP3    H159270   1.346   1.953  11.236  0.0956  1.3819  0.4098
12593TIP3    H259271   1.454   2.006  11.144 -0.2249  0.8556 -0.2888
12594TIP3   OH259272   1.683   1.656  15.112 -0.3413 -0.4699  0.5158
12594TIP3    H159273   1.681   1.628  15.020  0.5093 -0.4079  0.4637
12594TIP3    H259274   1.601   1.703  15.125 -1.2488 -1.9354  0.2615
12595TIP3   OH259275   0.194   1.582  17.070  0.3317  0.0410  0.4606
12595TIP3    H159276   0.100   1.562  17.072  0.3642 -0.5594 -1.6284
12595TIP3    H259277   0.219   1.570  16.979  2.1871  1.4868  0.7234
12596TIP3   OH259278   2.240   0.484  11.930  0.2057  0.5391 -0.6689
12596TIP3    H159279   2.181   0.482  11.854 -0.1094 -0.2607 -0.4105
12596TIP3    H259280   2.269   0.575  11.935 -1.0749  0.9648 -0.7467
12597TIP3   OH259281   4.242   2.092  11.700  0.4991  0.1678 -0.3070
12597TIP3    H159282   4.304   2.088  11.627 -0.3181 -1.8315 -0.9607
12597TIP3    H259283   4.279   2.157  11.760  1.7883  1.0225 -1.9489
12598TIP3   OH259284   6.489   2.017   3.252  0.2318 -0.6810  0.0725
12598TIP3    H159285   6.565   2.036   3.197 -0.6161 -0.2217 -1.0062
12598TIP3    H259286   6.430   1.970   3.193 -0.9559  0.3484  0.3947
12599TIP3   OH259287   3.469   1.752  11.637  0.2425 -0.3013 -0.2408
12599TIP3    H159288   3.428   1.745  11.551  1.5465  0.4863 -0.9510
12599TIP3    H259289   3.417   1.695  11.693 -1.2915  0.0062 -1.2965
12600TIP3   OH259290   4.360   1.045   3.655  0.1663 -0.1181 -0.1962
12600TIP3    H159291   4.365   1.119   3.716  2.9824  1.1356 -1.7901
12600TIP3    H259292   4.299   1.075   3.587  0.4353  0.2691 -0.2683
12601TIP3   OH259293   3.624   5.783   0.667  0.0854  0.5153  0.3672
12601TIP3    H159294   3.623   5.688   0.665  0.6759  0.5225 -0.8654
12601TIP3    H259295   3.563   5.806   0.737  0.7029 -0.7732  1.3514
12602TIP3   OH259296   6.232   2.830   5.395 -0.0458  0.3801 -0.2799
12602TIP3    H159297   6.250   2.845   5.488 -0.2462 -1.6743  0.1380
12602TIP3    H259298   6.306   2.870   5.349  0.9189 -0.0363  0.8695
12603TIP3   OH259299   1.347   3.534  15.011 -0.1605  0.4336  0.6837
12603TIP3    H159300   1.362   3.488  15.094  0.0840 -0.2243  0.2821
12603TIP3    H259301   1.252   3.547  15.008 -0.2566 -0.2255  0.7115
12604TIP3   OH259302   1.090   2.270   3.607 -0.1160  0.0266  0.1209
12604TIP3    H159303   1.043   2.352   3.593 -0.4509 -0.1368  0.2779
12604TIP3    H259304   1.048   2.208   3.547  1.4521  0.4526 -1.5021
12605TIP3   OH259305   2.857   1.476  12.960 -0.4037 -0.3054  0.3847
12605TIP3    H159306   2.769   1.462  12.996 -0.6519  0.8624  0.2800
12605TIP3    H259307   2.841   1.498  12.868  0.0497 -0.8063  0.1893
12606TIP3   OH259308   1.555   2.999   4.553 -0.1268 -0.1881  0.5126
12606TIP3    H159309   1.493   3.071   4.564 -0.6672 -0.9348  3.1712
12606TIP3    H259310   1.516   2.942   4.487 -0.6593  0.9529 -0.1725
12607TIP3   OH259311   1.088   2.921  11.253  0.3929  0.2974 -0.1977
12607TIP3    H159312   1.088   2.852  11.320 -2.6347  1.6618  1.4355
12607TIP3    H259313   1.032   2.886  11.184  1.4264 -0.0784 -0.8663
12608TIP3   OH259314   2.401   3.579  12.550 -0.1934 -0.0891  0.0610
12608TIP3    H159315   2.343   3.619  12.485 -0.6961 -0.9869 -0.0583
12608TIP3    H259316   2.486   3.575  12.506 -0.2173  0.5078 -0.0536
12609TIP3   OH259317   4.130   5.835  14.982  0.2612  0.0908  0.2620
12609TIP3    H159318   4.075   5.808  15.056 -0.4900  1.4899  0.2506
12609TIP3    H259319   4.115   5.768  14.915 -1.1367  0.2420  0.4040
12610TIP3   OH259320   3.623   3.290   0.098 -0.0986  0.3340 -0.2826
12610TIP3    H159321   3.556   3.329   0.043 -2.0581 -1.2994  0.7861
12610TIP3    H259322   3.663   3.364   0.144 -3.0804  1.2645  1.0522
12611TIP3   OH259323   5.670   6.685   3.961  0.4120  0.1818 -0.5326
12611TIP3    H159324   5.660   6.592   3.938 -2.7317  0.1905  0.2739
12611TIP3    H259325   5.746   6.688   4.017 -0.3535 -2.2518  0.7744
12612TIP3   OH259326   1.212   2.717  10.608  0.2003 -0.5746  0.0652
12612TIP3    H159327   1.150   2.662  10.561  1.3326 -0.2728 -1.8683
12612TIP3    H259328   1.231   2.789  10.548  1.8612 -0.2709  0.8938
12613TIP3   OH259329   3.701   6.612  12.468  0.1965 -0.3118  0.0862
12613TIP3    H159330   3.680   6.656  12.386  0.2152  2.4621  1.4466
12613TIP3    H259331   3.630   6.550  12.481  0.4217 -1.1475 -2.1763
12614TIP3   OH259332   4.090   0.077   3.822 -0.2170 -0.9372 -0.2856
12614TIP3    H159333   4.083   0.106   3.913 -1.4467 -0.2198 -0.5961
12614TIP3    H259334   4.091   0.158   3.771 -0.1111 -1.3538 -0.9532
12615TIP3   OH259335   2.152   0.602   4.036 -0.0852  0.3141 -0.1016
12615TIP3    H159336   2.147   0.535   3.968 -0.8132  1.2615 -1.0184
12615TIP3    H259337   2.230   0.652   4.016  0.5993 -0.3843  0.7300
12616TIP3   OH259338   4.485   5.068   1.451  0.2804  0.2835 -0.2837
12616TIP3    H159339   4.496   5.108   1.365 -0.2712 -1.0676 -1.0120
12616TIP3    H259340   4.400   5.100   1.481  0.1766  0.2509 -0.5382
12617TIP3   OH259341   5.438   1.314  15.060  0.2898  0.3895  0.1958
12617TIP3    H159342   5.438   1.256  14.984 -2.0726 -1.0184  1.1503
12617TIP3    H259343   5.509   1.281  15.116  1.6468  1.0646 -1.0749
12618TIP3   OH259344   6.759   1.707   5.997  0.4714  0.0949  0.5791
12618TIP3    H159345   6.731   1.625   6.037  0.0726 -0.1885 -0.2423
12618TIP3    H259346   6.836   1.734   6.047 -0.6020  0.3117  2.1853
12619TIP3   OH259347   1.998   1.666  15.058  0.0401  0.7495 -1.1660
12619TIP3    H159348   2.002   1.756  15.091  1.0510 -0.3512  2.1982
12619TIP3    H259349   1.905   1.651  15.041 -0.2831  2.1356 -0.7763
12620TIP3   OH259350   6.195   2.991   3.756  0.1675 -0.1143  0.0702
12620TIP3    H159351   6.127   2.955   3.699  1.1683 -1.4873 -0.2996
12620TIP3    H259352   6.240   2.915   3.791  0.7453  0.7518  1.2746
12621TIP3   OH259353   0.415   0.399   2.570 -0.6479  0.5924 -0.6907
12621TIP3    H159354   0.333   0.398   2.619 -1.1714 -1.2132 -1.4927
12621TIP3    H259355   0.477   0.446   2.625 -0.9158 -2.1300  2.2286
12622TIP3   OH259356   0.667   0.998  15.460 -0.5362 -0.1197  0.2591
12622TIP3    H159357   0.695   1.027  15.547  0.2355 -0.6518  0.1985
12622TIP3    H259358   0.619   1.073  15.424  0.0652  0.4986  0.7168
12623TIP3   OH259359   3.337   2.394   4.144 -0.2772 -0.3632  0.0012
12623TIP3    H159360   3.396   2.324   4.117 -1.0764 -1.5176  1.1682
12623TIP3    H259361   3.253   2.372   4.103 -0.0251  1.1448 -1.4661
12624TIP3   OH259362   1.838   5.886   2.688  0.2996  0.2930 -0.2216
12624TIP3    H159363   1.932   5.893   2.704  0.3424  0.2623 -0.4603
12624TIP3    H259364   1.830   5.822   2.617 -0.1001 -2.4399  2.1008
12625TIP3   OH259365   0.062   4.091  13.690  0.6530  0.0708  0.0344
12625TIP3    H159366   0.105   4.008  13.670  0.5510 -0.1070  0.5230
12625TIP3    H259367   0.132   4.146  13.726  0.3979 -0.3833  1.2840
12626TIP3   OH259368   3.976   6.775  14.086 -0.3487 -0.2120  0.3316
12626TIP3    H159369   4.024   6.850  14.119  1.5383 -1.5980  0.9281
12626TIP3    H259370   4.013   6.759  13.999 -2.1028  0.6743 -0.6274
12627TIP3   OH259371   1.170   1.383  11.052  0.2597  0.7644 -0.8697
12627TIP3    H159372   1.116   1.437  10.994 -1.3643 -1.0334 -1.1250
12627TIP3    H259373   1.258   1.420  11.044 -0.5280  2.5187 -2.0276
12628TIP3   OH259374   5.636   3.626  16.398  0.0171 -0.2682 -0.4054
12628TIP3    H159375   5.621   3.709  16.352  0.2042  0.3075  0.5348
12628TIP3    H259376   5.549   3.595  16.421 -0.1248 -0.9135 -1.7143
12629TIP3   OH259377   2.558   1.613   3.281 -0.0230  0.5224  0.1965
12629TIP3    H159378   2.632   1.605   3.220 -0.0434 -0.0586  0.2398
12629TIP3    H259379   2.506   1.534   3.265  0.8604 -0.5332  2.1395
12630TIP3   OH259380   2.864   0.210   5.221  0.7405 -0.7110  0.2869
12630TIP3    H159381   2.896   0.177   5.137  0.6658  1.2152 -0.5501
12630TIP3    H259382   2.789   0.153   5.243  0.5710 -1.0417 -1.0960
12631TIP3   OH259383   1.428   4.755   0.448  0.3683  0.2382 -0.3624
12631TIP3    H159384   1.334   4.740   0.456 -0.0446  2.6718 -0.0236
12631TIP3    H259385   1.467   4.680   0.494 -1.4107 -0.3694  0.2701
12632TIP3   OH259386   2.474   2.618  16.510  0.0439 -0.2922  0.1985
12632TIP3    H159387   2.401   2.606  16.570  0.3856 -1.0422  0.4780
12632TIP3    H259388   2.540   2.665  16.560  0.3792 -1.0284  0.4700
12633TIP3   OH259389   1.759   1.452  14.367  0.6006 -0.1141 -0.1354
12633TIP3    H159390   1.696   1.396  14.322 -0.3250  0.4769  0.3799
12633TIP3    H259391   1.728   1.455  14.457  0.3995  1.4942 -0.2227
12634TIP3   OH259392   2.001   1.772   5.025 -0.1583 -0.1418 -0.5164
12634TIP3    H159393   2.084   1.797   5.066 -0.1417 -0.2416 -0.4883
12634TIP3    H259394   1.959   1.855   5.003  0.5984 -0.0684 -1.8388
12635TIP3   OH259395   5.631   1.813  13.358  0.4064  0.0764 -0.1336
12635TIP3    H159396   5.537   1.799  13.370  0.3979 -1.1624 -1.3519
12635TIP3    H259397   5.666   1.725  13.343  1.6979  0.5759 -0.1399
12636TIP3   OH259398   2.553   0.612  11.884 -0.3542 -0.3473  0.1861
12636TIP3    H159399   2.557   0.550  11.812  2.4169 -0.4919  0.3550
12636TIP3    H259400   2.539   0.697  11.842 -1.3514 -0.7234 -0.2720
12637TIP3   OH259401   4.147   1.597   6.862  0.2844  0.3099  0.2818
12637TIP3    H159402   4.088   1.652   6.915  1.1374 -1.0548  2.8243
12637TIP3    H259403   4.102   1.513   6.856  0.7861  0.0639 -0.0592
12638TIP3   OH259404   5.977   1.052  14.368  0.0952 -0.3461 -0.7910
12638TIP3    H159405   6.028   1.033  14.289 -0.0837 -1.0926 -0.7377
12638TIP3    H259406   6.021   1.003  14.438 -0.3179 -0.4842 -0.6206
12639TIP3   OH259407   6.425   1.236   2.791 -0.5345 -0.3422 -0.3342
12639TIP3    H159408   6.336   1.269   2.794  0.1734  1.8328 -1.2066
12639TIP3    H259409   6.451   1.245   2.699  0.0865 -2.4390 -0.4171
12640TIP3   OH259410   0.430   5.146   5.726 -0.2264  0.1511  0.5120
12640TIP3    H159411   0.517   5.187   5.725  0.7609 -1.7966 -1.0469
12640TIP3    H259412   0.447   5.054   5.707 -2.6650 -0.2345 -0.1343
12641TIP3   OH259413   2.977   5.614  13.565  0.0851 -0.4810  0.3128
12641TIP3    H159414   3.012   5.557  13.633 -1.6395 -0.1710  1.5287
12641TIP3    H259415   3.034   5.691  13.566  0.7243 -0.9505  0.6271
12642TIP3   OH259416   1.463   1.860   3.653  0.2337  0.5353 -0.2025
12642TIP3    H159417   1.404   1.896   3.587  0.3405 -0.4310 -0.8397
12642TIP3    H259418   1.514   1.936   3.682  1.5363  0.7058 -2.6391
12643TIP3   OH259419   5.337   3.902  11.711  0.0299  0.1156  0.1655
12643TIP3    H159420   5.255   3.852  11.705 -0.6230  1.0675  0.8064
12643TIP3    H259421   5.312   3.991  11.685  1.3390 -0.0279 -1.7318
12644TIP3   OH259422   1.411   3.363   4.168 -0.6722 -0.4804 -0.0171
12644TIP3    H159423   1.409   3.375   4.073 -0.9298 -0.6293 -0.0313
12644TIP3    H259424   1.468   3.287   4.182  0.2455  0.2001  0.0186
12645TIP3   OH259425   0.582   0.463   3.402 -0.4487  0.4141 -0.2775
12645TIP3    H159426   0.604   0.549   3.439 -2.0051  0.9040 -0.4289
12645TIP3    H259427   0.528   0.421   3.469  1.5716 -1.1516  0.4892
12646TIP3   OH259428   5.752   3.756  11.413 -0.2394 -0.1425  0.1544
12646TIP3    H159429   5.662   3.765  11.443  0.2308  0.8862  1.3261
12646TIP3    H259430   5.762   3.662  11.395 -1.2810 -0.3961  0.8342
12647TIP3   OH259431   2.028   2.923   1.742 -0.0334  0.5081 -0.0219
12647TIP3    H159432   2.101   2.984   1.758  0.1029  0.0037  1.4432
12647TIP3    H259433   1.955   2.960   1.792 -1.0194  1.3587 -1.9954
12648TIP3   OH259434   0.664   1.919  11.724 -0.5454 -0.2029 -0.4767
12648TIP3    H159435   0.589   1.897  11.779  0.6496 -0.5099  1.1214
12648TIP3    H259436   0.660   2.014  11.716 -0.1109 -0.0071  1.1849
12649TIP3   OH259437   3.236   5.845   1.631  0.0414 -0.2504 -0.2160
12649TIP3    H159438   3.223   5.752   1.615  1.7694 -0.9796  2.0801
12649TIP3    H259439   3.261   5.850   1.724 -2.9402  2.8202  0.6447
12650TIP3   OH259440   0.124   4.700   3.816 -0.2509  0.1530 -0.2366
12650TIP3    H159441   0.143   4.793   3.804 -0.1881  0.2661  0.6762
12650TIP3    H259442   0.198   4.655   3.775  0.4878  0.5380  0.6402
12651TIP3   OH259443   6.706   5.372   0.136  0.3649 -0.5971 -0.7498
12651TIP3    H159444   6.709   5.414   0.050  1.0511  1.7319  0.3224
12651TIP3    H259445   6.615   5.383   0.165  0.1768 -1.2254 -1.0915
12652TIP3   OH259446   6.518   4.722   4.117  0.0177  0.4302 -0.7062
12652TIP3    H159447   6.590   4.662   4.094 -0.6310 -0.1744 -1.1939
12652TIP3    H259448   6.543   4.806   4.079 -0.6488 -0.3423 -3.0046
12653TIP3   OH259449   4.818   0.597  10.714  0.6317 -0.1832 -0.2664
12653TIP3    H159450   4.863   0.663  10.662  2.4094 -0.2600  1.0967
12653TIP3    H259451   4.817   0.519  10.658  0.0944  0.4692 -1.1988
12654TIP3   OH259452   0.266   0.250  12.386  0.1320  0.3046  0.5748
12654TIP3    H159453   0.343   0.196  12.403 -1.0444 -1.3959  0.7902
12654TIP3    H259454   0.232   0.270  12.473  0.2872  1.0172  0.4784
12655TIP3   OH259455   4.410   3.425   3.233  0.6079 -0.5936 -0.5295
12655TIP3    H159456   4.381   3.516   3.233 -1.0587 -1.0550 -2.1721
12655TIP3    H259457   4.330   3.375   3.220  1.8018 -2.1196 -2.6043
12656TIP3   OH259458   2.069   0.882  12.649 -0.2828 -0.3472  0.5229
12656TIP3    H159459   2.124   0.807  12.630  0.2099 -0.5572  2.5325
12656TIP3    H259460   2.066   0.887  12.745 -1.7851  1.1095  0.4694
12657TIP3   OH259461   0.929   1.549   3.500 -0.5366  0.0801 -0.1291
12657TIP3    H159462   0.959   1.468   3.542 -0.4670 -0.4872 -1.2346
12657TIP3    H259463   0.905   1.523   3.411  2.2697  1.7314 -1.5193
12658TIP3   OH259464   4.366   4.702   5.353 -0.3897 -0.1313  0.1215
12658TIP3    H159465   4.431   4.634   5.339 -0.5370 -0.1141 -0.7088
12658TIP3    H259466   4.382   4.765   5.283  0.3412  1.1720  1.3864
12659TIP3   OH259467   0.667   2.237   2.559  0.4257  0.0967 -0.6938
12659TIP3    H159468   0.577   2.256   2.532 -0.1405 -2.4152 -0.8365
12659TIP3    H259469   0.697   2.318   2.601 -1.9202  0.9875 -0.5694
12660TIP3   OH259470   2.087   4.969  15.360  0.1375  0.2814 -0.1592
12660TIP3    H159471   2.048   5.031  15.422 -0.2407  0.1951 -0.3120
12660TIP3    H259472   2.071   4.883  15.398  0.1282  0.2426 -0.2511
12661TIP3   OH259473   6.138   2.608  13.007 -0.7554  0.2241 -0.0887
12661TIP3    H159474   6.064   2.548  13.003  0.3850 -1.1799 -1.3611
12661TIP3    H259475   6.194   2.572  13.076 -1.2147  1.2895  0.8816
12662TIP3   OH259476   4.201   4.104   5.871 -0.3309  0.1149 -0.5138
12662TIP3    H159477   4.219   4.162   5.944  0.4564 -0.6026 -0.1192
12662TIP3    H259478   4.210   4.016   5.908 -0.6638 -0.2586 -1.2965
12663TIP3   OH259479   1.555   5.936   2.580 -0.1173  0.0785  0.1700
12663TIP3    H159480   1.539   5.845   2.605 -0.3122 -0.0662 -0.4760
12663TIP3    H259481   1.643   5.935   2.543 -0.6242 -0.1066 -1.0687
12664TIP3   OH259482   6.650   3.409  13.323  0.0321 -0.0297 -0.2587
12664TIP3    H159483   6.647   3.505  13.317  0.6731  0.0145  0.0289
12664TIP3    H259484   6.627   3.379  13.235  2.0763  0.4465 -0.9973
12665TIP3   OH259485   6.603   5.765  14.278 -0.2173  0.5686 -0.6753
12665TIP3    H159486   6.575   5.778  14.187 -0.9430  1.3874 -0.3496
12665TIP3    H259487   6.678   5.706  14.272  1.0810  2.2486 -1.9887
12666TIP3   OH259488   6.392   5.673   4.443  0.1229 -0.4392 -0.3871
12666TIP3    H159489   6.395   5.631   4.357 -1.2819  0.1229 -0.7351
12666TIP3    H259490   6.321   5.736   4.437 -0.9281 -1.3109  1.5972
12667TIP3   OH259491   5.819   2.104   1.755 -0.2207 -0.3852  0.1937
12667TIP3    H159492   5.770   2.022   1.760  0.4451 -0.9278 -1.5220
12667TIP3    H259493   5.897   2.088   1.808 -0.6048 -0.4584  0.7513
12668TIP3   OH259494   4.680   4.972  17.120 -0.0564  0.0003 -0.6770
12668TIP3    H159495   4.771   4.989  17.093  0.3296  0.8694  1.0412
12668TIP3    H259496   4.660   5.042  17.182 -1.1325 -1.4477  0.6865
12669TIP3   OH259497   5.505   1.625   0.887  0.7612  0.0570  0.0082
12669TIP3    H159498   5.542   1.624   0.975  1.6646  0.0350 -0.3668
12669TIP3    H259499   5.572   1.583   0.832  0.3685  0.4126 -0.7538
12670TIP3   OH259500   0.065   1.818  14.455 -0.0065  0.6585 -1.1009
12670TIP3    H159501   0.154   1.794  14.480 -0.8546  1.5303  3.6841
12670TIP3    H259502   0.019   1.734  14.449  0.5193  0.3476 -0.8905
12671TIP3   OH259503   4.125   0.286   2.157 -0.1444 -0.1482  0.3004
12671TIP3    H159504   4.051   0.236   2.125 -1.5407 -0.0443  3.1074
12671TIP3    H259505   4.130   0.361   2.097 -3.0373  0.4325  0.6374
12672TIP3   OH259506   2.492   5.364  16.631  0.3055  0.4601  0.3407
12672TIP3    H159507   2.442   5.444  16.618  0.2714  0.2633 -0.8167
12672TIP3    H259508   2.577   5.382  16.592 -0.4618 -0.8380 -2.1392
12673TIP3   OH259509   4.636   5.766   4.904  0.0712 -0.3551 -0.0701
12673TIP3    H159510   4.575   5.839   4.890  0.6451  0.4594  1.5622
12673TIP3    H259511   4.717   5.807   4.934  1.0374 -1.5380 -0.9560
12674TIP3   OH259512   0.801   4.217  16.198 -0.2605 -0.3050 -0.0043
12674TIP3    H159513   0.721   4.268  16.192  0.4750  1.0968  1.4411
12674TIP3    H259514   0.870   4.278  16.171  0.5633 -0.7126  1.1087
12675TIP3   OH259515   3.832   6.112  11.447  0.2154 -0.4172  0.8311
12675TIP3    H159516   3.850   6.127  11.354  0.1299 -0.9055  0.7363
12675TIP3    H259517   3.770   6.182  11.470 -0.3848 -0.7691  0.3217
12676TIP3   OH259518   3.526   3.329  14.067 -0.1733 -0.2638  0.1221
12676TIP3    H159519   3.457   3.263  14.057  0.0760 -0.6724  1.0081
12676TIP3    H259520   3.501   3.379  14.145 -0.2373  0.5572 -0.4095
12677TIP3   OH259521   2.233   4.470   5.468  0.6426 -0.0078 -0.6898
12677TIP3    H159522   2.322   4.451   5.439  0.1131 -3.3492 -0.5433
12677TIP3    H259523   2.238   4.467   5.564  0.1952 -1.5887 -0.6866
12678TIP3   OH259524   2.009   0.809   5.060  0.9021  0.0949 -0.0242
12678TIP3    H159525   2.079   0.744   5.053  0.1181 -0.8125  0.4253
12678TIP3    H259526   1.930   0.763   5.036  0.0143  0.2893  2.2653
12679TIP3   OH259527   2.086   3.388  16.972 -0.2522 -0.4948  0.5207
12679TIP3    H159528   2.150   3.427  17.032 -1.4356  2.2278  0.1655
12679TIP3    H259529   2.111   3.296  16.967 -0.6568 -1.2404  5.9890
12680TIP3   OH259530   1.252   3.890   5.757  0.1092  0.1086  0.0886
12680TIP3    H159531   1.245   3.796   5.772 -0.8084  0.3125  1.0922
12680TIP3    H259532   1.207   3.905   5.674 -1.4034 -0.1235  0.8317
12681TIP3   OH259533   1.214   0.218  11.647  0.1886  0.1331  0.0298
12681TIP3    H159534   1.214   0.178  11.560  1.8801  1.3497 -0.5872
12681TIP3    H259535   1.126   0.253  11.658 -0.3605 -0.9433 -0.7324
12682TIP3   OH259536   3.065   1.377  13.107 -0.4340  0.1881  0.0883
12682TIP3    H159537   3.142   1.423  13.074 -2.4251  3.2901 -0.6963
12682TIP3    H259538   2.991   1.419  13.063 -2.6116 -4.0140 -0.8395
12683TIP3   OH259539   4.264   5.368   2.207 -0.6926  0.2482 -0.2254
12683TIP3    H159540   4.236   5.415   2.286 -1.3923 -0.5619  0.0307
12683TIP3    H259541   4.211   5.405   2.137 -1.5582 -0.4202  0.0481
12684TIP3   OH259542   2.143   3.506  10.733  0.4732 -0.2833 -0.6507
12684TIP3    H159543   2.164   3.529  10.642  1.2305 -0.2386 -0.4741
12684TIP3    H259544   2.083   3.431  10.725 -1.3473  1.1777 -1.2003
12685TIP3   OH259545   4.032   1.130  13.005 -0.1640  0.2010 -0.0051
12685TIP3    H159546   3.968   1.059  13.010 -0.9492  0.8361 -0.6921
12685TIP3    H259547   4.058   1.145  13.096 -0.0897 -0.8593  0.1571
12686TIP3   OH259548   5.163   2.838  16.893  0.0754 -0.6202  0.0099
12686TIP3    H159549   5.112   2.894  16.951  2.0540 -0.3903  1.6791
12686TIP3    H259550   5.235   2.894  16.864  0.0918 -1.2732 -1.2537
12687TIP3   OH259551   0.587   3.312   5.246  0.1416 -0.4752  0.3904
12687TIP3    H159552   0.509   3.339   5.198  0.5230  0.4992  0.2842
12687TIP3    H259553   0.659   3.354   5.199  0.4499  1.6077  2.5241
12688TIP3   OH259554   3.982   0.837   2.844 -0.4551 -0.0762 -0.4265
12688TIP3    H159555   3.894   0.811   2.818 -0.4275  1.1500 -1.8523
12688TIP3    H259556   3.969   0.912   2.903 -0.3623  0.7829 -1.4719
12689TIP3   OH259557   1.396   6.308  12.981 -1.2137 -0.4145  0.1608
12689TIP3    H159558   1.395   6.381  12.920 -1.1739  0.1911  0.8801
12689TIP3    H259559   1.347   6.239  12.936 -0.9838 -0.0583 -0.6484
12690TIP3   OH259560   1.497   1.531  14.507  0.4891  0.0625  0.1815
12690TIP3    H159561   1.509   1.437  14.516  0.1449 -0.0958 -0.9006
12690TIP3    H259562   1.450   1.557  14.586  1.4123 -0.5079  0.9356
12691TIP3   OH259563   3.706   4.250  12.011 -0.2901 -0.1156 -0.3311
12691TIP3    H159564   3.696   4.251  12.106  1.9784  2.8158 -0.0162
12691TIP3    H259565   3.763   4.175  11.994  1.2434  0.6982  0.9418
12692TIP3   OH259566   3.017   2.053  12.982  0.0461  0.1442  0.3442
12692TIP3    H159567   2.927   2.061  12.951  0.5429 -1.7174 -1.7997
12692TIP3    H259568   3.009   2.032  13.075 -1.7284 -0.2614  0.1315
12693TIP3   OH259569   1.811   4.388   2.998  0.4332 -0.2293  0.6547
12693TIP3    H159570   1.841   4.304   2.963  0.0487  0.4591 -1.4092
12693TIP3    H259571   1.892   4.434   3.023  0.7881 -0.3331 -0.2935
12694TIP3   OH259572   1.079   5.003  15.459 -0.7230 -0.4695 -0.3239
12694TIP3    H159573   0.997   4.963  15.489  0.1596 -0.8187  1.8836
12694TIP3    H259574   1.147   4.948  15.498  0.5429  2.0270  1.2525
12695TIP3   OH259575   0.707   6.620  13.251  0.4653 -0.3271  0.1172
12695TIP3    H159576   0.650   6.563  13.199  0.9860  0.0845 -0.9539
12695TIP3    H259577   0.666   6.624  13.337 -1.3240  0.2470 -0.7194
12696TIP3   OH259578   1.105   1.646   5.670  0.1718 -0.4168 -0.1872
12696TIP3    H159579   1.041   1.664   5.739  0.5277 -1.0867  0.3286
12696TIP3    H259580   1.163   1.580   5.708  2.2341  1.3966  0.0011
12697TIP3   OH259581   0.889   3.585  15.647  0.2859  0.1571  0.0700
12697TIP3    H159582   0.852   3.566  15.733 -1.5204 -2.3159 -1.1197
12697TIP3    H259583   0.980   3.556  15.653  0.0311 -0.4799  0.9928
12698TIP3   OH259584   1.189   3.337  15.561 -0.7944  0.0130  0.4901
12698TIP3    H159585   1.279   3.306  15.566 -0.0099  2.3028  2.2467
12698TIP3    H259586   1.149   3.309  15.643 -0.7394  1.5054  1.0690
12699TIP3   OH259587   6.554   0.206  14.758 -0.4410  0.1920  0.6954
12699TIP3    H159588   6.478   0.232  14.810 -0.8501  1.0923 -0.2962
12699TIP3    H259589   6.620   0.272  14.778 -1.2774  1.8042 -1.3698
12700TIP3   OH259590   0.063   1.446  12.996 -0.0015  0.6144 -0.0468
12700TIP3    H159591   0.089   1.513  12.932  3.9118  1.4106  2.0503
12700TIP3    H259592   0.034   1.496  13.072  1.2863 -0.0688  0.9247
12701TIP3   OH259593   0.292   2.870  13.515  0.1390 -0.4395 -0.3115
12701TIP3    H159594   0.363   2.820  13.556  0.1116  0.5525  1.0354
12701TIP3    H259595   0.223   2.871  13.581  0.2986  1.6954 -0.1123
12702TIP3   OH259596   3.951   1.090   5.187 -0.1077  0.0986 -0.1147
12702TIP3    H159597   3.864   1.098   5.226 -0.7063  0.5436 -1.4852
12702TIP3    H259598   3.945   1.014   5.130 -0.1091  1.0532 -1.4299
12703TIP3   OH259599   3.770   6.804  14.495 -0.0282 -0.5376 -0.4569
12703TIP3    H159600   3.856   6.801  14.453  0.1151  0.1727 -0.2390
12703TIP3    H259601   3.756   6.715  14.528  0.1821 -0.9095 -1.3503
12704TIP3   OH259602   5.736   4.965   4.347 -0.4331 -0.2699 -0.1275
12704TIP3    H159603   5.807   4.921   4.300 -0.0339  0.9191 -0.6730
12704TIP3    H259604   5.778   5.040   4.388 -1.0955 -0.4079  0.8159
12705TIP3   OH259605   2.806   0.092   1.506 -0.2610 -0.1393 -0.1543
12705TIP3    H159606   2.897   0.077   1.481  0.4307 -0.1138  2.1888
12705TIP3    H259607   2.809   0.168   1.564 -1.8393  0.0365 -0.2499
12706TIP3   OH259608   4.961   0.577  15.510 -0.1522 -0.7899  0.0148
12706TIP3    H159609   4.911   0.648  15.471 -0.2452 -1.2493 -0.7101
12706TIP3    H259610   4.965   0.599  15.603 -0.3089  0.0830 -0.1802
12707TIP3   OH259611   6.334   5.586   4.721  0.1966 -0.5471 -0.3812
12707TIP3    H159612   6.382   5.633   4.652  0.8501 -0.1347  0.3323
12707TIP3    H259613   6.334   5.495   4.692 -0.2377 -0.2688 -1.3114
12708TIP3   OH259614   3.905   5.110  13.900  0.9285  0.1009 -0.2309
12708TIP3    H159615   3.866   5.022  13.908 -0.0439  0.5234 -0.1856
12708TIP3    H259616   3.975   5.099  13.836  0.2047 -0.5243 -0.9535
12709TIP3   OH259617   0.706   5.111   2.704 -0.0022 -0.4981 -0.3190
12709TIP3    H159618   0.668   5.197   2.686 -0.8183 -0.7273  0.2259
12709TIP3    H259619   0.712   5.069   2.618  1.9693  0.7060 -0.8120
12710TIP3   OH259620   1.680   1.183  15.454 -0.4485 -0.5449  0.8741
12710TIP3    H159621   1.608   1.128  15.487  0.4757 -2.0023  0.5388
12710TIP3    H259622   1.702   1.239  15.528 -1.8149 -0.1731  1.0366
12711TIP3   OH259623   2.840   1.841  10.950 -0.2744 -0.2914 -0.0272
12711TIP3    H159624   2.870   1.798  10.870 -0.0081 -0.6916  0.2854
12711TIP3    H259625   2.811   1.927  10.921  0.6953 -0.0830 -0.4095
12712TIP3   OH259626   2.098   5.005   3.993 -0.2167 -0.0864  0.2928
12712TIP3    H159627   2.044   5.082   4.014 -1.2072 -0.5869 -0.3388
12712TIP3    H259628   2.037   4.932   3.995 -0.2312 -0.3163 -3.2964
12713TIP3   OH259629   3.257   1.861   1.073  0.1482  0.2266 -0.5559
12713TIP3    H159630   3.172   1.880   1.113  0.1048 -0.6237 -0.2257
12713TIP3    H259631   3.319   1.918   1.118 -0.0236 -0.1645  0.1824
12714TIP3   OH259632   4.159   0.783   3.989  0.3708 -0.1545 -0.5372
12714TIP3    H159633   4.161   0.693   4.022  1.0601 -0.4874 -1.4198
12714TIP3    H259634   4.144   0.773   3.895 -1.2297  0.7392 -0.4058
12715TIP3   OH259635   6.430   5.018  11.557 -0.3774 -0.0348  0.5085
12715TIP3    H159636   6.492   4.957  11.597 -1.0828 -0.5233  0.8656
12715TIP3    H259637   6.385   5.059  11.630 -2.5858 -1.8584  0.3156
12716TIP3   OH259638   0.081   1.816   5.766 -0.3500 -0.2347 -0.3241
12716TIP3    H159639   0.145   1.853   5.827  1.1315 -0.9197 -1.4008
12716TIP3    H259640   0.005   1.796   5.821  0.4012  0.4532  1.0301
12717TIP3   OH259641   4.078   0.932  12.067  0.0605  0.3934  0.2724
12717TIP3    H159642   4.156   0.877  12.058  0.5802  1.2705 -0.7483
12717TIP3    H259643   4.021   0.882  12.126  1.2394 -0.4246  0.7736
12718TIP3   OH259644   5.712   5.699   0.066  0.5756  0.0160  0.1022
12718TIP3    H159645   5.694   5.680   0.158 -1.7689 -1.2800 -0.5383
12718TIP3    H259646   5.649   5.767   0.043 -0.0203 -0.8517 -0.9288
12719TIP3   OH259647   5.719   1.571  11.270  0.2332  0.0932  0.3498
12719TIP3    H159648   5.630   1.583  11.305  0.0866  1.2632 -0.3706
12719TIP3    H259649   5.722   1.628  11.193  1.8705  0.6921  0.8270
12720TIP3   OH259650   2.118   5.992  16.213 -0.2166  0.4025  0.3715
12720TIP3    H159651   2.168   5.912  16.230 -0.4265  0.1662 -0.0819
12720TIP3    H259652   2.156   6.027  16.133 -1.8481 -0.7049 -0.9859
12721TIP3   OH259653   1.572   4.075   2.038  0.0231  0.0808 -0.2300
12721TIP3    H159654   1.477   4.071   2.043 -0.1617  0.1208 -2.5791
12721TIP3    H259655   1.594   4.164   2.063 -0.8251  0.8577 -2.0742
12722TIP3   OH259656   0.405   1.435  12.915  0.2338 -0.6433  0.0685
12722TIP3    H159657   0.325   1.453  12.865  0.3058  0.3226  0.2786
12722TIP3    H259658   0.384   1.357  12.966 -0.7668 -0.1324  0.4902
12723TIP3   OH259659   3.279   3.286   5.906  0.4955 -0.3357 -0.0404
12723TIP3    H159660   3.341   3.304   5.976  2.2558 -1.3650 -1.2699
12723TIP3    H259661   3.333   3.258   5.832 -1.4808 -2.2351 -0.8656
12724TIP3   OH259662   2.897   0.660   2.919 -0.8111  0.6176  0.4365
12724TIP3    H159663   2.854   0.716   2.854 -0.9897 -0.4199 -0.3747
12724TIP3    H259664   2.825   0.612   2.961 -0.5722 -0.1314  0.0201
12725TIP3   OH259665   3.857   6.236  12.303 -0.3711 -1.2339  0.2184
12725TIP3    H159666   3.935   6.272  12.345 -0.7135 -1.6900  1.2672
12725TIP3    H259667   3.889   6.199  12.220  0.0687  1.0008 -0.6836
12726TIP3   OH259668   2.064   6.208   3.838 -0.0464 -0.2481 -0.9122
12726TIP3    H159669   2.092   6.119   3.816 -0.0556 -0.1929 -1.1437
12726TIP3    H259670   1.980   6.219   3.792 -0.3265 -0.3225 -0.4273
12727TIP3   OH259671   4.427   5.934  13.481 -0.1184 -0.5254 -0.3047
12727TIP3    H159672   4.358   5.889  13.433  0.7270 -0.0895 -2.0039
12727TIP3    H259673   4.486   5.968  13.413  3.0459 -2.8142  1.0223
12728TIP3   OH259674   5.181   6.513   1.479  0.2457  0.2394 -0.3665
12728TIP3    H159675   5.146   6.445   1.538  0.7860  0.0022 -0.3189
12728TIP3    H259676   5.236   6.466   1.417 -0.1778  0.5149 -0.9604
12729TIP3   OH259677   2.609   4.215   3.265 -0.1555  0.3519  0.4460
12729TIP3    H159678   2.608   4.135   3.211  2.0121  1.7646 -1.9106
12729TIP3    H259679   2.615   4.286   3.202  0.2577  2.2880  2.5467
12730TIP3   OH259680   5.758   1.165   5.873 -0.2110  0.0275 -0.7743
12730TIP3    H159681   5.666   1.145   5.853 -0.8120  1.1643  0.6832
12730TIP3    H259682   5.782   1.100   5.940  0.2475 -0.6383 -1.5700
12731TIP3   OH259683   0.353   0.515   4.785  0.2203 -0.0103  0.4974
12731TIP3    H159684   0.265   0.477   4.789 -0.5443  1.3180 -1.7608
12731TIP3    H259685   0.392   0.493   4.870 -2.5230 -0.0463  1.8739
12732TIP3   OH259686   0.215   3.590   2.820 -0.0800  0.4643  0.4610
12732TIP3    H159687   0.198   3.581   2.914 -1.1050 -0.4072  0.2189
12732TIP3    H259688   0.131   3.619   2.783 -0.0434 -0.3629 -0.3209
12733TIP3   OH259689   3.888   1.962  15.209  0.2984  0.1141 -0.9677
12733TIP3    H159690   3.981   1.965  15.228 -0.0501  1.9528  0.8745
12733TIP3    H259691   3.863   1.871  15.225  0.8268  0.5659  4.4558
12734TIP3   OH259692   4.520   5.225  15.083  0.3815  0.2020  0.2344
12734TIP3    H159693   4.610   5.213  15.113  0.9504 -1.6238 -1.9077
12734TIP3    H259694   4.475   5.145  15.112  0.7964 -1.3167 -2.8858
12735TIP3   OH259695   3.141   2.438   5.252 -0.0118  0.0523 -0.3305
12735TIP3    H159696   3.175   2.352   5.227 -1.4687 -0.7954  0.4482
12735TIP3    H259697   3.156   2.493   5.176  0.9336 -0.8964 -0.8598
12736TIP3   OH259698   5.814   0.926  15.225 -0.4477 -0.3297  0.0997
12736TIP3    H159699   5.722   0.938  15.204 -0.7486 -0.4643  1.2796
12736TIP3    H259700   5.858   0.922  15.140 -1.2200  2.0011 -0.4823
12737TIP3   OH259701   4.576   5.070   5.117  0.4768  0.2305 -0.4584
12737TIP3    H159702   4.656   5.033   5.154  0.5495 -0.1310 -0.9694
12737TIP3    H259703   4.606   5.126   5.045  0.4205  1.8111  0.6720
12738TIP3   OH259704   5.137   2.595   2.007  0.3701 -0.5319 -0.0928
12738TIP3    H159705   5.051   2.636   1.996 -0.2257 -1.7775 -0.1592
12738TIP3    H259706   5.134   2.516   1.953  1.8143 -0.2430 -0.6593
12739TIP3   OH259707   2.320   3.499   3.254  0.8214 -0.4615  0.0965
12739TIP3    H159708   2.322   3.487   3.348  1.7514 -2.7677 -0.1694
12739TIP3    H259709   2.231   3.477   3.228  1.4567 -3.3446  0.0989
12740TIP3   OH259710   2.989   1.236  14.464 -0.2217 -0.0394 -0.3346
12740TIP3    H159711   2.996   1.279  14.379  0.4041  0.1579 -0.1876
12740TIP3    H259712   2.958   1.305  14.523 -0.0024  0.0053 -0.2682
12741TIP3   OH259713   1.209   5.462  11.282 -0.3272  0.3708  0.2012
12741TIP3    H159714   1.238   5.494  11.197 -0.1029 -0.5786 -0.0995
12741TIP3    H259715   1.286   5.416  11.317 -1.1444 -1.4396 -0.2260
12742TIP3   OH259716   2.490   2.822  14.462  0.2696 -0.3071 -0.3426
12742TIP3    H159717   2.399   2.793  14.470 -0.0773  0.7484 -0.3030
12742TIP3    H259718   2.490   2.877  14.383  1.0258 -0.8533 -0.7326
12743TIP3   OH259719   6.338   6.603  11.997  0.2573 -0.2591  0.4845
12743TIP3    H159720   6.417   6.578  11.948  0.6137  0.6073  0.6057
12743TIP3    H259721   6.296   6.669  11.941 -0.1158 -0.3479  0.6602
12744TIP3   OH259722   0.460   3.384  11.865  0.8909  0.2174  0.2155
12744TIP3    H159723   0.451   3.352  11.776  3.2230 -4.7005  1.3817
12744TIP3    H259724   0.530   3.450  11.860 -0.2498  1.3754 -1.6829
12745TIP3   OH259725   5.738   0.635   4.328 -0.0167 -0.1044 -0.8136
12745TIP3    H159726   5.821   0.668   4.362  1.4592 -3.3497 -0.8852
12745TIP3    H259727   5.762   0.560   4.273 -3.0274 -3.0316  1.4237
12746TIP3   OH259728   0.131   5.927   5.181 -0.1691 -0.4482 -0.5332
12746TIP3    H159729   0.107   5.855   5.240  1.1881 -1.3809 -1.0926
12746TIP3    H259730   0.155   5.884   5.100 -0.7374  0.7568 -1.3642
12747TIP3   OH259731   4.412   6.440   5.200 -0.2230 -0.4903 -0.0125
12747TIP3    H159732   4.438   6.527   5.171 -1.6657  0.0233  0.1992
12747TIP3    H259733   4.443   6.434   5.290  0.4122 -0.4406 -0.2219
12748TIP3   OH259734   5.324   5.452   0.999  0.1419  0.2669 -0.4364
12748TIP3    H159735   5.410   5.492   1.012 -0.0667  1.0697 -1.4171
12748TIP3    H259736   5.338   5.388   0.928 -0.4052  1.6487 -1.8542
12749TIP3   OH259737   0.098   1.686  16.265  0.2791  0.0339 -0.0567
12749TIP3    H159738   0.187   1.656  16.247  0.2376 -1.5180  2.0809
12749TIP3    H259739   0.042   1.628  16.213  0.4443  0.8327 -1.1811
12750TIP3   OH259740   3.147   4.990  15.571 -0.2844 -0.0853  0.6825
12750TIP3    H159741   3.234   5.026  15.588 -1.2056  2.5545  0.2788
12750TIP3    H259742   3.131   4.931  15.645  0.4610  2.0981  2.7017
12751TIP3   OH259743   1.293   3.644   5.860 -0.2383 -0.0335  0.0338
12751TIP3    H159744   1.278   3.645   5.954  2.7160 -0.4350  0.5994
12751TIP3    H259745   1.226   3.584   5.826 -2.6615  1.6339  1.5052
12752TIP3   OH259746   3.041   2.809   5.346 -0.6158 -0.0922 -0.5954
12752TIP3    H159747   3.130   2.842   5.335 -1.1367  0.7244 -2.9040
12752TIP3    H259748   3.005   2.861   5.418  0.8305 -0.6860  0.6282
12753TIP3   OH259749   3.711   2.689  16.835  0.4983  0.2507 -0.1846
12753TIP3    H159750   3.652   2.630  16.882 -2.6594  0.7985 -3.0273
12753TIP3    H259751   3.754   2.633  16.771  1.5727  0.2185  0.5405
12754TIP3   OH259752   5.393   0.592   5.007 -0.5256  0.4509  0.6747
12754TIP3    H159753   5.486   0.576   5.025 -0.1347  2.6822  0.9857
12754TIP3    H259754   5.389   0.609   4.913 -1.0289 -1.7781  0.2343
12755TIP3   OH259755   5.144   0.540   2.205  0.8058 -0.1167  0.8001
12755TIP3    H159756   5.168   0.487   2.129  0.4068 -0.5129  0.9508
12755TIP3    H259757   5.116   0.477   2.270  0.6610  0.2596  1.1040
12756TIP3   OH259758   0.803   6.633   0.643  0.1845  0.0117  0.0799
12756TIP3    H159759   0.899   6.628   0.637  0.2588  1.6150 -0.5210
12756TIP3    H259760   0.786   6.722   0.673 -1.1858  0.4200 -1.7802
12757TIP3   OH259761   6.335   0.649   2.054 -0.7836 -0.3695 -0.0995
12757TIP3    H159762   6.339   0.554   2.051  1.2867 -0.3298 -0.2316
12757TIP3    H259763   6.298   0.669   2.140 -0.0257 -1.2973  0.4553
12758TIP3   OH259764   1.561   1.310  17.055 -0.1230  0.0113  0.0816
12758TIP3    H159765   1.607   1.365  17.119 -0.4711 -0.7599  1.0394
12758TIP3    H259766   1.622   1.237  17.040 -0.7180 -0.6635  0.8342
12759TIP3   OH259767   4.442   5.293   3.501  0.2260 -0.6980 -0.0364
12759TIP3    H159768   4.375   5.329   3.444 -0.2426 -1.4687  0.0122
12759TIP3    H259769   4.430   5.198   3.496 -1.4133 -0.7846  3.1628
12760TIP3   OH259770   2.704   0.514  12.070  0.0602  0.6115 -0.1240
12760TIP3    H159771   2.656   0.432  12.085 -0.5561  1.0324  0.2519
12760TIP3    H259772   2.647   0.565  12.014 -0.4175  1.5246  1.1417
12761TIP3   OH259773   6.397   5.104   0.746  0.0873 -0.5424 -0.2099
12761TIP3    H159774   6.418   5.011   0.747  2.3298 -0.1266 -1.5849
12761TIP3    H259775   6.470   5.145   0.700  0.0901  2.1425  1.9142
12762TIP3   OH259776   3.094   3.245   6.209 -0.0151  0.5237  0.1767
12762TIP3    H159777   3.001   3.266   6.221 -0.2095 -0.0625 -0.2159
12762TIP3    H259778   3.093   3.159   6.166  0.7237 -0.0406  1.2480
12763TIP3   OH259779   6.336   1.959   3.703  0.4072  0.0671 -0.5140
12763TIP3    H159780   6.310   1.870   3.679 -0.8092  0.6621 -1.5205
12763TIP3    H259781   6.411   1.947   3.761 -1.0780 -1.7103  1.1766
12764TIP3   OH259782   5.001   2.274  11.022 -0.2347  0.6303  0.9389
12764TIP3    H159783   4.955   2.228  11.092 -1.2570  2.1429  1.2945
12764TIP3    H259784   4.931   2.308  10.966  0.5512 -0.7878 -1.0375
12765TIP3   OH259785   5.661   0.488   4.980 -0.0916  0.0963  0.0979
12765TIP3    H159786   5.619   0.431   4.917 -0.4109  1.2702 -0.7949
12765TIP3    H259787   5.683   0.431   5.054 -0.5291 -1.1224 -0.6843
12766TIP3   OH259788   2.547   1.773   0.437  0.9100 -0.3204  0.3449
12766TIP3    H159789   2.616   1.790   0.374  1.4392 -0.0670  0.9844
12766TIP3    H259790   2.589   1.783   0.522  0.4532 -1.5934  0.7498
12767TIP3   OH259791   6.004   6.129   0.260  0.5394  0.0219 -0.5824
12767TIP3    H159792   5.981   6.036   0.259  0.6210 -0.0678  1.4662
12767TIP3    H259793   6.048   6.142   0.344 -0.2740  2.0965 -0.4204
12768TIP3   OH259794   6.046   4.624  10.574 -0.1756 -0.4427  0.1727
12768TIP3    H159795   6.067   4.582  10.491 -1.0645 -0.3051 -0.1329
12768TIP3    H259796   6.032   4.551  10.635 -0.6352 -0.5726 -0.0834
12769TIP3   OH259797   1.673   4.178  13.666  0.0299 -0.4023  0.0543
12769TIP3    H159798   1.626   4.243  13.719 -0.8283 -0.9120 -0.0616
12769TIP3    H259799   1.604   4.124  13.628  0.7371 -1.3170  0.0515
12770TIP3   OH259800   4.964   2.148  12.694  0.1473  0.4001 -0.0222
12770TIP3    H159801   4.946   2.100  12.775  0.4060  0.1356 -0.1193
12770TIP3    H259802   5.032   2.211  12.717 -0.8614  1.3773  0.3370
12771TIP3   OH259803   5.298   6.252  16.230 -0.4484  0.2770 -0.0075
12771TIP3    H159804   5.273   6.342  16.210 -0.0854  0.5287  0.6717
12771TIP3    H259805   5.266   6.202  16.155  1.8254  1.3377 -1.8067
12772TIP3   OH259806   3.972   3.507   3.314  0.5793  0.4170 -0.5557
12772TIP3    H159807   4.008   3.516   3.402  2.6462  0.7202 -1.3757
12772TIP3    H259808   4.045   3.475   3.261 -1.2390 -2.1438 -1.7351
12773TIP3   OH259809   5.259   1.305   2.688 -0.2247  0.0879  0.1626
12773TIP3    H159810   5.262   1.375   2.623 -0.1421  0.2287  0.3191
12773TIP3    H259811   5.264   1.224   2.636 -2.7921  0.1123 -0.2260
12774TIP3   OH259812   2.655   1.149  13.727 -0.0128  0.1153 -0.1782
12774TIP3    H159813   2.701   1.101  13.796 -1.3849 -1.6461 -0.3937
12774TIP3    H259814   2.690   1.113  13.646 -0.8326 -0.3246 -0.3472
12775TIP3   OH259815   0.107   2.124   0.078 -0.0423 -0.2559 -0.3007
12775TIP3    H159816   0.174   2.066   0.113 -0.7826 -0.1662  1.3160
12775TIP3    H259817   0.053   2.068   0.022  1.4824 -0.2750 -1.8644
12776TIP3   OH259818   1.352   4.276   3.921  0.0778  0.3772 -0.0761
12776TIP3    H159819   1.327   4.362   3.889  1.0341  1.2630  1.4337
12776TIP3    H259820   1.425   4.249   3.864 -1.5631 -0.4462 -1.9157
12777TIP3   OH259821   0.482   2.674   6.897  0.3517  0.3777  0.3363
12777TIP3    H159822   0.405   2.618   6.910  0.2140  0.9047  2.0344
12777TIP3    H259823   0.484   2.690   6.803 -2.9576  2.1500  0.4170
12778TIP3   OH259824   1.515   3.303  12.074  0.7497  0.1308  0.1591
12778TIP3    H159825   1.515   3.224  12.128 -0.6610  0.2168  0.3380
12778TIP3    H259826   1.504   3.374  12.137  1.7543  0.4520 -0.0245
12779TIP3   OH259827   0.915   5.126  13.856  0.1541 -0.0250 -0.1718
12779TIP3    H159828   0.852   5.067  13.814 -1.7472  1.1959  0.8086
12779TIP3    H259829   0.957   5.073  13.923  0.2871 -0.9026 -0.9308
12780TIP3   OH259830   4.572   4.562   4.176 -0.3353  0.0961  0.0255
12780TIP3    H159831   4.663   4.584   4.155 -0.2838 -0.0374  0.1143
12780TIP3    H259832   4.545   4.630   4.238 -0.2619  0.0696  0.0862
12781TIP3   OH259833   4.774   3.508   2.414  0.1232  0.1463  0.4030
12781TIP3    H159834   4.791   3.519   2.320  0.1548 -2.2606  0.0563
12781TIP3    H259835   4.779   3.413   2.428 -3.3836  0.0600  2.1803
12782TIP3   OH259836   0.784   6.330  14.687 -0.5541  0.3000 -0.0762
12782TIP3    H159837   0.813   6.420  14.672 -0.5289  0.1332 -1.1336
12782TIP3    H259838   0.749   6.303  14.602 -1.0791 -0.4955  0.3923
12783TIP3   OH259839   1.405   5.952  16.123  0.4513  0.1341 -0.6656
12783TIP3    H159840   1.432   6.021  16.183 -2.0170  0.4723  0.1391
12783TIP3    H259841   1.456   5.968  16.044  1.0494  1.9278  0.0453
12784TIP3   OH259842   4.635   4.614   5.661  0.1793 -0.2087 -0.0767
12784TIP3    H159843   4.621   4.533   5.613  1.2565  0.1531 -1.0517
12784TIP3    H259844   4.697   4.591   5.730  0.2615 -0.2756 -0.1726
12785TIP3   OH259845   2.601   3.011  13.492  0.0226 -0.4701 -0.7389
12785TIP3    H159846   2.536   3.066  13.449 -0.3055 -1.9563 -2.2579
12785TIP3    H259847   2.551   2.962  13.557  0.5889  2.0883  1.8495
12786TIP3   OH259848   1.452   2.348   3.149  0.3467  0.5688 -0.1430
12786TIP3    H159849   1.432   2.350   3.243 -1.4622  0.1811 -0.4823
12786TIP3    H259850   1.372   2.315   3.108  1.3447  0.0574 -1.7749
12787TIP3   OH259851   2.032   1.940  15.126 -0.6245  0.0688  0.0079
12787TIP3    H159852   1.965   2.006  15.144 -0.5761  0.4147 -1.0486
12787TIP3    H259853   2.112   1.990  15.112 -0.3199 -0.2956  0.4040
12788TIP3   OH259854   2.991   4.378  16.920  0.2700 -0.4534 -0.1917
12788TIP3    H159855   3.004   4.473  16.918  1.2563 -0.5735  0.1180
12788TIP3    H259856   3.001   4.354  17.012 -3.4534 -0.4425  0.4028
12789TIP3   OH259857   0.785   3.832   4.656  0.1747  0.8328 -0.2598
12789TIP3    H159858   0.752   3.814   4.568 -0.0724 -0.2939  0.0363
12789TIP3    H259859   0.805   3.745   4.691 -0.5317  1.1924  1.0970
12790TIP3   OH259860   4.246   2.727  15.805 -0.1091  0.6999 -0.2127
12790TIP3    H159861   4.272   2.635  15.795 -2.9645 -0.1867 -0.3631
12790TIP3    H259862   4.196   2.729  15.886 -1.9138  1.6154 -1.2753
12791TIP3   OH259863   5.260   3.801  12.593  0.2746  0.5286 -0.3709
12791TIP3    H159864   5.176   3.827  12.630  0.4476  0.3095  0.1868
12791TIP3    H259865   5.240   3.780  12.502 -0.4742 -0.5076  0.0087
12792TIP3   OH259866   3.626   6.677   4.659  0.1810  0.1091  0.0561
12792TIP3    H159867   3.682   6.710   4.730  1.1132  2.5808 -1.6943
12792TIP3    H259868   3.557   6.742   4.651  0.6172  0.3885 -1.8837
12793TIP3   OH259869   0.643   6.060   3.099  0.5076 -0.3110  0.2471
12793TIP3    H159870   0.671   6.090   3.185 -1.1907  0.3832  0.5954
12793TIP3    H259871   0.559   6.017   3.115 -0.4445  0.9161 -1.2043
12794TIP3   OH259872   3.335   0.239  14.629 -0.1058  0.0011  0.2032
12794TIP3    H159873   3.409   0.258  14.686 -1.5855  1.7173  1.7094
12794TIP3    H259874   3.371   0.242  14.541  1.3393  2.4481  0.7795
12795TIP3   OH259875   4.136   2.408  14.712 -0.5052  0.4965 -0.0393
12795TIP3    H159876   4.156   2.484  14.657 -0.3992  1.0708  0.7846
12795TIP3    H259877   4.070   2.360  14.663 -1.4773  1.7629 -0.0145
12796TIP3   OH259878   3.174   5.530  13.114 -0.1236  0.2874 -0.1501
12796TIP3    H159879   3.133   5.479  13.184 -0.1385  1.8406  1.0394
12796TIP3    H259880   3.221   5.466  13.061 -0.3865 -0.9769  1.0949
12797TIP3   OH259881   0.775   4.516   4.387  0.0210  0.4845 -0.2024
12797TIP3    H159882   0.762   4.495   4.480 -0.3996  0.3228 -0.2943
12797TIP3    H259883   0.850   4.574   4.386 -0.1243  0.6857  0.2687
12798TIP3   OH259884   6.778   3.954  11.183 -0.3165 -0.1592  0.3197
12798TIP3    H159885   6.684   3.969  11.171 -0.3001 -1.2011 -1.3787
12798TIP3    H259886   6.783   3.874  11.236 -0.3573  1.1410  2.3780
12799TIP3   OH259887   0.390   4.612   5.052 -0.3390 -0.7582 -0.4692
12799TIP3    H159888   0.462   4.616   4.988 -0.3568 -1.3261 -0.5301
12799TIP3    H259889   0.422   4.663   5.126 -0.0061 -0.7291 -0.6265
12800TIP3   OH259890   1.835   5.251   3.723 -0.4072 -0.1408  0.1163
12800TIP3    H159891   1.870   5.315   3.785  2.1221 -0.5990 -0.7467
12800TIP3    H259892   1.807   5.303   3.648 -0.6404  0.1552  0.4070
12801TIP3   OH259893   5.504   3.975  13.590 -0.0608 -0.0839 -0.8576
12801TIP3    H159894   5.492   3.953  13.498 -1.1213 -0.2389 -0.6949
12801TIP3    H259895   5.465   4.062  13.598  0.2252  0.0205 -0.5968
12802TIP3   OH259896   4.265   3.304  15.938  0.3776  0.2308 -0.1732
12802TIP3    H159897   4.209   3.226  15.942 -0.0980  0.5619 -0.2962
12802TIP3    H259898   4.354   3.269  15.931  0.1423 -0.3016 -0.6083
12803TIP3   OH259899   5.212   0.954   4.189  0.4312  0.0921  0.3413
12803TIP3    H159900   5.125   0.928   4.219  0.3707 -0.5015 -0.3372
12803TIP3    H259901   5.271   0.924   4.258  0.1172  0.4164  0.7603
12804TIP3   OH259902   4.005   1.578  13.844 -0.1498  0.3510 -0.0259
12804TIP3    H159903   3.921   1.613  13.874  0.2300  1.5645 -0.3451
12804TIP3    H259904   4.030   1.634  13.772  1.2640  0.4142  0.4870
12805TIP3   OH259905   5.726   2.975  13.393 -0.4552 -0.5703  0.4183
12805TIP3    H159906   5.720   3.044  13.460  1.6739 -0.2434  0.3434
12805TIP3    H259907   5.679   3.011  13.318  0.2456  0.6494  0.5250
12806TIP3   OH259908   5.743   0.737  14.548 -0.2288 -0.0854 -0.0428
12806TIP3    H159909   5.752   0.779  14.634  0.5422 -0.5009  0.0904
12806TIP3    H259910   5.664   0.775  14.511  0.7167  1.9282 -0.1478
12807TIP3   OH259911   0.287   5.610  14.162  0.0325 -0.1637  0.2547
12807TIP3    H159912   0.378   5.593  14.186 -0.2203 -2.6987 -0.3403
12807TIP3    H259913   0.267   5.546  14.094 -2.8025 -1.1807  1.8221
12808TIP3   OH259914   0.701   4.313   1.387 -0.0986  0.4531 -0.4520
12808TIP3    H159915   0.753   4.234   1.400 -0.7670 -0.4142 -2.6535
12808TIP3    H259916   0.645   4.293   1.312 -0.1162  3.1035 -1.2425
12809TIP3   OH259917   1.518   2.030  10.959 -0.2914  0.2568 -0.0826
12809TIP3    H159918   1.445   2.017  10.899  0.4179 -0.6788 -0.7861
12809TIP3    H259919   1.589   2.063  10.904 -0.3233  1.6946  0.6853
12810TIP3   OH259920   2.520   5.330  14.948  0.3509 -0.0246 -0.1213
12810TIP3    H159921   2.479   5.394  15.006  0.9177  0.2972 -0.0652
12810TIP3    H259922   2.558   5.264  15.006 -0.3744 -0.5031 -0.1851
12811TIP3   OH259923   0.361   5.391   0.266  0.3151  0.1455 -0.8731
12811TIP3    H159924   0.292   5.364   0.326  2.2239 -0.2823  1.2429
12811TIP3    H259925   0.354   5.329   0.193  0.3034 -1.7988  0.7044
12812TIP3   OH259926   3.996   6.792  14.363 -0.1332 -0.7085 -0.1000
12812TIP3    H159927   4.071   6.733  14.359  0.6456  0.3111 -2.3771
12812TIP3    H259928   3.951   6.780  14.280 -0.3720  1.3002 -0.3269
12813TIP3   OH259929   4.610   2.053   6.333 -0.5549  0.5328 -0.1298
12813TIP3    H159930   4.553   2.130   6.336  0.6954  1.5849 -1.7612
12813TIP3    H259931   4.609   2.026   6.242 -1.6893 -2.0124  0.5549
12814TIP3   OH259932   6.092   0.453  12.330  0.0192 -0.3020 -0.3716
12814TIP3    H159933   6.044   0.389  12.276  0.1766 -0.0543 -0.8139
12814TIP3    H259934   6.087   0.418  12.419  0.2580 -1.0306 -0.6343
12815TIP3   OH259935   2.599   4.460  11.766  0.0183  0.2814  0.2405
12815TIP3    H159936   2.573   4.431  11.679  0.4568  1.4851 -0.3211
12815TIP3    H259937   2.540   4.414  11.826  1.5714 -2.8479 -0.4217
12816TIP3   OH259938   6.593   3.174   5.351  0.4662 -0.7911  0.0417
12816TIP3    H159939   6.546   3.257   5.362  0.5648 -0.8771  1.1639
12816TIP3    H259940   6.524   3.108   5.349  0.4990 -0.8683  1.1765
12817TIP3   OH259941   1.539   0.133  10.473 -0.3455  0.0469  0.0062
12817TIP3    H159942   1.474   0.130  10.403 -1.2472  0.8674  0.7762
12817TIP3    H259943   1.489   0.158  10.551  0.9004  0.7685  0.6081
12818TIP3   OH259944   4.943   4.744  16.848  0.3968 -0.1502 -0.3721
12818TIP3    H159945   4.953   4.715  16.757  0.0464 -1.5547  0.0022
12818TIP3    H259946   4.938   4.839  16.843 -2.1511 -0.2717 -2.1041
12819TIP3   OH259947   6.385   0.588   3.586  0.4296 -0.0068  0.4950
12819TIP3    H159948   6.465   0.603   3.637  0.6977 -1.1154  0.4266
12819TIP3    H259949   6.329   0.535   3.643  0.4143 -0.5931 -0.0440
12820TIP3   OH259950   2.844   0.126   4.950 -0.0504  0.7771  0.3832
12820TIP3    H159951   2.752   0.154   4.956 -0.0687  1.5965 -2.3971
12820TIP3    H259952   2.839   0.035   4.922 -0.0781  1.2813 -1.3542
12821TIP3   OH259953   5.643   1.544  14.993 -0.2254  0.3149 -0.0472
12821TIP3    H159954   5.730   1.551  15.032  0.1348  0.3875 -0.8493
12821TIP3    H259955   5.610   1.459  15.023  0.5746 -0.2121 -0.6289
12822TIP3   OH259956   0.347   4.023   2.739  0.2147 -0.0172  0.1129
12822TIP3    H159957   0.362   3.996   2.648  1.4242 -0.3950  0.3997
12822TIP3    H259958   0.397   4.104   2.748  1.3678 -0.7758  0.8337
12823TIP3   OH259959   3.645   3.984  16.493  0.2589 -0.0264 -0.2291
12823TIP3    H159960   3.733   4.008  16.522 -0.0634  1.6727 -0.5525
12823TIP3    H259961   3.607   4.065  16.460 -2.3176 -0.1314  2.1154
12824TIP3   OH259962   1.914   5.607  13.704  0.2512 -0.1202 -0.5342
12824TIP3    H159963   1.983   5.616  13.639 -0.6669 -1.9614 -1.8328
12824TIP3    H259964   1.834   5.631  13.658 -0.1170  1.1917  0.7194
12825TIP3   OH259965   1.958   5.950  16.869 -0.2580 -0.0966 -0.0937
12825TIP3    H159966   1.913   6.016  16.922 -0.5356 -2.3831  2.8011
12825TIP3    H259967   1.891   5.916  16.811 -0.9953 -0.0568  0.7117
12826TIP3   OH259968   3.127   4.949   4.263 -0.4926  0.3513 -0.4390
12826TIP3    H159969   3.170   5.031   4.237 -2.7497  1.9414  0.5959
12826TIP3    H259970   3.039   4.956   4.228 -1.7054 -0.1834  2.2900
12827TIP3   OH259971   1.425   0.121  12.516 -0.0036  0.1309 -0.5788
12827TIP3    H159972   1.391   0.188  12.457 -0.4661 -0.0169 -0.4878
12827TIP3    H259973   1.360   0.116  12.586  1.2391  1.3212  0.7156
12828TIP3   OH259974   3.329   6.603   0.269  0.5336  0.2552  0.5720
12828TIP3    H159975   3.337   6.509   0.283  0.5849  0.1014 -0.3736
12828TIP3    H259976   3.260   6.631   0.328  1.6179 -0.0737  2.0494
12829TIP3   OH259977   5.809   6.509   4.923  0.0465 -0.1997  0.5852
12829TIP3    H159978   5.799   6.454   5.000  0.2908 -0.0684  0.7102
12829TIP3    H259979   5.879   6.468   4.872 -1.0124 -1.0424 -0.2276
12830TIP3   OH259980   0.690   2.128  12.510  0.2532  0.5086  0.0528
12830TIP3    H159981   0.762   2.121  12.572  1.9909  4.6920 -1.1029
12830TIP3    H259982   0.617   2.161  12.562 -0.2796 -1.7291  0.8333
12831TIP3   OH259983   6.143   4.700  15.318  0.9863 -0.3106  0.2417
12831TIP3    H159984   6.098   4.712  15.234 -0.2970 -2.1607  0.6126
12831TIP3    H259985   6.097   4.758  15.379 -0.1943 -1.3208  0.3494
12832TIP3   OH259986   3.353   0.296   4.525 -0.0064  0.2963 -0.0443
12832TIP3    H159987   3.362   0.377   4.577  2.0550 -0.1249  0.3367
12832TIP3    H259988   3.261   0.271   4.537  0.1847  0.6034  2.8525
12833TIP3   OH259989   1.489   3.978   3.183  0.1090  0.1753  0.4806
12833TIP3    H159990   1.562   4.040   3.189  1.0448 -0.9212  0.7236
12833TIP3    H259991   1.435   3.996   3.260 -1.5859  3.0160 -1.1683
12834TIP3   OH259992   4.691   4.688   2.280  0.1468 -0.9231 -0.0727
12834TIP3    H159993   4.658   4.639   2.205  1.5361  0.4505 -1.6770
12834TIP3    H259994   4.782   4.708   2.258  0.8193 -1.0140  2.2893
12835TIP3   OH259995   3.604   0.651   4.900  0.0039  0.1935  0.1578
12835TIP3    H159996   3.568   0.655   4.988  0.2250  0.2254  0.2466
12835TIP3    H259997   3.528   0.656   4.843 -0.0795  1.0504  0.3330
12836TIP3   OH259998   0.220   1.818   3.242  0.3373 -0.3682 -0.2532
12836TIP3    H159999   0.198   1.856   3.328 -0.9221 -0.7640 -0.3744
12836TIP3    H260000   0.138   1.823   3.193  1.7384  2.6534 -2.5520
12837TIP3   OH260001   2.774   4.245  13.594  0.7118 -0.5726  0.2650
12837TIP3    H160002   2.801   4.292  13.515 -0.4976 -0.0269  0.1453
12837TIP3    H260003   2.815   4.294  13.666 -2.0471  2.0366  0.3077
12838TIP3   OH260004   5.522   5.906   1.078  0.1314  0.3534  0.1227
12838TIP3    H160005   5.457   5.837   1.085 -0.4630  0.9971  1.4144
12838TIP3    H260006   5.563   5.893   0.992  0.6828 -2.1205  0.6936
12839TIP3   OH260007   4.582   5.767   5.266  0.5672 -0.1078 -0.9097
12839TIP3    H160008   4.561   5.761   5.172 -0.9433  0.6464 -0.6582
12839TIP3    H260009   4.573   5.860   5.286  0.8491 -0.2739 -0.0012
12840TIP3   OH260010   4.191   4.825   0.086 -0.7893 -0.0666 -0.2189
12840TIP3    H160011   4.260   4.814   0.152  0.0875  2.4093 -0.5964
12840TIP3    H260012   4.118   4.864   0.134 -0.4071  1.0754 -0.5225
12841TIP3   OH260013   5.751   5.830  16.856 -0.3141  0.0619  0.0345
12841TIP3    H160014   5.839   5.868  16.851 -1.1045  1.8932 -1.0886
12841TIP3    H260015   5.715   5.840  16.768 -1.5603 -0.8980  0.4040
12842TIP3   OH260016   1.016   3.472   4.036  0.0040 -0.3313  0.4804
12842TIP3    H160017   0.987   3.444   3.949 -0.7981  0.4060  0.5005
12842TIP3    H260018   1.026   3.390   4.085  3.7904 -1.1335 -1.2029
12843TIP3   OH260019   2.684   6.045  11.381  0.0082  0.6734 -0.7197
12843TIP3    H160020   2.680   6.044  11.285 -0.9346 -0.3220 -0.6971
12843TIP3    H260021   2.604   6.091  11.407 -0.4661 -0.3022 -0.4076
12844TIP3   OH260022   2.792   0.197   3.933  0.1847 -0.3610 -0.2569
12844TIP3    H160023   2.765   0.267   3.992  0.7895 -0.1208 -0.2603
12844TIP3    H260024   2.802   0.121   3.990  2.2284  0.2173  0.2457
12845TIP3   OH260025   6.539   1.495  11.651 -0.0440  0.0049 -0.5939
12845TIP3    H160026   6.574   1.451  11.574 -0.7340 -0.6761 -0.5355
12845TIP3    H260027   6.579   1.450  11.725 -1.9236 -1.6151 -0.4966
12846TIP3   OH260028   3.138   5.316  17.135 -0.7012 -0.3783  0.8250
12846TIP3    H160029   3.097   5.233  17.114 -1.7094 -0.0409  1.3917
12846TIP3    H260030   3.147   5.316  17.230  1.5543 -0.8515  0.6599
12847TIP3   OH260031   2.508   6.132  16.884  0.0238  0.0021 -0.5457
12847TIP3    H160032   2.527   6.109  16.975  2.0662  1.5500 -0.5113
12847TIP3    H260033   2.529   6.053  16.834  4.0918  0.6363 -0.1548
12848TIP3   OH260034   1.886   0.044   4.437 -0.6115 -0.4167  0.0229
12848TIP3    H160035   1.887   0.134   4.405  0.8449 -0.0085  1.1087
12848TIP3    H260036   1.934   0.047   4.519  0.1183 -2.3199 -0.2746
12849TIP3   OH260037   3.528   4.966   1.384  0.2562 -0.2228  0.3822
12849TIP3    H160038   3.493   5.051   1.408  1.8952  0.6261 -0.0901
12849TIP3    H260039   3.504   4.908   1.457 -3.0704 -0.0536 -0.4005
12850TIP3   OH260040   6.485   4.576   1.287 -0.9558 -0.6570  0.1832
12850TIP3    H160041   6.406   4.583   1.234 -1.2403  0.5350  0.7431
12850TIP3    H260042   6.557   4.589   1.225 -1.2604 -0.0556 -0.0443
12851TIP3   OH260043   4.905   6.482   2.714  0.4519 -0.1524  0.6521
12851TIP3    H160044   4.911   6.536   2.793  1.1436 -2.0432  1.9539
12851TIP3    H260045   4.813   6.455   2.711 -0.0261  1.4192 -0.2949
12852TIP3   OH260046   3.968   4.679   4.945 -0.1054  0.6885  0.3812
12852TIP3    H160047   4.033   4.696   5.013  0.3634 -1.9621  0.7121
12852TIP3    H260048   3.984   4.588   4.919 -1.4366  1.0598 -2.0349
12853TIP3   OH260049   1.184   2.618   0.931 -0.4401 -0.3737  0.0869
12853TIP3    H160050   1.126   2.580   0.997  0.4431 -2.0003 -0.0212
12853TIP3    H260051   1.271   2.614   0.970  0.1331 -1.5626 -1.2202
12854TIP3   OH260052   2.682   3.586  12.705  0.5135  0.0163  0.2835
12854TIP3    H160053   2.696   3.574  12.611 -0.1328 -1.2928  0.3283
12854TIP3    H260054   2.616   3.656  12.710 -0.6292 -0.9812 -0.3201
12855TIP3   OH260055   5.181   5.721  11.828 -0.0742  0.1370 -0.0261
12855TIP3    H160056   5.215   5.652  11.883  0.6832 -0.2821 -0.9842
12855TIP3    H260057   5.232   5.715  11.747 -1.4600  0.4063 -0.9755
12856TIP3   OH260058   2.634   6.127  16.097 -0.1898 -0.2430 -0.4872
12856TIP3    H160059   2.655   6.205  16.148 -1.6777 -0.6360  0.7834
12856TIP3    H260060   2.717   6.103  16.055  0.5900  1.2606  0.1114
12857TIP3   OH260061   2.681   4.639  11.189 -0.4169 -0.3544 -0.6421
12857TIP3    H160062   2.672   4.577  11.116  1.7919  0.5411 -1.7882
12857TIP3    H260063   2.704   4.722  11.147  2.5658 -0.1678  1.0575
12858TIP3   OH260064   1.192   1.647   2.281 -0.9429 -0.5116  0.0670
12858TIP3    H160065   1.279   1.612   2.301 -0.3107  1.9894  2.1253
12858TIP3    H260066   1.203   1.688   2.195  0.2294  0.5687  0.6894
12859TIP3   OH260067   2.212   5.191   4.946 -0.1230  0.0833  0.0862
12859TIP3    H160068   2.132   5.222   4.904 -0.5995 -2.7313 -1.3541
12859TIP3    H260069   2.269   5.166   4.872  1.0229 -0.4189  1.1027
12860TIP3   OH260070   0.279   5.052  15.018  1.1680  0.3994 -0.3599
12860TIP3    H160071   0.322   5.062  15.103  1.6340  0.4355 -0.5966
12860TIP3    H260072   0.326   5.112  14.960  1.8651 -0.7400 -1.0108
12861TIP3   OH260073   2.590   6.096   2.580 -0.3200  0.2442  0.5610
12861TIP3    H160074   2.565   6.188   2.576 -0.5863  0.1655 -2.5299
12861TIP3    H260075   2.678   6.096   2.616 -0.3586  1.7152  0.7080
12862TIP3   OH260076   2.936   0.505  13.940 -0.0569 -0.0445 -0.1081
12862TIP3    H160077   2.957   0.598  13.946  1.3014 -0.2787 -0.6604
12862TIP3    H260078   3.006   0.462  13.991 -1.1489 -0.7282  0.8641
12863TIP3   OH260079   0.146   2.843   1.721  0.7358 -0.0495  0.3288
12863TIP3    H160080   0.152   2.784   1.797  3.6411  0.6065  0.6994
12863TIP3    H260081   0.230   2.834   1.677  0.1115  1.6152 -1.3053
12864TIP3   OH260082   5.866   1.020  16.483 -0.3261  0.3098 -0.3099
12864TIP3    H160083   5.929   0.969  16.533  1.4551  0.9469 -1.7944
12864TIP3    H260084   5.865   0.979  16.396 -1.1101  1.0098 -0.6459
12865TIP3   OH260085   4.321   2.898   5.718  0.2855  0.4048  0.4956
12865TIP3    H160086   4.318   2.959   5.791  0.3477  2.5658 -1.2146
12865TIP3    H260087   4.229   2.884   5.694  0.3059  0.6662  0.2525
12866TIP3   OH260088   5.054   6.225  12.589  0.4783 -0.1746  0.8297
12866TIP3    H160089   5.042   6.284  12.663  0.6278  0.9267 -0.0074
12866TIP3    H260090   4.999   6.149  12.611 -0.9787  0.9360  1.2112
12867TIP3   OH260091   3.472   0.824   1.101  0.2808  0.2922  0.1391
12867TIP3    H160092   3.401   0.765   1.076  0.4668  0.1818 -0.1266
12867TIP3    H260093   3.438   0.912   1.082 -0.3039  0.3294  1.2867
12868TIP3   OH260094   5.735   2.189   5.949  0.4055  0.6709  0.4080
12868TIP3    H160095   5.666   2.123   5.947 -0.5665  1.6262 -1.5602
12868TIP3    H260096   5.758   2.202   5.857  2.5797  1.0780  0.9429
12869TIP3   OH260097   3.487   4.177   5.690  0.2703 -0.0397  0.4675
12869TIP3    H160098   3.539   4.157   5.612  1.4326 -0.3312  1.2915
12869TIP3    H260099   3.427   4.245   5.662  2.4395  1.7815 -0.0327
12870TIP3   OH260100   5.641   2.084  15.331 -0.3116  0.1701  0.2722
12870TIP3    H160101   5.721   2.039  15.358  0.1116  0.9995  0.4319
12870TIP3    H260102   5.573   2.049  15.389 -0.6209 -2.3662 -1.4476
12871TIP3   OH260103   2.641   5.486  13.023 -0.4042  0.4068  0.0970
12871TIP3    H160104   2.639   5.521  13.113  0.5188  1.2123 -0.1710
12871TIP3    H260105   2.733   5.466  13.007 -0.0576  2.8612 -1.5886
12872TIP3   OH260106   5.903   6.458  15.147  0.3434 -0.3228  0.1017
12872TIP3    H160107   5.868   6.369  15.140 -0.8007  0.2228 -1.4956
12872TIP3    H260108   5.991   6.451  15.109 -0.8410 -0.2188 -2.8953
12873TIP3   OH260109   5.642   1.949  16.058  0.2024  0.4738 -0.5496
12873TIP3    H160110   5.562   1.900  16.072  0.2164 -0.6771 -3.7396
12873TIP3    H260111   5.702   1.887  16.016  1.4382  2.2601 -1.5885
12874TIP3   OH260112   0.303   4.683  17.257 -0.4633 -1.0780 -0.3893
12874TIP3    H160113   0.227   4.725  17.216 -0.2401  0.1048  0.3486
12874TIP3    H260114   0.281   4.590  17.260 -0.8630 -1.0889 -2.3459
12875TIP3   OH260115   1.172   0.916  15.912 -0.1057  0.5611 -0.1737
12875TIP3    H160116   1.144   0.861  15.839  0.7886  0.9491 -0.8226
12875TIP3    H260117   1.235   0.862  15.960  1.7363  1.3981 -1.5229
12876TIP3   OH260118   5.940   4.805   5.216  0.4727 -0.1151 -0.7032
12876TIP3    H160119   5.882   4.880   5.230 -0.1193 -0.2995 -1.9323
12876TIP3    H260120   6.019   4.825   5.265 -0.4699  0.3397  0.6855
12877TIP3   OH260121   1.348   2.881  11.248  0.1883  0.2790 -0.0261
12877TIP3    H160122   1.369   2.789  11.261 -0.8011  0.4167  3.4796
12877TIP3    H260123   1.252   2.884  11.246  0.1998  1.1344 -1.7810
12878TIP3   OH260124   4.153   5.883  14.426  0.1675 -0.0389 -0.0059
12878TIP3    H160125   4.122   5.932  14.502  2.0359  1.4476 -0.1332
12878TIP3    H260126   4.232   5.929  14.398  0.2424 -1.3042 -2.0867
12879TIP3   OH260127   5.476   5.991  13.241 -0.0832 -0.7547  0.6277
12879TIP3    H160128   5.552   5.971  13.187 -0.5596 -1.1199  0.0876
12879TIP3    H260129   5.458   5.909  13.288 -0.1055 -0.6481  0.8088
12880TIP3   OH260130   5.745   5.263   0.023  0.3545  0.2857 -0.6776
12880TIP3    H160131   5.761   5.302  -0.063 -0.9505 -0.2791 -1.2044
12880TIP3    H260132   5.755   5.336   0.085  1.6545  0.6157 -1.2506
12881TIP3   OH260133   4.824   0.375   5.644 -0.2484  0.4345 -0.0483
12881TIP3    H160134   4.889   0.408   5.581  1.2823 -0.5540  0.9520
12881TIP3    H260135   4.870   0.307   5.692 -2.3827 -1.0434  0.0057
12882TIP3   OH260136   0.112   5.260  15.246  0.4746 -0.6856 -0.4886
12882TIP3    H160137   0.149   5.319  15.180  0.6253 -1.0011 -0.6870
12882TIP3    H260138   0.160   5.283  15.326  0.3654 -0.3754 -0.5110
12883TIP3   OH260139   1.726   0.480  14.736  0.3832 -0.2012 -0.0187
12883TIP3    H160140   1.631   0.472  14.744  0.3891 -0.7176 -0.4147
12883TIP3    H260141   1.756   0.503  14.824 -0.0710 -0.3915  0.1858
12884TIP3   OH260142   0.887   6.472  14.238 -0.1699  0.2474  0.2507
12884TIP3    H160143   0.969   6.493  14.194 -0.5195  0.5609 -0.2595
12884TIP3    H260144   0.842   6.556  14.247 -2.2276 -0.3087 -3.0558
12885TIP3   OH260145   6.405   5.896   5.044  0.0746 -1.0054 -0.3536
12885TIP3    H160146   6.382   5.979   5.086 -2.1931 -2.2977  1.1663
12885TIP3    H260147   6.501   5.898   5.039  0.1656  1.1319  0.8287
12886TIP3   OH260148   1.734   5.079   3.976  0.2156 -0.3269 -0.4699
12886TIP3    H160149   1.756   4.997   3.931  0.2354  0.2588 -1.5648
12886TIP3    H260150   1.779   5.147   3.926 -2.1425  0.6725 -1.3941
12887TIP3   OH260151   1.390   1.391   4.117  0.0689 -0.3287 -0.4099
12887TIP3    H160152   1.340   1.321   4.159  0.4593 -0.3646 -0.0032
12887TIP3    H260153   1.339   1.413   4.039 -0.2484 -0.8086 -0.3410
12888TIP3   OH260154   1.198   4.332  12.718 -0.7669 -0.8025  0.5481
12888TIP3    H160155   1.253   4.325  12.640  1.1234  2.7300  1.3371
12888TIP3    H260156   1.117   4.285  12.696 -0.0722 -0.4749 -3.2766
12889TIP3   OH260157   6.304   0.431   1.583 -1.1320  0.0794  0.1949
12889TIP3    H160158   6.238   0.364   1.599 -1.3975  0.0455 -1.0001
12889TIP3    H260159   6.281   0.468   1.498 -0.0084  0.5315  0.0738
12890TIP3   OH260160   3.386   0.523  14.147  0.2674  0.0840  0.3482
12890TIP3    H160161   3.424   0.450  14.196  0.9323 -1.0884 -1.7991
12890TIP3    H260162   3.450   0.594  14.157 -0.4233  0.4794  2.5250
12891TIP3   OH260163   2.612   6.330  17.237  0.0673 -0.8662 -0.3285
12891TIP3    H160164   2.646   6.346  17.325  0.5496 -0.3898 -0.5960
12891TIP3    H260165   2.551   6.257  17.248 -0.5912 -0.2181  0.5726
12892TIP3   OH260166   5.658   5.971  12.231  0.0115  0.0435  0.0627
12892TIP3    H160167   5.568   5.983  12.261 -0.1995 -0.7091 -0.2456
12892TIP3    H260168   5.687   6.059  12.207 -0.0248  0.5619  1.8194
12893TIP3   OH260169   3.193   5.154  14.937 -0.0560  0.2841  0.2069
12893TIP3    H160170   3.205   5.119  14.849  2.0679 -0.3888  0.7011
12893TIP3    H260171   3.159   5.080  14.988  0.3070  0.1845  0.3074
12894TIP3   OH260172   6.121   5.664   2.236  0.1584  0.3121  0.1043
12894TIP3    H160173   6.109   5.573   2.209 -0.6748 -0.0624  1.6343
12894TIP3    H260174   6.050   5.681   2.298  1.7873  1.2050  1.8311
12895TIP3   OH260175   4.686   6.595   3.058 -0.0063  0.4319  0.1507
12895TIP3    H160176   4.760   6.651   3.038  0.2379 -0.5998 -2.1431
12895TIP3    H260177   4.722   6.506   3.054 -1.1198 -0.0299  0.0935
12896TIP3   OH260178   2.308   2.890   5.375 -0.4137  0.1071 -0.9258
12896TIP3    H160179   2.395   2.929   5.385  0.4673 -1.6287 -1.3840
12896TIP3    H260180   2.249   2.952   5.417  1.0945  1.1427 -0.2467
12897TIP3   OH260181   3.605   2.072   2.724  0.1555  0.0267 -0.0250
12897TIP3    H160182   3.623   2.062   2.631  4.8524  1.1091  0.5245
12897TIP3    H260183   3.650   1.997   2.765 -1.4243 -0.1653  1.4620
12898TIP3   OH260184   5.177   0.534   4.451  0.0368 -0.0713 -0.1713
12898TIP3    H160185   5.112   0.523   4.381 -0.1117 -1.5675  0.1665
12898TIP3    H260186   5.215   0.447   4.461  1.6883  0.6393  0.0497
12899TIP3   OH260187   1.075   2.051  13.624  0.1747  0.0708 -0.1336
12899TIP3    H160188   1.064   2.074  13.716  1.8016  0.9537 -0.1366
12899TIP3    H260189   1.153   1.995  13.622 -2.3193 -3.7977 -0.4364
12900TIP3   OH260190   2.423   0.082   2.195  0.1655  0.2354  0.5330
12900TIP3    H160191   2.452   0.163   2.235 -0.0632 -0.0599  1.3202
12900TIP3    H260192   2.464   0.081   2.109 -0.2049  1.4017  0.3356
12901TIP3   OH260193   4.505   2.311   3.810  0.5807  0.0616 -0.2301
12901TIP3    H160194   4.464   2.256   3.743  1.4466  0.3502 -1.0185
12901TIP3    H260195   4.433   2.335   3.869 -0.4679  0.7945 -1.7348
12902TIP3   OH260196   6.781   5.526   1.552  0.5274  0.2534 -0.0817
12902TIP3    H160197   6.812   5.598   1.608 -0.8392  1.5551 -0.9362
12902TIP3    H260198   6.781   5.563   1.464 -0.9648 -0.5402 -0.4363
12903TIP3   OH260199   1.832   2.104  14.910  0.4720  0.0490 -0.0622
12903TIP3    H160200   1.876   2.040  14.854  0.7064  1.0757 -1.0904
12903TIP3    H260201   1.758   2.135  14.858  0.8322  1.2020  0.0749
12904TIP3   OH260202   2.619   2.247   2.323  0.1295 -0.0489 -0.2429
12904TIP3    H160203   2.704   2.283   2.297 -0.1834 -0.5647 -2.1364
12904TIP3    H260204   2.589   2.306   2.392  1.3645  1.0307 -0.5703
12905TIP3   OH260205   0.143   5.826   4.291 -0.1748 -0.7547  0.0122
12905TIP3    H160206   0.176   5.845   4.379 -1.0825  0.9041  0.0427
12905TIP3    H260207   0.051   5.804   4.303 -0.4996  0.2165 -0.5734
12906TIP3   OH260208   2.544   3.640   3.144 -0.3404  0.1534 -0.0736
12906TIP3    H160209   2.489   3.563   3.161  1.6459 -1.4129 -0.4493
12906TIP3    H260210   2.597   3.616   3.068  1.6393  1.1464  0.9189
12907TIP3   OH260211   3.578   0.699  13.110 -0.1171 -0.0816  0.1012
12907TIP3    H160212   3.502   0.713  13.053 -0.3334  3.0319  1.0040
12907TIP3    H260213   3.543   0.652  13.186 -1.0248  0.7858  0.2337
12908TIP3   OH260214   1.275   4.849  15.615  0.2094 -0.3073 -0.0754
12908TIP3    H160215   1.258   4.898  15.696  1.3838 -0.7161  0.4308
12908TIP3    H260216   1.361   4.879  15.586 -0.5786  0.5221 -1.7196
12909TIP3   OH260217   6.305   5.434  17.060 -0.1366  0.3617  0.0971
12909TIP3    H160218   6.345   5.411  16.976 -1.3430  1.8352 -0.9341
12909TIP3    H260219   6.353   5.511  17.090 -0.8095  0.8686 -0.1059
12910TIP3   OH260220   5.256   0.510  13.160 -0.3055 -0.0416 -0.5393
12910TIP3    H160221   5.169   0.508  13.119 -2.0189 -1.2811  2.8322
12910TIP3    H260222   5.241   0.490  13.252  3.7347 -1.6420  0.0047
12911TIP3   OH260223   1.421   1.696  12.525  0.5782  0.2879  0.1822
12911TIP3    H160224   1.373   1.620  12.492  1.2485  0.6088 -1.6837
12911TIP3    H260225   1.510   1.664  12.540  0.8200  0.6342 -0.4486
12912TIP3   OH260226   2.876   5.928   2.383 -1.1361 -0.1151 -0.4352
12912TIP3    H160227   2.962   5.936   2.344 -0.7550  0.1824  0.4540
12912TIP3    H260228   2.821   5.989   2.334  0.0497  2.6764  1.5163
12913TIP3   OH260229   3.120   5.275   2.439  0.1001  0.2548  0.6583
12913TIP3    H160230   3.112   5.182   2.458 -0.2594  0.3472  0.9825
12913TIP3    H260231   3.033   5.300   2.406  0.5832  0.1882 -0.7350
12914TIP3   OH260232   0.627   5.696  16.201 -0.0640 -0.1980 -0.1543
12914TIP3    H160233   0.688   5.719  16.130 -0.5789  1.3036 -0.1321
12914TIP3    H260234   0.575   5.775  16.215 -0.3979 -0.6756  1.4898
12915TIP3   OH260235   2.747   3.903   5.007 -0.0186  0.5371 -0.2885
12915TIP3    H160236   2.744   3.996   4.985  1.9889  1.0615  1.3126
12915TIP3    H260237   2.771   3.901   5.100  0.3860 -1.5785 -0.3863
12916TIP3   OH260238   3.334   1.272  11.576 -0.5103 -0.0625 -0.2384
12916TIP3    H160239   3.377   1.353  11.604 -0.6932 -0.6826  2.0018
12916TIP3    H260240   3.400   1.204  11.590 -0.8236 -0.4896 -0.7921
12917TIP3   OH260241   4.933   3.054  14.026  0.1104  0.3029 -0.4939
12917TIP3    H160242   4.880   3.042  14.104  0.8237  2.1594  0.3570
12917TIP3    H260243   5.006   2.993  14.036 -0.9947 -1.1275 -0.9001
12918TIP3   OH260244   3.092   2.701  11.819 -0.1216  0.0704 -0.2758
12918TIP3    H160245   3.130   2.614  11.830 -1.1866 -0.3146  0.5481
12918TIP3    H260246   3.036   2.712  11.896 -1.0169  0.9475 -1.0337
12919TIP3   OH260247   5.134   5.784  15.525  0.1143  0.0083 -0.2697
12919TIP3    H160248   5.093   5.711  15.571 -1.7489  1.0759 -0.1646
12919TIP3    H260249   5.062   5.842  15.502  1.6924  3.0602  1.7526
12920TIP3   OH260250   4.376   1.704  16.469  0.1908 -0.0418  0.7579
12920TIP3    H160251   4.299   1.663  16.429  0.3485 -0.2042  0.6205
12920TIP3    H260252   4.448   1.645  16.448  0.5140  0.5745  0.0798
12921TIP3   OH260253   1.589   3.968  14.684 -0.2439  0.1380 -0.0296
12921TIP3    H160254   1.518   3.974  14.747 -1.1322 -4.0740 -0.3187
12921TIP3    H260255   1.669   3.963  14.737 -0.9494 -3.0231  0.9790
12922TIP3   OH260256   1.880   5.434  13.251  0.1640  0.2832  0.2728
12922TIP3    H160257   1.940   5.446  13.324  0.8600 -2.4079  0.2538
12922TIP3    H260258   1.880   5.339  13.236 -3.1657  0.2946 -0.5127
12923TIP3   OH260259   0.513   6.246  13.384  0.2809 -0.2165 -0.3891
12923TIP3    H160260   0.471   6.279  13.464 -0.5109  1.1366 -1.3143
12923TIP3    H260261   0.566   6.172  13.413  0.1662  0.3611  1.4156
12924TIP3   OH260262   1.130   5.195  14.100  0.7237 -0.3767  0.0781
12924TIP3    H160263   1.106   5.186  14.192 -2.6897 -0.2707 -0.6855
12924TIP3    H260264   1.136   5.289  14.086 -0.0083 -0.3510 -0.0772
12925TIP3   OH260265   2.318   1.178   0.014  0.1463  0.3900 -0.1438
12925TIP3    H160266   2.275   1.264   0.013 -0.0942  0.2700 -1.1315
12925TIP3    H260267   2.283   1.135   0.091 -1.6612  0.2425 -0.9889
12926TIP3   OH260268   4.055   0.254   5.570  0.7070 -0.5290  0.3737
12926TIP3    H160269   4.010   0.329   5.610 -1.7262 -0.5654 -1.9665
12926TIP3    H260270   4.143   0.285   5.551  0.3935  1.0318  1.3177
12927TIP3   OH260271   2.285   3.776   4.896 -0.2064  0.7340 -0.2250
12927TIP3    H160272   2.380   3.780   4.897 -0.0651 -1.4936 -0.3518
12927TIP3    H260273   2.264   3.721   4.820 -1.3953 -1.4898  1.5956
12928TIP3   OH260274   5.575   1.223  14.232  0.4131 -0.0132  0.1138
12928TIP3    H160275   5.647   1.191  14.177  0.4295  1.8809 -1.0260
12928TIP3    H260276   5.618   1.277  14.298  0.1447  0.1378  0.1654
12929TIP3   OH260277   1.161   2.774  12.302 -0.0558  0.3301 -0.5629
12929TIP3    H160278   1.181   2.853  12.253 -0.6477  1.6734  1.2590
12929TIP3    H260279   1.069   2.756  12.282  0.5128 -0.9570 -2.3102
12930TIP3   OH260280   3.178   5.053  16.710  0.1394 -0.4734 -0.6806
12930TIP3    H160281   3.165   5.144  16.684  0.5533  0.0273  0.7278
12930TIP3    H260282   3.110   5.038  16.776  2.9416  0.4324  2.7156
12931TIP3   OH260283   4.853   3.587   6.123  0.2015  0.5664  0.4488
12931TIP3    H160284   4.805   3.593   6.206 -1.0974 -0.7099 -0.1612
12931TIP3    H260285   4.811   3.653   6.068 -2.1400 -1.6380 -0.6249
12932TIP3   OH260286   3.923   6.430   5.986  0.0396  0.5665  0.1213
12932TIP3    H160287   3.954   6.460   5.900  0.7865  1.1562  0.5931
12932TIP3    H260288   3.833   6.463   5.991 -1.2170 -2.1709 -1.7614
12933TIP3   OH260289   0.856   0.469   4.736 -0.2469  0.5482 -0.5997
12933TIP3    H160290   0.805   0.503   4.810 -0.3003 -0.5437 -0.1179
12933TIP3    H260291   0.880   0.547   4.686 -0.3578  1.3035  0.4763
12934TIP3   OH260292   5.349   2.554  12.119 -0.2121 -0.2172 -0.1828
12934TIP3    H160293   5.303   2.499  12.056 -0.2432 -1.5047  0.9026
12934TIP3    H260294   5.422   2.592  12.070 -0.7379 -0.4927 -1.2009
12935TIP3   OH260295   4.430   1.144   2.896  0.7693  0.1428  0.3596
12935TIP3    H160296   4.349   1.176   2.937  0.5715  0.0396  0.0542
12935TIP3    H260297   4.499   1.168   2.957  0.6108  1.0477  0.2013
12936TIP3   OH260298   5.022   3.898  12.738 -0.3984  0.4878  0.3830
12936TIP3    H160299   4.998   3.926  12.826  0.1444  1.0471  0.3574
12936TIP3    H260300   4.951   3.931  12.682  0.1785  1.7421  0.3663
12937TIP3   OH260301   3.910   4.937   2.633  0.1869 -0.2617 -0.3409
12937TIP3    H160302   3.827   4.982   2.653  1.0337  0.7339  1.1273
12937TIP3    H260303   3.925   4.880   2.708  2.2105  1.7101  0.8838
12938TIP3   OH260304   2.960   0.207  13.806  0.2619 -0.6410 -0.6284
12938TIP3    H160305   2.980   0.158  13.885  0.1169  0.0534 -0.1498
12938TIP3    H260306   2.865   0.220  13.809 -0.2867 -3.3302 -2.5362
12939TIP3   OH260307   3.760   0.701   2.008 -0.5153 -0.3487  0.2579
12939TIP3    H160308   3.756   0.794   2.029  0.4388  0.1405 -1.4831
12939TIP3    H260309   3.764   0.657   2.093  2.3708  1.4011  1.1963
12940TIP3   OH260310   2.742   1.294   0.912 -0.2784 -0.3937  0.1173
12940TIP3    H160311   2.652   1.269   0.890  0.0105 -1.2709 -0.0797
12940TIP3    H260312   2.792   1.213   0.907  0.6741  0.2088 -0.5010
12941TIP3   OH260313   6.076   5.842   2.975  0.1891 -0.0880  0.2980
12941TIP3    H160314   6.011   5.837   3.045  0.5854 -1.6131  0.5991
12941TIP3    H260315   6.160   5.842   3.021  0.4341  1.0069 -0.1196
12942TIP3   OH260316   6.310   2.308  14.358  0.1316 -0.8256 -0.7278
12942TIP3    H160317   6.337   2.254  14.284  0.9128 -1.3276 -0.0980
12942TIP3    H260318   6.238   2.260  14.398  0.4177 -1.0989 -0.5339
12943TIP3   OH260319   5.810   2.240  12.257  0.0178 -0.2871 -0.7290
12943TIP3    H160320   5.873   2.313  12.262  0.5611 -0.7018 -1.3764
12943TIP3    H260321   5.862   2.163  12.279 -0.4730 -0.5313 -0.4135
12944TIP3   OH260322   0.335   2.001  11.626 -0.3437  0.0192 -0.3572
12944TIP3    H160323   0.331   1.922  11.680 -0.3541  0.1385 -0.1806
12944TIP3    H260324   0.356   2.071  11.689  2.6820 -0.2578 -0.8848
12945TIP3   OH260325   2.234   2.515  16.304  0.1444  0.1711  0.0907
12945TIP3    H160326   2.219   2.543  16.214  0.7480 -0.6670 -0.2759
12945TIP3    H260327   2.325   2.488  16.307 -0.0988 -0.6388  0.7229
12946TIP3   OH260328   6.395   4.912  12.044  0.0115  0.1806  0.0502
12946TIP3    H160329   6.390   4.953  12.131 -2.0673  2.4213 -1.0100
12946TIP3    H260330   6.305   4.885  12.026  0.0220  1.4321 -2.1207
12947TIP3   OH260331   2.986   3.221   1.790  0.3947  0.4698 -0.4818
12947TIP3    H160332   2.933   3.142   1.803  0.1803  0.7458  0.4309
12947TIP3    H260333   3.075   3.195   1.814  0.1921  0.6888  0.5545
12948TIP3   OH260334   4.459   4.211   0.600  0.2611  0.3466 -0.1279
12948TIP3    H160335   4.379   4.186   0.647  1.5794 -0.7542  1.6305
12948TIP3    H260336   4.431   4.216   0.508 -1.5775 -1.1561  0.2700
12949TIP3   OH260337   1.110   1.036   1.776 -0.1690  0.1903 -0.1449
12949TIP3    H160338   1.095   1.130   1.762 -0.5458  0.3226  1.0363
12949TIP3    H260339   1.143   1.030   1.865 -0.5017 -0.8456 -0.0800
12950TIP3   OH260340   5.947   0.364   1.179 -0.0410 -1.1844  0.2536
12950TIP3    H160341   5.965   0.447   1.135 -1.5476 -0.9912 -0.0713
12950TIP3    H260342   6.033   0.331   1.205  0.5373  2.4914  4.1735
12951TIP3   OH260343   3.498   2.768   2.285  0.0374  0.4530 -0.7049
12951TIP3    H160344   3.429   2.795   2.224 -0.5854 -0.7152 -0.5477
12951TIP3    H260345   3.453   2.712   2.349  0.6987  1.5709  0.7920
12952TIP3   OH260346   0.513   3.618  14.459  0.9801  0.0987  0.6523
12952TIP3    H160347   0.437   3.638  14.514  0.4662 -0.1056  0.0343
12952TIP3    H260348   0.477   3.614  14.370  1.4522 -1.3463  0.5025
12953TIP3   OH260349   2.743   5.893  12.908 -0.8338  0.3330 -0.1170
12953TIP3    H160350   2.747   5.867  13.000 -2.5323 -0.7400 -0.3054
12953TIP3    H260351   2.791   5.824  12.862  1.5915  1.7852  0.0532
12954TIP3   OH260352   0.577   1.946  16.466  0.1100 -0.2798  0.2372
12954TIP3    H160353   0.617   1.916  16.384 -0.2313 -1.8371  0.5947
12954TIP3    H260354   0.652   1.972  16.520  0.2454  3.3582 -1.4113
12955TIP3   OH260355   0.026   3.495   5.624  0.4730  0.3742 -0.1252
12955TIP3    H160356   0.009   3.445   5.704  1.5348  0.6595  0.3011
12955TIP3    H260357  -0.009   3.440   5.554  1.1557 -0.7459  0.3751
12956TIP3   OH260358   6.749   2.212   0.444  0.1575 -0.3954 -0.4736
12956TIP3    H160359   6.825   2.270   0.432  0.0944 -0.2942 -0.3833
12956TIP3    H260360   6.678   2.271   0.470  0.1251 -0.5296 -0.2560
12957TIP3   OH260361   0.993   5.400  11.438  0.2294 -0.3077  0.1159
12957TIP3    H160362   0.932   5.443  11.379  1.1602 -0.5359 -1.0452
12957TIP3    H260363   1.079   5.438  11.418  1.2095 -3.0000 -1.3919
12958TIP3   OH260364   5.491   5.173  14.942  0.4092 -0.6069  0.0584
12958TIP3    H160365   5.451   5.145  15.024  0.8511 -0.7950  0.2106
12958TIP3    H260366   5.581   5.196  14.965  0.0915  0.8782 -0.0712
12959TIP3   OH260367   3.766   4.537  16.970 -0.0577  0.0602  0.1433
12959TIP3    H160368   3.673   4.556  16.977 -0.4647 -1.4809 -0.7495
12959TIP3    H260369   3.796   4.528  17.061 -0.7065  0.7751  0.4369
12960TIP3   OH260370   0.656   4.564  13.109  0.2301  0.7891  0.5908
12960TIP3    H160371   0.673   4.639  13.165 -1.7473 -0.5496  3.1644
12960TIP3    H260372   0.724   4.501  13.132 -0.1162  0.5220  0.8624
12961TIP3   OH260373   5.665   2.380   3.523 -0.8270  0.0794  0.1736
12961TIP3    H160374   5.577   2.417   3.513  0.5351  3.9042  0.6233
12961TIP3    H260375   5.696   2.413   3.607  2.4025  2.3853 -1.6884
12962TIP3   OH260376   0.928   4.645  16.794  0.1908 -0.2608 -0.3051
12962TIP3    H160377   0.883   4.667  16.876 -1.1408 -2.6025 -0.3230
12962TIP3    H260378   0.864   4.665  16.726 -0.3402 -2.2539 -0.4381
12963TIP3   OH260379   3.845   0.837  14.982 -0.3374 -0.4403  0.4064
12963TIP3    H160380   3.894   0.754  14.979 -1.4182 -1.1541  1.5184
12963TIP3    H260381   3.763   0.814  15.026 -1.8051  0.6617 -1.5993
12964TIP3   OH260382   6.370   6.142   0.334 -0.5929  0.0500 -0.2460
12964TIP3    H160383   6.301   6.126   0.399 -1.6370  0.6701 -1.1702
12964TIP3    H260384   6.343   6.092   0.257 -1.2965  2.1172 -1.4400
12965TIP3   OH260385   5.827   0.887   0.182 -0.0665 -0.3042 -0.2702
12965TIP3    H160386   5.898   0.903   0.244 -0.8059 -0.2817  0.5788
12965TIP3    H260387   5.865   0.827   0.118  0.0907 -2.0671  1.3839
12966TIP3   OH260388   3.194   2.805  14.693  0.0871 -0.1043  0.1353
12966TIP3    H160389   3.200   2.862  14.769 -1.7723 -0.1025  0.3181
12966TIP3    H260390   3.225   2.720  14.724  0.8542  0.2830  0.4446
12967TIP3   OH260391   5.864   4.586   1.596  0.7742  0.4233 -0.5372
12967TIP3    H160392   5.797   4.652   1.615 -0.6644 -0.6238 -1.6897
12967TIP3    H260393   5.935   4.606   1.656 -0.6117  1.5423  0.8165
12968TIP3   OH260394   0.903   4.613   3.079 -0.6529  0.6304  0.2050
12968TIP3    H160395   0.864   4.532   3.111 -1.7835  0.1843 -2.0712
12968TIP3    H260396   0.828   4.673   3.068 -0.5092  0.4525 -2.2797
12969TIP3   OH260397   5.175   0.018  13.553  0.1252  0.2252 -0.7988
12969TIP3    H160398   5.258   0.060  13.576  1.1390 -1.8429 -0.3446
12969TIP3    H260399   5.201  -0.066  13.514 -1.7316 -0.7480 -0.0907
12970TIP3   OH260400   2.303   3.163  11.300 -0.5800  0.4511  0.1432
12970TIP3    H160401   2.339   3.099  11.362  0.8495  0.9706 -0.1232
12970TIP3    H260402   2.248   3.111  11.241  1.8597 -0.8919 -1.1181
12971TIP3   OH260403   5.552   5.199  15.893 -0.3196  0.1958 -0.2857
12971TIP3    H160404   5.618   5.173  15.957 -0.8551  0.1319  0.2407
12971TIP3    H260405   5.602   5.214  15.812  0.1124 -1.7761 -0.4336
12972TIP3   OH260406   5.870   2.750   1.183 -0.5488 -0.3645 -0.3012
12972TIP3    H160407   5.789   2.785   1.147 -1.4865 -2.9121 -0.9154
12972TIP3    H260408   5.846   2.718   1.270  0.0543 -0.2310 -0.0794
12973TIP3   OH260409   3.154   1.512  11.680 -0.4104  0.4052 -0.6241
12973TIP3    H160410   3.214   1.531  11.752  0.5541 -0.8301 -1.0565
12973TIP3    H260411   3.070   1.493  11.723  0.3320 -1.0724  0.2621
12974TIP3   OH260412   0.195   4.169  11.960  0.7905 -0.2999  0.3560
12974TIP3    H160413   0.205   4.077  11.984  1.4970 -0.1445  0.6856
12974TIP3    H260414   0.114   4.196  12.003  1.3375 -0.3847  1.4888
12975TIP3   OH260415   1.803   0.560   4.583 -0.0285 -0.5531 -0.3695
12975TIP3    H160416   1.724   0.559   4.529 -0.2160 -0.5308 -0.0925
12975TIP3    H260417   1.807   0.473   4.622  0.7403 -0.9797 -1.3319
12976TIP3   OH260418   6.645   2.549  10.938  0.3322 -0.2645 -0.4021
12976TIP3    H160419   6.656   2.523  10.846  1.9724 -1.1229  0.0018
12976TIP3    H260420   6.717   2.609  10.954 -0.2347  0.2703  0.2135
12977TIP3   OH260421   3.002   4.290   2.125  0.1507  0.1094  0.1707
12977TIP3    H160422   2.924   4.267   2.175 -0.0404 -0.2002 -0.2605
12977TIP3    H260423   3.065   4.220   2.144 -0.0442 -0.1980 -0.2810
12978TIP3   OH260424   0.058   0.549   2.543  0.0910 -0.2985 -0.0261
12978TIP3    H160425   0.080   0.476   2.600  1.0333 -0.6908 -0.8579
12978TIP3    H260426  -0.033   0.534   2.517  0.1593 -0.9731  0.1122
12979TIP3   OH260427   1.344   2.883  11.971  0.2446 -0.2965  0.3639
12979TIP3    H160428   1.321   2.939  12.045 -0.5921 -0.0633 -0.0645
12979TIP3    H260429   1.342   2.794  12.006 -0.6728 -0.2280  0.4991
12980TIP3   OH260430   6.285   4.571   5.030 -0.3250  0.2340 -0.3703
12980TIP3    H160431   6.222   4.499   5.032 -1.1624  0.8853 -1.7289
12980TIP3    H260432   6.282   4.603   4.940  1.6524  0.5707 -0.3656
12981TIP3   OH260433   2.903   5.093  13.862 -0.3540  0.3014 -0.5046
12981TIP3    H160434   2.829   5.035  13.850 -0.2140 -0.5468  2.1609
12981TIP3    H260435   2.895   5.157  13.791 -0.7895 -2.5785 -3.2536
12982TIP3   OH260436   0.581   5.800   2.436  0.4041  0.5521 -0.2766
12982TIP3    H160437   0.493   5.832   2.453  0.4639  1.0793 -0.9377
12982TIP3    H260438   0.600   5.827   2.346  2.3550  3.0415  0.7842
12983TIP3   OH260439   3.823   6.657  10.716 -0.0734  0.1209 -0.1239
12983TIP3    H160440   3.829   6.602  10.794  0.4634 -1.2357 -1.0679
12983TIP3    H260441   3.729   6.669  10.702 -0.1675  0.5337  0.8227
12984TIP3   OH260442   6.480   1.723  14.167  0.0926 -0.6124  0.3091
12984TIP3    H160443   6.524   1.656  14.114  0.0219 -0.2651 -0.1931
12984TIP3    H260444   6.526   1.805  14.145 -0.3661 -0.3571  0.2909
12985TIP3   OH260445   1.541   4.604   0.672  0.2493 -0.1054  0.4496
12985TIP3    H160446   1.605   4.583   0.605 -1.7523  1.4256 -2.1582
12985TIP3    H260447   1.572   4.686   0.711 -0.2837  0.9742 -1.2396
12986TIP3   OH260448   1.098   5.201   2.745  0.0189  0.5789 -0.3960
12986TIP3    H160449   1.137   5.126   2.789  0.2455  0.8246 -0.1699
12986TIP3    H260450   1.048   5.246   2.813  2.3876  2.3731  0.3205
12987TIP3   OH260451   1.928   5.214   1.872 -0.5378 -0.0369 -0.0119
12987TIP3    H160452   1.919   5.220   1.967 -1.9087  2.2048 -0.1970
12987TIP3    H260453   1.865   5.278   1.838 -1.7983 -2.4374 -2.5335
12988TIP3   OH260454   1.388   4.514   1.273  0.7470 -0.0060 -0.0814
12988TIP3    H160455   1.439   4.548   1.347  0.0539  1.8632 -0.3935
12988TIP3    H260456   1.392   4.419   1.282  2.3381  0.1487  1.2084
12989TIP3   OH260457   4.166   6.174   5.913 -0.7701 -0.3809 -0.0453
12989TIP3    H160458   4.131   6.214   5.992 -0.9309 -1.4516  0.4548
12989TIP3    H260459   4.252   6.213   5.901 -0.9745  0.1884  0.3490
12990TIP3   OH260460   2.737   5.361   0.956  0.6017  0.0960 -0.1490
12990TIP3    H160461   2.645   5.344   0.935  0.2265  1.4609  0.3239
12990TIP3    H260462   2.735   5.413   1.036  1.8194 -0.3521  0.1980
12991TIP3   OH260463   2.620   0.304  13.328 -0.5127  0.2760 -0.2147
12991TIP3    H160464   2.685   0.371  13.350  1.1579 -0.6101 -2.0940
12991TIP3    H260465   2.640   0.231  13.386 -0.2588  0.2466 -0.3387
12992TIP3   OH260466   4.939   2.324   3.656  0.1193 -0.6561  0.3690
12992TIP3    H160467   4.913   2.399   3.601  2.0561 -1.8957 -2.5307
12992TIP3    H260468   4.858   2.295   3.697 -0.9632  2.0467  0.3702
12993TIP3   OH260469   1.628   4.989   4.224  0.5501 -0.2959 -0.4499
12993TIP3    H160470   1.692   4.960   4.289  1.9940  1.5098 -1.0028
12993TIP3    H260471   1.679   5.001   4.144 -0.3115  1.9237 -0.7151
12994TIP3   OH260472   6.441   2.719  11.644 -0.3135 -0.5382 -0.6642
12994TIP3    H160473   6.431   2.796  11.699 -0.5452 -0.7275 -0.4366
12994TIP3    H260474   6.507   2.666  11.688  0.9888  0.2273 -1.6190
12995TIP3   OH260475   5.522   2.212  16.673 -0.3434  0.0091 -0.6317
12995TIP3    H160476   5.545   2.272  16.602 -1.6384 -0.6371 -1.6287
12995TIP3    H260477   5.480   2.267  16.739  0.5606  0.5520 -0.4819
12996TIP3   OH260478   2.798   2.316   2.663  0.9491 -0.6082  0.4351
12996TIP3    H160479   2.748   2.332   2.743 -1.6905 -0.0350 -1.1922
12996TIP3    H260480   2.802   2.221   2.656 -0.1628 -0.6794  0.5095
12997TIP3   OH260481   2.718   1.046   3.751  0.4261  0.1728  0.2686
12997TIP3    H160482   2.715   1.139   3.773 -0.9478  0.6721 -1.7235
12997TIP3    H260483   2.688   1.042   3.660  0.1662 -2.2613  0.3919
12998TIP3   OH260484   0.202   1.051  15.825  0.5383  0.0512  0.1997
12998TIP3    H160485   0.109   1.072  15.817  0.3951 -0.8788 -0.7871
12998TIP3    H260486   0.227   1.020  15.738  1.6402 -0.2285  0.6026
12999TIP3   OH260487   1.454   1.223   1.536  0.5074  0.1682  0.2001
12999TIP3    H160488   1.488   1.273   1.462  0.9669 -1.0700 -0.4561
12999TIP3    H260489   1.365   1.255   1.548  0.7969  1.1430 -0.1826
13000TIP3   OH260490   4.547   1.436  11.029  0.0475  0.0580 -0.0071
13000TIP3    H160491   4.539   1.527  11.056  1.0969  0.2181 -0.1669
13000TIP3    H260492   4.588   1.440  10.943  0.3614 -0.5647  0.1073
13001TIP3   OH260493   6.105   0.679   3.679 -0.5785  0.1942  1.0683
13001TIP3    H160494   6.052   0.723   3.745  0.5565  0.4150  1.8622
13001TIP3    H260495   6.041   0.638   3.621 -1.6836  2.4532  0.5662
13002TIP3   OH260496   0.649   2.271  12.251  0.1571  0.0401  0.2443
13002TIP3    H160497   0.696   2.225  12.182  0.6281 -1.1143  1.2968
13002TIP3    H260498   0.710   2.271  12.325 -1.1659 -0.7332  1.3756
13003TIP3   OH260499   6.511   3.356   4.690 -0.1474 -0.2934 -0.2132
13003TIP3    H160500   6.453   3.378   4.617 -0.8030 -0.0547  0.3593
13003TIP3    H260501   6.599   3.368   4.656 -0.4517  0.1224 -0.8719
13004TIP3   OH260502   2.568   1.777  16.393 -0.6554  0.0065 -0.0955
13004TIP3    H160503   2.629   1.848  16.413 -0.9225  0.0009  0.7736
13004TIP3    H260504   2.610   1.728  16.323 -0.6148  1.2119 -0.9486
13005TIP3   OH260505   4.818   1.609  11.549  0.3923 -0.1717  0.6386
13005TIP3    H160506   4.880   1.682  11.557  1.0461 -0.1071 -3.2516
13005TIP3    H260507   4.746   1.644  11.497  0.3636 -2.0359 -0.6833
13006TIP3   OH260508   4.402   3.134  12.624  0.7952  0.6427 -0.5578
13006TIP3    H160509   4.429   3.135  12.716  0.7211  0.6934 -0.5366
13006TIP3    H260510   4.307   3.145  12.626  0.0630 -3.9362 -0.3861
13007TIP3   OH260511   6.019   3.558   1.196 -0.0992  0.3394  0.4262
13007TIP3    H160512   5.949   3.536   1.257 -0.0031  0.6166  0.6373
13007TIP3    H260513   5.977   3.559   1.110 -0.3838  0.6342  0.5671
13008TIP3   OH260514   3.094   1.781  11.517 -0.3118 -0.0844 -0.4815
13008TIP3    H160515   3.104   1.770  11.423 -2.5436  2.0638 -1.0726
13008TIP3    H260516   3.092   1.691  11.551  0.0975 -0.9178 -2.4986
13009TIP3   OH260517   3.722   4.062   4.425  0.4260  0.5137  0.1364
13009TIP3    H160518   3.666   4.134   4.453 -0.0400  0.1011  0.2904
13009TIP3    H260519   3.754   4.024   4.506  1.6416  1.2834  0.0346
13010TIP3   OH260520   6.542   3.482   1.617  0.0326  0.3439  1.1203
13010TIP3    H160521   6.495   3.468   1.700  0.2509 -2.6560  0.8533
13010TIP3    H260522   6.596   3.404   1.607  0.6171  0.9912 -1.4791
13011TIP3   OH260523   0.274   3.524  14.824 -0.3975 -0.4364  0.1045
13011TIP3    H160524   0.186   3.558  14.805  0.3835  1.7369  0.0970
13011TIP3    H260525   0.267   3.487  14.912 -0.8999  1.4094  0.8762
13012TIP3   OH260526   3.000   3.242  15.108  0.0170 -0.0900  0.2772
13012TIP3    H160527   2.917   3.212  15.071  0.2357  0.3723 -0.6149
13012TIP3    H260528   3.034   3.303  15.043  1.4125 -0.8384  0.2759
13013TIP3   OH260529   6.401   1.636  14.437  0.3375 -0.0398  0.7801
13013TIP3    H160530   6.344   1.560  14.429 -0.8912  0.9412 -0.3311
13013TIP3    H260531   6.402   1.674  14.349  1.0867  1.0974  1.2608
13014TIP3   OH260532   2.427   5.959  16.607 -0.2115  0.3729  0.0145
13014TIP3    H160533   2.467   6.042  16.583 -1.7656  0.7166 -1.6606
13014TIP3    H260534   2.341   5.983  16.642 -0.6427 -0.5070 -0.4036
13015TIP3   OH260535   2.110   1.318   2.456  0.1674 -0.2927 -0.2087
13015TIP3    H160536   2.068   1.331   2.541  0.5752 -0.6301  0.0523
13015TIP3    H260537   2.068   1.381   2.398 -0.2765 -0.2164  0.1890
13016TIP3   OH260538   0.119   6.175  16.552 -0.0776  0.0811  1.2954
13016TIP3    H160539   0.092   6.121  16.626 -2.1634  1.0637  1.3339
13016TIP3    H260540   0.079   6.260  16.568 -1.7507 -0.0141 -1.5475
13017TIP3   OH260541   4.681   0.500  12.470 -0.1702 -0.0477 -0.2077
13017TIP3    H160542   4.759   0.551  12.452 -0.4818  0.2517 -0.7221
13017TIP3    H260543   4.611   0.565  12.481 -1.0900 -0.3509 -3.2559
13018TIP3   OH260544   4.581   3.617  13.506  0.0909  0.0877  0.5346
13018TIP3    H160545   4.633   3.663  13.440  0.2402  1.1600  1.3756
13018TIP3    H260546   4.646   3.569  13.558  0.1041  0.3182  0.7301
13019TIP3   OH260547   4.061   5.399  13.683  0.0459 -0.5002  0.0570
13019TIP3    H160548   4.043   5.455  13.758  1.9485  1.9753 -1.1984
13019TIP3    H260549   4.107   5.323  13.720 -0.1105  0.0983  1.5134
13020TIP3   OH260550   5.071   5.231   4.820  0.1733 -0.1284 -0.1347
13020TIP3    H160551   4.996   5.261   4.871 -1.1766  1.1520 -2.7219
13020TIP3    H260552   5.080   5.138   4.843 -2.7358 -0.5579 -0.3384
13021TIP3   OH260553   4.971   4.030  14.321 -0.5371 -0.2072  0.2737
13021TIP3    H160554   4.988   4.106  14.265  0.2203 -0.5118  0.0787
13021TIP3    H260555   5.047   4.026  14.379  0.0030 -1.4987 -0.4862
13022TIP3   OH260556   2.297   1.806  11.867 -0.3912  0.1844 -0.2728
13022TIP3    H160557   2.294   1.845  11.780 -0.8752  0.4043 -0.1623
13022TIP3    H260558   2.232   1.735  11.863 -0.4369  0.2159 -0.0830
13023TIP3   OH260559   0.241   4.799  16.137  0.5467  0.0468 -0.0275
13023TIP3    H160560   0.216   4.890  16.121 -1.0063 -0.1654  0.8866
13023TIP3    H260561   0.242   4.791  16.233 -2.1122 -1.4995  0.0069
13024TIP3   OH260562   1.007   6.129  16.708  0.3611  0.1954  0.0141
13024TIP3    H160563   0.912   6.122  16.699  0.2388 -0.0170  1.2767
13024TIP3    H260564   1.035   6.173  16.628 -0.7674  0.0093 -0.5072
13025TIP3   OH260565   3.647   2.473  12.010 -0.1833  0.7041 -0.4463
13025TIP3    H160566   3.611   2.424  11.936 -0.9519  0.3333  0.1624
13025TIP3    H260567   3.570   2.502  12.060  0.3261  0.9112  0.2315
13026TIP3   OH260568   6.324   4.085  13.178 -0.1574 -0.0550 -0.7369
13026TIP3    H160569   6.295   4.087  13.087 -0.1077 -1.0355 -0.7862
13026TIP3    H260570   6.417   4.106  13.174 -0.2755  0.4636 -0.8476
13027TIP3   OH260571   3.186   5.568   0.850  0.0390 -0.5291  0.2404
13027TIP3    H160572   3.105   5.516   0.855 -0.1550 -0.3434 -0.7551
13027TIP3    H260573   3.177   5.618   0.769  1.0914 -0.3968  0.1952
13028TIP3   OH260574   6.520   6.733  14.878  0.1002 -0.3188  0.2732
13028TIP3    H160575   6.594   6.792  14.863  0.6730 -1.2353 -0.6209
13028TIP3    H260576   6.454   6.788  14.920  0.5353  1.0220 -0.7314
13029TIP3   OH260577   2.130   2.544  15.491 -0.0575 -0.0709  0.6677
13029TIP3    H160578   2.141   2.476  15.557 -0.4505  1.0837  1.9568
13029TIP3    H260579   2.217   2.585  15.483  0.2058 -0.7451 -0.1830
13030TIP3   OH260580   5.952   6.626   2.023  0.5459 -0.1897  0.7109
13030TIP3    H160581   6.039   6.663   2.006  0.6471 -0.9685 -0.6410
13030TIP3    H260582   5.899   6.700   2.050  1.4226  0.4588  0.7054
13031TIP3   OH260583   2.826   2.956  14.908 -0.0728  0.0748 -0.2122
13031TIP3    H160584   2.822   2.916  14.821  1.5504 -1.8619  0.5239
13031TIP3    H260585   2.883   3.031  14.897 -0.0669 -0.0172 -0.8748
13032TIP3   OH260586   1.151   0.815  10.677 -0.8454 -0.8030  0.1484
13032TIP3    H160587   1.205   0.767  10.741  0.1717 -0.3171 -0.3210
13032TIP3    H260588   1.082   0.855  10.730  1.1152  1.2744  1.3141
13033TIP3   OH260589   6.195   4.129   2.268 -0.4951  0.5063 -0.0525
13033TIP3    H160590   6.165   4.045   2.233  0.8558 -0.6688  1.4589
13033TIP3    H260591   6.288   4.132   2.246 -0.4036  1.3369  0.4130
13034TIP3   OH260592   5.837   0.685  12.374 -0.1001 -0.9849  0.3306
13034TIP3    H160593   5.838   0.593  12.401 -0.0775 -1.4777 -1.2303
13034TIP3    H260594   5.927   0.714  12.383  0.5569 -2.0397 -1.9650
13035TIP3   OH260595   6.485   0.310   5.230 -0.2555 -0.6142  0.4054
13035TIP3    H160596   6.435   0.338   5.153  0.4653  0.1035  0.1827
13035TIP3    H260597   6.517   0.222   5.207  1.2259  0.1847 -0.7838
13036TIP3   OH260598   2.125   2.988   0.383  0.0104  0.6078 -0.3987
13036TIP3    H160599   2.077   2.905   0.375  0.6661  0.2586 -0.7801
13036TIP3    H260600   2.057   3.055   0.376 -0.6620  0.0995  0.8286
13037TIP3   OH260601   4.806   4.182   4.749  0.2491 -0.1335  0.1585
13037TIP3    H160602   4.746   4.126   4.700 -0.6541  0.7717  0.1842
13037TIP3    H260603   4.749   4.239   4.801  1.0998  1.1668 -0.2609
13038TIP3   OH260604   0.604   2.033   0.239 -0.2629  0.2584  0.0474
13038TIP3    H160605   0.641   2.121   0.235 -0.6947  0.5059  1.2374
13038TIP3    H260606   0.676   1.978   0.271 -0.2770  0.3422  0.2201
13039TIP3   OH260607   2.555   0.676  16.336 -0.1323 -0.7145  0.4321
13039TIP3    H160608   2.609   0.742  16.293  0.5473 -2.2017 -1.1182
13039TIP3    H260609   2.512   0.723  16.408  1.5333  1.0112  0.3729
13040TIP3   OH260610   2.629   3.919   3.205 -0.3260 -0.2326 -0.3705
13040TIP3    H160611   2.588   3.833   3.199 -2.0173  0.5343 -0.5859
13040TIP3    H260612   2.603   3.964   3.124 -0.2035  0.7575  0.1217
13041TIP3   OH260613   0.332   3.574   5.273 -0.0532 -0.5708  0.3263
13041TIP3    H160614   0.372   3.591   5.358 -1.7224  2.2255  0.6535
13041TIP3    H260615   0.406   3.559   5.214  1.1296 -3.7985  2.3433
13042TIP3   OH260616   0.083   5.390  12.317 -0.3254  0.1907 -0.2687
13042TIP3    H160617   0.141   5.401  12.392 -0.1432  0.5533 -0.4591
13042TIP3    H260618   0.017   5.327  12.346 -1.0309  1.3030  0.6583
13043TIP3   OH260619   0.382   4.846   1.149 -0.0494 -0.0064  0.3108
13043TIP3    H160620   0.372   4.764   1.198 -0.1505  0.2372  0.6959
13043TIP3    H260621   0.353   4.914   1.209  0.8618  0.4003  0.2969
13044TIP3   OH260622   5.608   4.944   0.515  0.3479 -0.1298  0.5743
13044TIP3    H160623   5.547   4.969   0.446  2.4132 -1.2776 -1.7985
13044TIP3    H260624   5.666   5.020   0.525  1.8338 -0.9736 -1.1157
13045TIP3   OH260625   3.551   5.167  16.323  0.3482  0.6799 -0.3247
13045TIP3    H160626   3.483   5.104  16.346  1.1088  0.3258  1.0514
13045TIP3    H260627   3.575   5.144  16.233 -0.0667 -0.3757 -0.1810
13046TIP3   OH260628   0.415   4.676  13.520 -0.0378 -0.7784 -0.1923
13046TIP3    H160629   0.409   4.769  13.539  1.4250 -0.3288 -1.7259
13046TIP3    H260630   0.324   4.648  13.509 -0.4889  0.4966  0.0844
13047TIP3   OH260631   5.254   1.450  11.286 -0.3500 -0.0454  0.5700
13047TIP3    H160632   5.285   1.484  11.202  0.1102 -1.3358  0.1940
13047TIP3    H260633   5.176   1.502  11.305  0.6030  1.5507  0.2914
13048TIP3   OH260634   1.523   5.868   5.776 -0.0849  0.1260 -0.2710
13048TIP3    H160635   1.546   5.809   5.704 -0.9884 -2.2280  1.2443
13048TIP3    H260636   1.577   5.837   5.849 -0.8039  1.0016  0.6450
13049TIP3   OH260637   0.403   5.174  15.504  0.3751 -0.0311 -0.1974
13049TIP3    H160638   0.340   5.243  15.486  0.4438 -0.3563 -1.8480
13049TIP3    H260639   0.471   5.186  15.438  0.8180 -1.1583  0.0258
13050TIP3   OH260640   4.318   2.229  12.977 -0.0227  0.4594 -0.0740
13050TIP3    H160641   4.367   2.200  13.054 -0.3273  0.2121  0.0312
13050TIP3    H260642   4.235   2.261  13.012 -0.4249 -0.2503 -0.3469
13051TIP3   OH260643   1.470   6.810  14.905 -0.3902  0.1252  0.3863
13051TIP3    H160644   1.409   6.799  14.833  0.1164 -0.7445  0.0749
13051TIP3    H260645   1.451   6.737  14.965  1.5805 -1.3235 -0.6479
13052TIP3   OH260646   2.329   2.716  15.475 -0.2140  0.1043  0.1327
13052TIP3    H160647   2.368   2.761  15.550 -0.3558  1.9951 -0.8569
13052TIP3    H260648   2.397   2.721  15.407 -0.4244 -0.7852 -0.1495
13053TIP3   OH260649   2.224   1.759  13.238  0.1732 -0.0074 -0.1039
13053TIP3    H160650   2.205   1.668  13.215  0.1690 -0.1383  0.4111
13053TIP3    H260651   2.149   1.786  13.292  0.4542  0.1227  0.2191
13054TIP3   OH260652   3.273   1.348  13.624  0.0573  0.1988 -0.1369
13054TIP3    H160653   3.321   1.266  13.634  1.0156  0.7452 -0.1249
13054TIP3    H260654   3.255   1.355  13.530  2.9001  1.5308 -0.6947
13055TIP3   OH260655   2.744   2.949  16.652  0.3274  0.1582 -0.4022
13055TIP3    H160656   2.795   3.029  16.639 -0.7262  0.8183 -0.6212
13055TIP3    H260657   2.738   2.940  16.747  1.0035 -0.0273 -0.3752
13056TIP3   OH260658   2.696   1.069   2.551 -0.5412 -0.0996  0.4216
13056TIP3    H160659   2.647   1.070   2.469 -0.4636  0.0349  0.3764
13056TIP3    H260660   2.787   1.087   2.525 -0.6289  0.6464  0.6084
13057TIP3   OH260661   1.827   0.244   4.194  0.3228  0.2943 -0.0016
13057TIP3    H160662   1.865   0.328   4.171  3.4455 -0.3188  2.2944
13057TIP3    H260663   1.894   0.180   4.173 -2.2967 -1.8858 -2.5261
13058TIP3   OH260664   3.844   2.757  15.214  0.3112 -0.1412 -0.3400
13058TIP3    H160665   3.800   2.818  15.155  1.1886  0.1598 -0.7059
13058TIP3    H260666   3.924   2.803  15.240  2.3679 -2.0743 -2.6863
13059TIP3   OH260667   6.492   3.060  12.581  0.1858 -0.0940 -0.7044
13059TIP3    H160668   6.556   2.997  12.612  0.8923  0.6431 -0.6479
13059TIP3    H260669   6.423   3.058  12.647  0.2628 -0.7014 -0.6350
13060TIP3   OH260670   6.329   3.986   0.643 -0.3095  0.0260  0.2676
13060TIP3    H160671   6.261   4.046   0.614 -1.6298 -1.2376  0.5947
13060TIP3    H260672   6.373   3.958   0.563 -0.0750  0.9527  0.0643
13061TIP3   OH260673   4.730   3.010  16.570 -0.5374  0.3314 -0.4422
13061TIP3    H160674   4.704   3.081  16.512 -2.9279 -0.3087 -0.2589
13061TIP3    H260675   4.687   3.031  16.653  0.3350 -0.3370  0.1913
13062TIP3   OH260676   6.640   2.317   3.045  0.2995  0.1177 -0.2196
13062TIP3    H160677   6.699   2.250   3.080 -0.6827  0.2569  1.8751
13062TIP3    H260678   6.631   2.380   3.116 -3.3355 -0.5609  0.1191
13063TIP3   OH260679   6.259   6.363  14.596 -0.4463  0.0391 -0.3619
13063TIP3    H160680   6.181   6.413  14.623  0.7526  2.7614 -1.5293
13063TIP3    H260681   6.332   6.408  14.639  0.6157 -1.7823 -0.1552
13064TIP3   OH260682   2.807   4.211  13.085  0.3170  0.2318 -0.0866
13064TIP3    H160683   2.743   4.150  13.123  0.4667 -0.5491 -1.0492
13064TIP3    H260684   2.850   4.251  13.161 -0.4732 -0.1333  0.5667
13065TIP3   OH260685   1.037   3.551   2.064 -0.1891  0.0961 -0.0267
13065TIP3    H160686   0.964   3.602   2.099 -0.1943 -0.4889  0.8554
13065TIP3    H260687   1.067   3.499   2.138  0.7226 -0.1384 -0.5472
13066TIP3   OH260688   2.582   6.763  17.165 -0.2517 -0.2415 -0.1366
13066TIP3    H160689   2.579   6.670  17.142  0.9681 -0.3085 -0.0962
13066TIP3    H260690   2.510   6.802  17.116 -0.2046 -1.0561 -0.8855
13067TIP3   OH260691   1.056   6.648   0.490  0.5856  0.1593  0.4698
13067TIP3    H160692   1.112   6.716   0.527 -1.3284  2.0565  0.0561
13067TIP3    H260693   1.020   6.687   0.410  1.3102 -2.2795 -1.1652
13068TIP3   OH260694   2.772   0.441  17.074 -0.0922  0.1636  0.4502
13068TIP3    H160695   2.867   0.452  17.067  0.0862 -1.6128 -0.3897
13068TIP3    H260696   2.740   0.527  17.102  1.7698  0.7376  0.9559
13069TIP3   OH260697   5.860   4.892  16.010  0.1743  0.1737  0.7095
13069TIP3    H160698   5.792   4.956  15.989 -0.4567 -0.4894  0.6845
13069TIP3    H260699   5.812   4.812  16.031  0.9037 -0.0075  1.7745
13070TIP3   OH260700   1.437   2.706  15.808 -0.0543 -0.7407 -0.7519
13070TIP3    H160701   1.433   2.749  15.722 -2.3154 -2.0897 -1.4186
13070TIP3    H260702   1.399   2.769  15.868  2.9924  0.8724 -0.3170
13071TIP3   OH260703   2.881   1.805  13.935 -0.0925  0.0111 -0.2905
13071TIP3    H160704   2.808   1.840  13.986 -1.0193 -1.8142 -0.2693
13071TIP3    H260705   2.848   1.722  13.900  1.1811  0.2746 -2.2730
13072TIP3   OH260706   3.745   6.740   5.727 -0.5425  0.1382  0.1717
13072TIP3    H160707   3.741   6.671   5.794  0.1698 -0.0039  0.0805
13072TIP3    H260708   3.664   6.730   5.676  0.2772 -1.7028 -0.8656
13073TIP3   OH260709   5.264   0.999   0.779 -0.8566  0.3188  0.2010
13073TIP3    H160710   5.349   1.039   0.762 -0.6921  0.9301  2.1993
13073TIP3    H260711   5.231   1.044   0.857 -2.5559 -0.6152  0.0782
13074TIP3   OH260712   0.754   5.040   1.633 -0.5514 -0.0939 -0.1571
13074TIP3    H160713   0.671   5.005   1.600 -0.1900 -1.2590  0.0976
13074TIP3    H260714   0.731   5.080   1.717 -0.9918  0.3307 -0.4792
13075TIP3   OH260715   2.082   0.406   2.157 -0.5055 -0.2446 -0.3572
13075TIP3    H160716   2.016   0.422   2.224 -0.7023  0.8751 -0.8097
13075TIP3    H260717   2.060   0.319   2.122 -2.0549  0.3362 -0.8731
13076TIP3   OH260718   0.415   6.524  14.307  0.4284 -0.0131  0.3381
13076TIP3    H160719   0.433   6.476  14.227 -0.7047 -0.0969  0.1245
13076TIP3    H260720   0.440   6.614  14.287  0.2888 -0.0617 -0.0651
13077TIP3   OH260721   3.076   5.494  12.110 -0.0078  0.0203 -0.0710
13077TIP3    H160722   3.163   5.468  12.142 -0.3734 -0.8666  0.2382
13077TIP3    H260723   3.018   5.483  12.185 -0.5537 -0.3391 -0.5363
13078TIP3   OH260724   4.269   3.999   5.590 -0.3610 -0.4620 -0.0202
13078TIP3    H160725   4.276   3.989   5.685 -0.3884 -1.5898 -0.1220
13078TIP3    H260726   4.207   3.932   5.564 -0.1657 -0.3190 -0.8688
13079TIP3   OH260727   2.160   4.877  11.351 -0.3387 -0.0232 -0.0256
13079TIP3    H160728   2.151   4.922  11.435  1.0119  2.7346 -1.2295
13079TIP3    H260729   2.074   4.888  11.309  0.3441  2.9379 -0.8846
13080TIP3   OH260730   5.412   2.327  16.889 -0.3869 -0.1005 -0.0429
13080TIP3    H160731   5.397   2.235  16.912 -1.3970  0.0134 -0.2173
13080TIP3    H260732   5.426   2.370  16.973  0.0989 -0.4071  0.0395
13081TIP3   OH260733   3.892   2.475  13.874 -0.8307 -0.5848  0.4874
13081TIP3    H160734   3.930   2.494  13.789 -0.9662 -2.2868  0.0053
13081TIP3    H260735   3.798   2.482  13.861 -0.9016 -1.7820  0.2109
13082TIP3   OH260736   0.998   6.814  13.558  1.0976 -0.4140  0.2165
13082TIP3    H160737   0.964   6.891  13.602  1.4818 -0.7718  1.1552
13082TIP3    H260738   1.076   6.844  13.512 -0.0826  0.2754 -1.4385
13083TIP3   OH260739   5.068   2.452  11.361 -0.8407  0.1900  0.4478
13083TIP3    H160740   5.123   2.387  11.316 -1.1388 -0.2853  0.7620
13083TIP3    H260741   5.039   2.510  11.291  0.7504  0.9743  0.3864
13084TIP3   OH260742   3.653   3.643   1.231 -0.1308  0.0670 -0.2180
13084TIP3    H160743   3.563   3.611   1.241 -0.0858  0.0590  0.2210
13084TIP3    H260744   3.707   3.572   1.266  0.2098 -0.9447 -2.6293
13085TIP3   OH260745   0.739   1.630   0.181  0.3744 -0.4269  0.1526
13085TIP3    H160746   0.650   1.626   0.147  0.3251  1.1449  0.0193
13085TIP3    H260747   0.795   1.610   0.106  0.2122  1.6082 -0.5749
13086TIP3   OH260748   6.385   4.280  15.396 -0.3545 -0.3561  0.1149
13086TIP3    H160749   6.437   4.327  15.331 -1.0011 -2.6206 -2.2330
13086TIP3    H260750   6.312   4.338  15.416  0.2965  0.7276 -0.5641
13087TIP3   OH260751   0.303   5.090   0.851 -0.3020 -0.1954 -0.0639
13087TIP3    H160752   0.342   5.128   0.772 -1.8613  0.3880 -0.5905
13087TIP3    H260753   0.365   5.021   0.877  1.6815  1.4828 -0.1182
13088TIP3   OH260754   3.078   5.540   3.059 -0.3624 -0.2057 -0.2625
13088TIP3    H160755   3.085   5.475   3.128  0.7882  1.7734  1.6211
13088TIP3    H260756   2.992   5.581   3.074 -0.3010 -0.0753 -0.2609
13089TIP3   OH260757   1.388   2.607  11.291  0.2021  0.2686 -0.1863
13089TIP3    H160758   1.426   2.554  11.222 -1.1159 -0.6030 -0.2947
13089TIP3    H260759   1.391   2.551  11.369 -0.4812  0.3150 -0.1150
13090TIP3   OH260760   6.062   3.529  10.738  0.0709 -0.0455 -0.2308
13090TIP3    H160761   6.048   3.542  10.644  0.1556  0.4667 -0.1707
13090TIP3    H260762   6.117   3.602  10.765 -1.3153  0.7549  0.5586
13091TIP3   OH260763   4.681   5.294  14.213  0.3951  0.1450 -0.0407
13091TIP3    H160764   4.759   5.240  14.223  0.0638 -0.3781 -0.1967
13091TIP3    H260765   4.618   5.237  14.168 -0.3723  0.2490  0.8665
13092TIP3   OH260766   0.077   4.961   1.237 -0.6237 -0.1070  0.0361
13092TIP3    H160767   0.136   5.012   1.292 -0.7310 -0.3306  0.3583
13092TIP3    H260768   0.081   5.004   1.151 -0.7476  0.4766  0.3183
13093TIP3   OH260769   4.756   1.724  14.957  0.0460 -0.1352  0.7818
13093TIP3    H160770   4.754   1.629  14.949 -0.7113 -0.0510 -0.3573
13093TIP3    H260771   4.692   1.744  15.026 -0.9067 -0.3947  0.0038
13094TIP3   OH260772   2.767   0.505  10.738  0.4795 -0.1696  0.2741
13094TIP3    H160773   2.682   0.462  10.752 -0.4211  0.6510 -2.0834
13094TIP3    H260774   2.816   0.444  10.683  0.4147  0.4216 -0.4605
13095TIP3   OH260775   5.294   6.157  14.807 -0.5279  0.0273 -0.2413
13095TIP3    H160776   5.219   6.213  14.825 -1.4371 -0.1981 -2.9023
13095TIP3    H260777   5.358   6.214  14.764 -0.4439 -0.4067 -0.7140
13096TIP3   OH260778   0.516   4.533   2.067 -0.0128  0.5382 -0.5271
13096TIP3    H160779   0.466   4.545   2.148  1.8124  1.3872  0.5307
13096TIP3    H260780   0.506   4.440   2.046  0.2930  0.0736  1.2455
13097TIP3   OH260781   4.242   4.307  11.826 -0.0934  0.0226  0.2886
13097TIP3    H160782   4.155   4.324  11.791  0.3566 -0.8428 -1.3560
13097TIP3    H260783   4.275   4.394  11.850 -0.4239  0.6964 -1.5455
13098TIP3   OH260784   3.611   2.866  12.828 -0.1285  0.1728  0.0616
13098TIP3    H160785   3.666   2.914  12.890  0.3699  0.2992 -0.4751
13098TIP3    H260786   3.662   2.789  12.805  0.0488  0.5543 -0.8338
13099TIP3   OH260787   2.485   5.543   2.817 -0.3392  0.2457 -0.2107
13099TIP3    H160788   2.485   5.532   2.721  0.7066  0.3921 -0.2403
13099TIP3    H260789   2.549   5.613   2.833 -0.1899 -0.0686  0.6227
13100TIP3   OH260790   4.837   2.468   5.527  0.3592  0.1634  0.9508
13100TIP3    H160791   4.814   2.529   5.457  2.0767  0.0005  0.1904
13100TIP3    H260792   4.893   2.403   5.484 -1.6836 -2.2026  1.6305
13101TIP3   OH260793   6.599   4.279  12.291  0.4314  0.0993  0.2702
13101TIP3    H160794   6.597   4.193  12.332  1.8703  0.2193  0.6760
13101TIP3    H260795   6.509   4.296  12.264  0.3857 -2.2767 -1.4106
13102TIP3   OH260796   2.070   5.904   3.359 -0.1401  0.0931 -0.6038
13102TIP3    H160797   2.097   5.968   3.425  0.6517 -0.4889 -0.3463
13102TIP3    H260798   2.149   5.886   3.308  0.1438 -1.9707  0.4390
13103TIP3   OH260799   3.423   5.038  15.497  0.1627 -0.0760 -0.4039
13103TIP3    H160800   3.481   4.987  15.441  0.7596 -0.1668  0.2786
13103TIP3    H260801   3.409   5.120  15.449  2.2146  0.6475  0.1300
13104TIP3   OH260802   3.896   4.298   5.166  0.4420 -0.2331  0.3736
13104TIP3    H160803   3.912   4.367   5.102 -2.0142  1.6873  1.6371
13104TIP3    H260804   3.929   4.333   5.249  1.6122 -1.7627  0.6072
13105TIP3   OH260805   3.856   4.209   2.240 -0.7242  0.2096  0.1246
13105TIP3    H160806   3.843   4.282   2.178  0.5076 -0.2215 -0.6819
13105TIP3    H260807   3.855   4.250   2.326 -2.9697  0.7647 -0.1035
13106TIP3   OH260808   3.800   3.719   0.371  0.0987  0.3629  0.2569
13106TIP3    H160809   3.759   3.805   0.381  0.2792  0.2597  2.0727
13106TIP3    H260810   3.843   3.703   0.454  0.6507 -1.2024 -0.3038
13107TIP3   OH260811   3.310   4.853   5.089 -0.1476 -0.0639 -0.1530
13107TIP3    H160812   3.278   4.934   5.130 -0.6970 -0.3503 -0.0129
13107TIP3    H260813   3.241   4.828   5.028  0.6615  0.3643 -1.2842
13108TIP3   OH260814   5.781   5.852   2.064 -0.7715  0.4617 -0.2394
13108TIP3    H160815   5.781   5.869   1.970  0.9629 -0.7269 -0.5042
13108TIP3    H260816   5.708   5.792   2.078 -1.1048  0.7346 -0.8003
13109TIP3   OH260817   1.490   4.718   0.178  0.5826  0.1025  0.0823
13109TIP3    H160818   1.456   4.753   0.260  1.2606  0.6326  0.1525
13109TIP3    H260819   1.450   4.632   0.169  0.2365  0.1880  0.7948
13110TIP3   OH260820   4.402   2.704   1.102 -0.0425  0.2169  0.3116
13110TIP3    H160821   4.403   2.781   1.045 -1.1320 -1.0151 -1.4893
13110TIP3    H260822   4.450   2.637   1.051  0.5936 -0.4100  1.6857
13111TIP3   OH260823   6.231   4.598   0.686 -0.0432 -0.5074 -0.5091
13111TIP3    H160824   6.225   4.505   0.709 -1.4001 -0.4459 -0.5383
13111TIP3    H260825   6.141   4.627   0.681  0.3725  1.0243  0.2815
13112TIP3   OH260826   6.138   0.610  15.206 -0.0702  0.7005 -0.6165
13112TIP3    H160827   6.176   0.538  15.256 -2.0573  0.3689  0.5195
13112TIP3    H260828   6.064   0.640  15.259 -0.7905  1.9474 -2.2286
13113TIP3   OH260829   0.406   6.798  14.534  0.1380 -0.0437  0.6611
13113TIP3    H160830   0.448   6.795  14.448  1.3246  0.2702  1.2124
13113TIP3    H260831   0.322   6.842  14.518 -2.0263 -4.2872 -1.2130
13114TIP3   OH260832   0.435   0.012   4.237 -0.2819 -0.3849 -0.3935
13114TIP3    H160833   0.450   0.086   4.296  1.4401  0.0929 -1.3464
13114TIP3    H260834   0.350  -0.023   4.263 -0.1821  0.6124  1.4816
13115TIP3   OH260835   0.380   2.614   3.676 -0.6582  0.0085  0.1190
13115TIP3    H160836   0.286   2.628   3.693 -0.6292 -0.4156  0.6610
13115TIP3    H260837   0.385   2.604   3.581 -1.0644  0.7579  0.0121
13116TIP3   OH260838   0.511   3.000   5.724  0.5347 -0.4921  0.6110
13116TIP3    H160839   0.458   2.935   5.771  1.2302 -0.1925  1.8818
13116TIP3    H260840   0.498   3.081   5.774  1.0179 -0.0626  0.0536
13117TIP3   OH260841   1.764   3.208  11.599 -0.7818  0.2232  0.1590
13117TIP3    H160842   1.818   3.278  11.562 -0.2833 -0.1391  0.1947
13117TIP3    H260843   1.750   3.235  11.690 -0.1883  0.0522  0.3097
13118TIP3   OH260844   5.496   0.079  15.336 -0.5727 -0.5008 -0.0540
13118TIP3    H160845   5.419   0.121  15.298  0.5909  2.0904  0.1818
13118TIP3    H260846   5.478   0.077  15.430  0.1188  1.4037  0.1708
13119TIP3   OH260847   5.211   1.906  11.028 -0.5244  0.1589 -0.4252
13119TIP3    H160848   5.132   1.853  11.037 -1.0729  1.1180  0.6087
13119TIP3    H260849   5.258   1.893  11.110 -0.8285  1.5026 -0.0170
13120TIP3   OH260850   3.559   0.182   2.529  0.2818 -0.4509  0.2589
13120TIP3    H160851   3.466   0.202   2.518  0.6493  0.9085 -0.7293
13120TIP3    H260852   3.566   0.151   2.619 -0.9761  0.4513  0.7044
13121TIP3   OH260853   0.989   0.706  17.067 -0.2388  0.6320 -0.4892
13121TIP3    H160854   0.924   0.644  17.035 -2.7231  1.5713  2.3460
13121TIP3    H260855   1.067   0.652  17.082 -1.4470 -1.2834 -0.6941
13122TIP3   OH260856   6.375   5.935  13.430 -0.2813  0.4010  0.1689
13122TIP3    H160857   6.438   5.923  13.359 -1.6870 -1.1954 -0.9191
13122TIP3    H260858   6.427   5.930  13.510  0.9315 -1.5910 -0.6630
13123TIP3   OH260859   0.999   4.597   3.387 -0.0958  0.3967  0.4693
13123TIP3    H160860   1.066   4.644   3.436  1.3645 -0.3298 -0.7305
13123TIP3    H260861   1.010   4.505   3.413 -0.1442  0.1762 -0.2690
13124TIP3   OH260862   3.137   4.118   2.517 -0.5480  0.3223  0.1482
13124TIP3    H160863   3.207   4.061   2.486 -1.0588 -0.1343 -0.1867
13124TIP3    H260864   3.092   4.068   2.584 -2.0687 -0.3999 -1.3286
13125TIP3   OH260865   3.514   3.174  11.713  0.3085 -0.3901  0.1022
13125TIP3    H160866   3.577   3.247  11.710 -0.1193 -0.0489 -0.8142
13125TIP3    H260867   3.433   3.214  11.743 -0.2416 -0.2367 -1.5143
13126TIP3   OH260868   6.649   0.413  15.791 -0.3569  0.2264  0.7716
13126TIP3    H160869   6.644   0.368  15.875 -1.1456 -3.7070 -1.1432
13126TIP3    H260870   6.742   0.410  15.768 -0.0619  1.7538  1.6221
13127TIP3   OH260871   1.870   4.047   5.031 -0.3164 -0.4778 -0.0737
13127TIP3    H160872   1.794   4.026   5.085  0.8865 -0.4308  1.7256
13127TIP3    H260873   1.847   4.129   4.987 -0.8971  0.1443  1.3317
13128TIP3   OH260874   1.856   4.218   2.525  0.1744 -0.0898 -0.2035
13128TIP3    H160875   1.772   4.229   2.480 -0.9754 -1.0279  1.5660
13128TIP3    H260876   1.888   4.133   2.495 -0.1486 -0.3073  0.0551
13129TIP3   OH260877   0.625   1.542  12.180 -0.3179  0.5174  0.9183
13129TIP3    H160878   0.606   1.524  12.088 -0.8422  0.2137  1.0798
13129TIP3    H260879   0.720   1.539  12.186 -0.2931  0.2327  0.4452
13130TIP3   OH260880   3.930   2.775   1.956 -0.3771  0.3312  0.0153
13130TIP3    H160881   3.956   2.846   2.015  0.2017 -0.6751  0.9916
13130TIP3    H260882   3.957   2.695   2.001  0.6331 -0.4532 -1.8918
13131TIP3   OH260883   0.121   6.157  12.870 -0.1208 -0.0147  0.7378
13131TIP3    H160884   0.047   6.179  12.813  0.1578  1.3637  0.8678
13131TIP3    H260885   0.139   6.065  12.852 -0.9251  0.0282 -0.3766
13132TIP3   OH260886   5.883   2.201  12.831  0.1831  0.1097  0.2639
13132TIP3    H160887   5.829   2.209  12.753  0.0277 -0.5900  0.2976
13132TIP3    H260888   5.822   2.174  12.900  0.4324  0.1036  0.4829
13133TIP3   OH260889   4.147   4.203  15.168 -0.8099 -0.2917  0.6145
13133TIP3    H160890   4.207   4.218  15.241 -0.5155  0.1255  0.2931
13133TIP3    H260891   4.091   4.280  15.167  0.5682  0.7614 -0.9103
13134TIP3   OH260892   0.324   1.109   5.407  0.1208  0.6267 -0.2078
13134TIP3    H160893   0.393   1.044   5.396  0.0555  0.3730  0.7553
13134TIP3    H260894   0.263   1.070   5.470 -0.6597  1.0383 -0.6940
13135TIP3   OH260895   0.669   5.814   3.357 -0.6547 -0.0834 -0.9824
13135TIP3    H160896   0.719   5.847   3.282  0.0993 -1.0941 -0.9552
13135TIP3    H260897   0.603   5.757   3.319 -2.3080  1.7768 -1.0703
13136TIP3   OH260898   3.768   4.641   1.435  0.4653 -0.2025  0.6508
13136TIP3    H160899   3.684   4.616   1.399 -0.7937  2.1889  1.6874
13136TIP3    H260900   3.788   4.726   1.394  1.8992 -0.2754  1.1301
13137TIP3   OH260901   0.793   1.799   1.549 -0.2791 -0.7483  0.2303
13137TIP3    H160902   0.823   1.844   1.627 -0.2000 -1.1393  0.4264
13137TIP3    H260903   0.798   1.706   1.571 -0.7866 -0.8446 -0.0430
13138TIP3   OH260904   6.473   3.286   3.846 -0.0836  0.0111  0.1578
13138TIP3    H160905   6.491   3.275   3.939 -0.7501 -3.3303  0.0229
13138TIP3    H260906   6.557   3.310   3.807 -0.0560  2.7513  1.6827
13139TIP3   OH260907   1.038   5.889  11.220  1.0886  0.5631  0.0149
13139TIP3    H160908   1.039   5.813  11.278 -0.1284  0.4973 -0.0356
13139TIP3    H260909   1.011   5.854  11.135  1.6517  0.8685 -0.2962
13140TIP3   OH260910   4.914   2.351   2.559 -0.5427  0.2917  0.5755
13140TIP3    H160911   4.861   2.290   2.508 -1.8655  1.4692  0.4751
13140TIP3    H260912   4.973   2.391   2.494  0.6688 -1.1522  0.7203
13141TIP3   OH260913   5.572   2.734  15.712 -0.4919 -0.3273 -0.0480
13141TIP3    H160914   5.548   2.758  15.801  1.3580  2.5102 -0.1912
13141TIP3    H260915   5.657   2.691  15.720  0.9275  2.2225 -0.5402
13142TIP3   OH260916   5.788   2.681   1.434  0.0290  0.3550  0.3849
13142TIP3    H160917   5.856   2.617   1.453  0.7701  1.2761  0.9400
13142TIP3    H260918   5.735   2.685   1.513  0.0947  0.5565  0.4195
13143TIP3   OH260919   3.533   6.772  12.198  0.6354 -0.0413  0.5715
13143TIP3    H160920   3.511   6.679  12.206  1.0248 -0.1897 -0.0621
13143TIP3    H260921   3.448   6.816  12.188  0.4487 -0.3223  0.8999
13144TIP3   OH260922   3.050   3.360  15.368  0.5100 -0.1368  0.9561
13144TIP3    H160923   3.040   3.322  15.281 -1.2170  1.6376  0.2849
13144TIP3    H260924   2.973   3.417  15.378  1.3099  0.6751  3.1301
13145TIP3   OH260925   1.508   5.923  14.107  0.1283  0.6442  0.2168
13145TIP3    H160926   1.570   5.956  14.042  0.4586 -1.4008 -0.5512
13145TIP3    H260927   1.424   5.963  14.083 -0.0301 -0.9756 -2.2792
13146TIP3   OH260928   5.999   2.911   3.580 -0.0893  0.6302  0.2753
13146TIP3    H160929   6.023   2.915   3.488 -1.5398 -0.0512 -0.1458
13146TIP3    H260930   5.977   2.820   3.596 -1.9771  1.1153  0.7249
13147TIP3   OH260931   4.170   2.861  11.460  0.0719  0.5243 -0.5143
13147TIP3    H160932   4.248   2.822  11.421 -0.7734 -0.1066 -1.6320
13147TIP3    H260933   4.097   2.813  11.422 -0.8507  0.3382  1.3677
13148TIP3   OH260934   1.327   3.263  17.192  0.3332  0.3242  0.0391
13148TIP3    H160935   1.311   3.201  17.121  0.5163  1.3458 -0.9310
13148TIP3    H260936   1.246   3.264  17.242 -0.3133  0.6253 -0.9929
13149TIP3   OH260937   2.446   0.916   2.668  0.2693 -0.8126  0.1047
13149TIP3    H160938   2.447   1.011   2.658  0.7841 -0.9101 -0.9503
13149TIP3    H260939   2.396   0.900   2.748  0.4308  0.3550  0.4493
13150TIP3   OH260940   5.898   1.445  15.473 -0.1888  0.2679 -0.0206
13150TIP3    H160941   5.958   1.374  15.493 -1.5248 -1.3556 -1.4818
13150TIP3    H260942   5.811   1.410  15.494 -0.8495  1.6222 -0.3760
13151TIP3   OH260943   3.530   5.996  16.032  0.1565  0.2024 -0.3376
13151TIP3    H160944   3.498   5.972  15.945  0.1834 -0.8363 -0.0790
13151TIP3    H260945   3.454   5.982  16.089  0.9527 -2.1247  0.2578
13152TIP3   OH260946   0.893   2.387   3.881  0.4471  0.0641 -0.0102
13152TIP3    H160947   0.940   2.402   3.798  2.4097  0.0056  1.0253
13152TIP3    H260948   0.926   2.302   3.912 -0.1792  0.1409  0.8951
13153TIP3   OH260949   3.009   2.509   2.149  0.2614 -0.6915 -0.2871
13153TIP3    H160950   3.009   2.469   2.061  0.2858 -0.9660 -0.1625
13153TIP3    H260951   3.074   2.458   2.198 -1.1570 -1.8242  0.4812
13154TIP3   OH260952   0.897   4.521   3.977 -0.3097 -0.4555 -0.3043
13154TIP3    H160953   0.970   4.583   3.982  0.7551 -1.5530 -1.5343
13154TIP3    H260954   0.820   4.572   4.004  0.7876  0.9118  0.3663
13155TIP3   OH260955   5.488   4.936   5.348  0.0386  0.4861  0.3265
13155TIP3    H160956   5.473   4.951   5.255 -1.0860 -1.6034  0.1267
13155TIP3    H260957   5.580   4.912   5.354  0.0112  0.2038 -0.3199
13156TIP3   OH260958   6.298   0.357  14.805 -0.0452 -0.0268 -0.9418
13156TIP3    H160959   6.209   0.347  14.773 -0.8578  0.6215  0.9819
13156TIP3    H260960   6.298   0.441  14.852  0.8190 -1.1991  1.3235
13157TIP3   OH260961   2.665   3.395  13.610  0.0979  0.0502  0.0138
13157TIP3    H160962   2.599   3.432  13.552  0.7606  1.5134  0.1450
13157TIP3    H260963   2.749   3.422  13.571  0.5558  0.8690  1.5051
13158TIP3   OH260964   4.059   1.720  16.631 -0.1228 -0.6684  0.1342
13158TIP3    H160965   4.100   1.667  16.700  1.3408  0.4031  0.1560
13158TIP3    H260966   4.129   1.781  16.604 -1.6002  0.9870 -0.1268
13159TIP3   OH260967   5.553   6.221  17.002 -0.2070 -0.5622  0.0656
13159TIP3    H160968   5.620   6.168  17.047 -0.1623 -0.9546 -0.4549
13159TIP3    H260969   5.590   6.310  17.001  0.2068 -0.7287 -0.0052
13160TIP3   OH260970   1.940   1.276   3.687 -0.5612 -0.0890  0.0801
13160TIP3    H160971   1.997   1.272   3.610 -0.0311  2.0967  0.3130
13160TIP3    H260972   1.994   1.245   3.759  0.3500  1.8815  0.2828
13161TIP3   OH260973   4.282   5.660  14.320 -0.1903  0.4925  0.0308
13161TIP3    H160974   4.214   5.599  14.291 -0.6226  0.1101  1.7523
13161TIP3    H260975   4.236   5.742  14.333  0.5425  1.5897 -3.1696
13162TIP3   OH260976   0.580   1.102   6.109 -1.1300 -0.2631  0.3992
13162TIP3    H160977   0.609   1.142   6.027  0.1414 -2.1235 -0.1049
13162TIP3    H260978   0.515   1.038   6.083  0.7604 -2.3526  0.5353
13163TIP3   OH260979   3.447   5.411  11.485  0.4466 -0.5137  0.0038
13163TIP3    H160980   3.529   5.410  11.535 -0.3674 -0.2324  1.3843
13163TIP3    H260981   3.428   5.504  11.472 -1.0726 -0.4797  2.1362
13164TIP3   OH260982   1.835   6.799   6.788  0.1397  0.5154  0.3373
13164TIP3    H160983   1.787   6.761   6.861 -0.7778  0.3921 -0.3180
13164TIP3    H260984   1.806   6.890   6.784 -0.0380  0.4433 -0.0590
13165TIP3   OH260985   2.479   5.835  11.326  0.1851  0.7116  0.4159
13165TIP3    H160986   2.526   5.756  11.351  1.0017  1.6377  2.0584
13165TIP3    H260987   2.525   5.868  11.249  1.9515  1.2813  1.6396
13166TIP3   OH260988   3.436   0.213  13.661 -0.2918 -0.2342  0.6461
13166TIP3    H160989   3.355   0.187  13.705 -0.6148 -0.1578  0.1042
13166TIP3    H260990   3.461   0.296  13.702 -1.7543  0.9626 -0.7521
13167TIP3   OH260991   6.804   1.395   0.227  0.2416  0.0238 -0.1035
13167TIP3    H160992   6.889   1.372   0.191  0.4289  1.6384 -0.8007
13167TIP3    H260993   6.768   1.313   0.258  2.6841 -0.4980  1.6321
13168TIP3   OH260994   0.133   1.983  15.011  0.5984 -0.4666 -0.1536
13168TIP3    H160995   0.063   1.919  14.996  0.7980  0.0144 -4.3479
13168TIP3    H260996   0.091   2.054  15.060 -1.6414 -0.6517 -1.6590
13169TIP3   OH260997   5.650   0.957   5.224 -0.5426 -0.0912  0.0933
13169TIP3    H160998   5.559   0.933   5.241 -0.4093 -2.2172 -1.7647
13169TIP3    H260999   5.646   1.010   5.145 -0.2453  0.9326  0.7455
13170TIP3   OH261000   2.016   6.062   0.058 -0.5600  0.2215 -0.1155
13170TIP3    H161001   1.927   6.080   0.091  0.4478  1.1903  2.3442
13170TIP3    H261002   2.045   5.987   0.110  0.3272  0.4062 -0.3404
13171TIP3   OH261003   2.496   2.991  14.248 -0.6049  0.3666 -0.3901
13171TIP3    H161004   2.493   3.086  14.232 -1.2529  0.5535  0.7391
13171TIP3    H261005   2.524   2.954  14.165  0.7180  1.6377 -0.5660
13172TIP3   OH261006   6.303   4.385   3.951 -0.2844  0.3412 -0.0504
13172TIP3    H161007   6.256   4.448   3.896 -0.7351 -0.4746 -0.6240
13172TIP3    H261008   6.241   4.361   4.020 -1.4927 -2.0721 -1.7896
13173TIP3   OH261009   6.014   3.627   5.908  0.3256 -0.1985 -0.4574
13173TIP3    H161010   6.002   3.635   5.814  0.9830 -0.2982 -0.5564
13173TIP3    H261011   6.093   3.573   5.917  1.5478  1.6080  0.1308
13174TIP3   OH261012   5.207   1.725  11.775 -0.2344  0.0585 -0.2231
13174TIP3    H161013   5.296   1.732  11.811  0.8008 -1.4557 -2.2644
13174TIP3    H261014   5.166   1.810  11.795  1.8634  1.0276  0.2575
13175TIP3   OH261015   2.826   2.201  14.493  0.2641 -0.1379  0.8943
13175TIP3    H161016   2.758   2.268  14.497  1.8196  1.5957  0.1716
13175TIP3    H261017   2.794   2.138  14.429 -0.3470  1.0383 -0.0014
13176TIP3   OH261018   4.096   1.443   5.471  0.4903 -0.1484  0.1347
13176TIP3    H161019   4.071   1.407   5.556 -1.0458  0.4802 -0.0256
13176TIP3    H261020   4.087   1.370   5.410  1.3150 -0.5228  0.4407
13177TIP3   OH261021   5.800   3.420  10.854  0.2049 -0.3235 -0.3593
13177TIP3    H161022   5.835   3.479  10.788 -0.9117 -1.3637 -1.9584
13177TIP3    H261023   5.723   3.466  10.889 -0.3820 -0.6075 -1.2538
13178TIP3   OH261024   5.661   2.750  11.061 -0.1947  0.9832  0.6259
13178TIP3    H161025   5.657   2.826  11.002 -0.1217  2.4460  2.3994
13178TIP3    H261026   5.715   2.780  11.135 -1.8463 -0.0743  2.3507
13179TIP3   OH261027   5.064   0.809   0.831 -0.0421  0.1614  0.4314
13179TIP3    H161028   5.135   0.874   0.833 -0.2391  0.3680  1.6932
13179TIP3    H261029   5.014   0.826   0.911 -0.7817 -0.8024  0.1907
13180TIP3   OH261030   1.660   0.550  16.853  0.3844  0.3093  0.1671
13180TIP3    H161031   1.639   0.558  16.760  0.3536 -0.6600  0.0761
13180TIP3    H261032   1.635   0.634  16.891 -0.5499  0.3580 -0.5220
13181TIP3   OH261033   1.319   1.940  13.568 -0.5722  0.3482  0.1964
13181TIP3    H161034   1.307   1.905  13.480  0.4936 -1.4312  0.7054
13181TIP3    H261035   1.393   2.000  13.560  1.9294 -2.4605  0.4186
13182TIP3   OH261036   4.980   2.754  11.462  0.4106 -0.1338  0.0170
13182TIP3    H161037   4.984   2.696  11.538  0.4988 -0.2761 -0.0951
13182TIP3    H261038   4.890   2.748  11.432  0.5166 -0.5247 -0.2331
13183TIP3   OH261039   6.195   2.801  14.877 -0.2385  0.1756 -0.1315
13183TIP3    H161040   6.133   2.850  14.930  1.2732  0.7955  1.1478
13183TIP3    H261041   6.190   2.842  14.790 -2.3068 -0.4601 -0.3597
13184TIP3   OH261042   5.381   6.520  11.782 -0.5271  0.0627 -0.7115
13184TIP3    H161043   5.376   6.428  11.809 -1.1859 -0.0507 -1.1879
13184TIP3    H261044   5.388   6.569  11.864 -1.5850 -0.3316 -0.3620
13185TIP3   OH261045   0.069   5.144   5.074 -0.4656 -0.4573 -0.1227
13185TIP3    H161046   0.003   5.213   5.069 -1.2363 -1.2028 -0.4727
13185TIP3    H261047   0.020   5.067   5.101  0.5833 -0.6204  1.4046
13186TIP3   OH261048   4.067   0.619  13.042 -0.2451 -0.2450 -0.4734
13186TIP3    H161049   4.106   0.622  12.955  1.0028  1.4207  0.0938
13186TIP3    H261050   4.122   0.557  13.090 -0.7185 -0.8927 -0.7516
13187TIP3   OH261051   4.847   2.512  15.954 -0.0321 -0.0804  0.0657
13187TIP3    H161052   4.794   2.515  15.875  2.4375 -0.1047 -1.6796
13187TIP3    H261053   4.851   2.419  15.977  1.1189 -0.3663 -1.1736
13188TIP3   OH261054   2.530   3.409  16.545  0.2618 -0.0092  0.0174
13188TIP3    H161055   2.522   3.399  16.640 -0.1248 -2.7355 -0.2227
13188TIP3    H261056   2.453   3.459  16.520 -0.3913 -0.4672  1.0171
13189TIP3   OH261057   3.775   2.074  16.347  0.5017 -0.2398  0.3805
13189TIP3    H161058   3.826   2.064  16.427  0.4180  0.6500  0.5537
13189TIP3    H261059   3.765   1.984  16.313  0.2170 -0.6677  1.5634
13190TIP3   OH261060   5.030   4.431   3.653  0.2141 -0.5173  0.4976
13190TIP3    H161061   5.020   4.515   3.609 -0.4925 -0.2631  1.1226
13190TIP3    H261062   4.945   4.388   3.642 -0.0813 -0.3291  1.8418
13191TIP3   OH261063   1.674   2.183   1.613  0.4717 -0.0822  0.7084
13191TIP3    H161064   1.763   2.170   1.647  1.0154 -0.4498 -0.7850
13191TIP3    H261065   1.668   2.277   1.595  1.1186 -0.2610 -0.5864
13192TIP3   OH261066   3.488   2.070  16.384 -0.1596 -0.4569 -0.2413
13192TIP3    H161067   3.490   2.008  16.457 -0.3544 -0.4655 -0.2436
13192TIP3    H261068   3.570   2.053  16.337 -0.5839 -1.2862 -0.7170
13193TIP3   OH261069   4.891   0.790  14.888 -0.3000  0.1783  0.2251
13193TIP3    H161070   4.878   0.803  14.794 -0.2623 -1.5158 -0.0438
13193TIP3    H261071   4.803   0.783  14.924 -0.3142  0.8013  0.3218
13194TIP3   OH261072   4.652   0.441  16.948  0.2676  0.1383  0.1149
13194TIP3    H161073   4.693   0.456  16.863 -1.8744 -1.6627 -1.3387
13194TIP3    H261074   4.578   0.383  16.930 -0.5244  0.0033  3.1642
13195TIP3   OH261075   2.707   2.643   4.015  0.1917  0.4959 -0.5850
13195TIP3    H161076   2.762   2.620   3.940 -1.6999 -1.2108 -1.5601
13195TIP3    H261077   2.676   2.559   4.048 -0.7872  1.3338  0.7343
13196TIP3   OH261078   1.488   3.859   2.737 -0.0662  0.3987 -0.7044
13196TIP3    H161079   1.514   3.789   2.797  1.3377  1.6022  0.1447
13196TIP3    H261080   1.403   3.889   2.770 -0.7066 -0.8915 -1.1033
13197TIP3   OH261081   2.820   3.270   3.379 -0.3313  0.3829  0.0551
13197TIP3    H161082   2.913   3.271   3.402 -0.1168 -0.0018 -0.7199
13197TIP3    H261083   2.785   3.351   3.415 -0.1673 -0.4490  2.1901
13198TIP3   OH261084   6.411   2.628  16.190 -0.3152  0.1795  0.1024
13198TIP3    H161085   6.420   2.671  16.275 -3.7279 -1.5528  1.5347
13198TIP3    H261086   6.494   2.644  16.146  2.5925 -0.7622  4.6062
13199TIP3   OH261087   0.908   0.244   2.212  0.3137  0.4478  0.0681
13199TIP3    H161088   0.836   0.224   2.152 -0.1017 -1.1394  1.0412
13199TIP3    H261089   0.867   0.249   2.299  1.2252  0.5353  0.5136
13200TIP3   OH261090   0.079   6.695   4.723 -0.2682 -0.1111  0.4716
13200TIP3    H161091   0.140   6.764   4.695  2.4157 -2.4450  0.1861
13200TIP3    H261092   0.050   6.722   4.810  1.9716  0.6241  1.0400
13201TIP3   OH261093   1.563   3.737  16.750 -0.2273 -0.1324  0.4754
13201TIP3    H161094   1.595   3.778  16.670  0.3921  0.9883  1.2654
13201TIP3    H261095   1.636   3.744  16.811  0.4894 -3.6995  0.2926
13202TIP3   OH261096   6.740   4.633   4.359  0.3398 -0.4253 -0.0343
13202TIP3    H161097   6.675   4.651   4.291  0.1461 -0.9006  0.0204
13202TIP3    H261098   6.823   4.628   4.312  0.0715 -1.8160 -0.4129
13203TIP3   OH261099   1.334   3.411   6.391 -0.1311 -0.5575 -0.0091
13203TIP3    H161100   1.281   3.457   6.457  1.5410 -0.2733  1.1851
13203TIP3    H261101   1.353   3.478   6.325 -2.0103 -0.9010 -0.9949
13204TIP3   OH261102   5.118   3.311  12.063 -0.2215 -0.0818 -0.8739
13204TIP3    H161103   5.166   3.324  12.145 -3.2274  1.7316  0.7837
13204TIP3    H261104   5.156   3.231  12.026  0.7193 -1.5280  2.7492
13205TIP3   OH261105   0.248   0.952  13.848 -0.1448  0.3173 -0.3678
13205TIP3    H161106   0.296   1.029  13.818  1.6744  0.3019  2.2282
13205TIP3    H261107   0.307   0.879  13.833  0.2173  0.1284  1.7480
13206TIP3   OH261108   5.643   5.778   4.355  0.0444 -0.1899 -0.5590
13206TIP3    H161109   5.701   5.800   4.428 -1.8047  0.4216  0.8115
13206TIP3    H261110   5.580   5.716   4.392 -0.0584 -0.9992 -2.0412
13207TIP3   OH261111   6.087   5.354  13.736  0.2047 -0.1111  0.2958
13207TIP3    H161112   5.993   5.350  13.754  0.1205  0.7357  0.0626
13207TIP3    H261113   6.128   5.324  13.817 -0.2477  0.2872  0.6786
13208TIP3   OH261114   3.088   4.320  12.192 -0.1944 -0.2538  0.6211
13208TIP3    H161115   3.051   4.408  12.190 -0.1306 -0.1894  1.6359
13208TIP3    H261116   3.066   4.282  12.107 -2.1136 -0.0112  0.9712
13209TIP3   OH261117   5.982   0.451   4.420 -0.4626 -0.4450 -0.2481
13209TIP3    H161118   5.948   0.430   4.333 -0.5360  1.4025 -0.7013
13209TIP3    H261119   6.075   0.470   4.406 -0.5297  0.1048  0.0176
13210TIP3   OH261120   6.330   6.144   5.126  0.1460  0.0088  0.5878
13210TIP3    H161121   6.253   6.186   5.088 -0.1264  0.2865  1.4340
13210TIP3    H261122   6.310   6.136   5.219  1.0295 -0.1577  0.7735
13211TIP3   OH261123   2.675   2.573  14.039  0.1921  0.1451 -0.0370
13211TIP3    H161124   2.627   2.628  14.102 -0.2997 -0.2044 -0.0978
13211TIP3    H261125   2.675   2.486  14.079  0.8779  0.1592  0.0092
13212TIP3   OH261126   5.174   5.918  14.338  0.1908  0.0949  0.2460
13212TIP3    H161127   5.227   5.860  14.283 -0.8872 -0.3886 -0.3044
13212TIP3    H261128   5.132   5.859  14.401 -0.8427  0.2725 -0.2558
13213TIP3   OH261129   4.726   0.714  12.085  0.5496  0.5692 -0.9647
13213TIP3    H161130   4.664   0.752  12.023 -0.7385 -0.5660 -0.4387
13213TIP3    H261131   4.711   0.762  12.166 -1.8145 -1.5211  0.0000
13214TIP3   OH261132   5.959   0.383   2.287 -0.6227 -0.5815  0.8511
13214TIP3    H161133   5.904   0.391   2.209 -1.0092  0.2628  1.2014
13214TIP3    H261134   5.904   0.414   2.359 -0.6210 -2.2868  1.6311
13215TIP3   OH261135   4.301   3.810   4.934 -0.3427 -0.3794  0.3176
13215TIP3    H161136   4.241   3.884   4.921 -0.3657 -0.6526 -1.3775
13215TIP3    H261137   4.348   3.831   5.014 -0.7872  1.1840  0.1982
13216TIP3   OH261138   6.761   2.089   3.165  0.5757  0.2763  0.6205
13216TIP3    H161139   6.829   2.108   3.230  1.4940 -0.1690 -0.1886
13216TIP3    H261140   6.801   2.023   3.108  0.0909  1.2529 -0.8878
13217TIP3   OH261141   0.049   4.794  17.178 -0.0627 -0.5159  0.2947
13217TIP3    H161142  -0.028   4.744  17.205  0.0226 -0.5490  0.4814
13217TIP3    H261143   0.033   4.883  17.209  0.3417 -0.7049  1.0757
13218TIP3   OH261144   6.351   0.141   1.802 -0.2708  0.2068  0.1587
13218TIP3    H161145   6.271   0.169   1.756  0.0741 -2.9570 -2.7676
13218TIP3    H261146   6.415   0.208   1.781 -0.8488  0.1881 -1.9413
13219TIP3   OH261147   1.290   4.251  15.755  0.4610 -0.0427  0.2261
13219TIP3    H161148   1.308   4.311  15.683 -0.8387  0.4425  0.2801
13219TIP3    H261149   1.350   4.279  15.825 -0.9869  2.0777  0.7076
13220TIP3   OH261150   4.363   4.231  14.939 -0.2032  0.5168  0.0658
13220TIP3    H161151   4.281   4.205  14.982 -0.6876  2.2195  0.2232
13220TIP3    H261152   4.335   4.262  14.853  0.1691  1.7827  0.3824
13221TIP3   OH261153   1.171   1.474  12.766 -0.1061 -0.0503 -0.2214
13221TIP3    H161154   1.212   1.481  12.852 -1.1123 -1.3561  0.3908
13221TIP3    H261155   1.230   1.417  12.716  0.2367  0.3314 -0.2611
13222TIP3   OH261156   3.894   3.670   3.117  0.0983  0.0145 -0.4334
13222TIP3    H161157   3.936   3.635   3.195  0.0360  0.1973 -0.3166
13222TIP3    H261158   3.882   3.595   3.060  0.0443 -0.1387 -0.2197
13223TIP3   OH261159   6.003   3.902  16.685  0.2028  0.1419 -0.4825
13223TIP3    H161160   5.993   3.861  16.599  1.1327  1.5622 -1.3156
13223TIP3    H261161   6.019   3.994  16.665 -0.4447  0.6734  1.2607
13224TIP3   OH261162   0.179   5.410   0.651 -0.2453 -0.2275  0.1973
13224TIP3    H161163   0.160   5.353   0.577  0.1528 -2.0022  1.4117
13224TIP3    H261164   0.098   5.412   0.701 -0.2211  0.2020  0.2245
13225TIP3   OH261165   2.360   1.213   1.747 -0.3642  0.8111  0.3259
13225TIP3    H161166   2.428   1.221   1.814  2.7828 -0.7356 -2.4186
13225TIP3    H261167   2.384   1.135   1.697 -3.3056  1.1159 -1.8182
13226TIP3   OH261168   2.017   3.875   2.643  0.6945 -0.2994  0.1843
13226TIP3    H161169   1.972   3.935   2.583 -0.9829 -0.5652  1.1217
13226TIP3    H261170   1.996   3.788   2.610  1.0992 -0.4247  0.2460
13227TIP3   OH261171   2.656   6.547   0.542 -0.2197  0.2537 -0.2459
13227TIP3    H161172   2.636   6.518   0.631  0.0724  0.8666  0.0173
13227TIP3    H261173   2.602   6.490   0.486  1.3840 -1.7775  0.1747
13228TIP3   OH261174   0.635   6.703  15.723 -0.7810 -0.3471 -0.5332
13228TIP3    H161175   0.711   6.659  15.685  0.7291  0.8610  0.9660
13228TIP3    H261176   0.564   6.683  15.662  0.8544 -0.9663 -2.3580
13229TIP3   OH261177   1.768   6.508  17.052 -0.1160 -0.1941  0.3809
13229TIP3    H161178   1.690   6.557  17.076 -1.5855 -1.7435 -1.0041
13229TIP3    H261179   1.841   6.561  17.086 -1.7253  1.3403  1.6193
13230TIP3   OH261180   6.019   3.260   0.207  0.1455  0.1049  0.2901
13230TIP3    H161181   6.089   3.324   0.216  0.7330 -0.4438 -0.2600
13230TIP3    H261182   6.025   3.207   0.287  0.9912 -0.5375 -0.1786
13231TIP3   OH261183   0.431   6.748  15.253  0.7381  0.3411 -0.7489
13231TIP3    H161184   0.399   6.695  15.326  0.7041  1.2851 -0.0657
13231TIP3    H261185   0.359   6.747  15.190  1.5278 -2.1681 -1.7275
13232TIP3   OH261186   4.302   2.702  16.924 -0.2150 -0.5397 -0.5128
13232TIP3    H161187   4.339   2.782  16.962  1.3663 -2.0308  1.2758
13232TIP3    H261188   4.220   2.690  16.970 -0.9171  0.4785 -1.4315
13233TIP3   OH261189   5.909   5.698   6.523 -0.0598 -0.0343 -0.3508
13233TIP3    H161190   5.984   5.638   6.531 -0.5174 -0.6965 -0.9565
13233TIP3    H261191   5.900   5.712   6.429 -2.2147 -1.9426 -0.5110
13234TIP3   OH261192   2.600   4.468  12.684  0.0025 -0.2483 -0.3323
13234TIP3    H161193   2.542   4.511  12.748 -1.7215 -0.5726 -1.6152
13234TIP3    H261194   2.585   4.375  12.698  0.3231 -0.3360 -0.5828
13235TIP3   OH261195   4.000   1.847  13.408 -0.2370  0.0130 -0.0854
13235TIP3    H161196   4.030   1.814  13.493  0.0793  1.1882  0.2717
13235TIP3    H261197   3.961   1.770  13.365  1.2303 -1.0298  0.3609
13236TIP3   OH261198   3.577   5.394   5.607 -0.1560  0.2691  0.1962
13236TIP3    H161199   3.573   5.327   5.538 -0.5951 -0.3229  0.7840
13236TIP3    H261200   3.576   5.477   5.559 -0.9738 -0.1221 -0.5106
13237TIP3   OH261201   1.274   5.835  16.344 -0.1080  0.1555  0.3118
13237TIP3    H161202   1.203   5.777  16.315  0.7024 -0.8312  0.2635
13237TIP3    H261203   1.306   5.875  16.264 -1.1533  1.2632  0.4226
13238TIP3   OH261204   1.085   0.359   4.810  0.3032 -0.2005 -0.4457
13238TIP3    H161205   0.996   0.372   4.779  0.2303 -0.0190 -0.1624
13238TIP3    H261206   1.137   0.420   4.757  0.3672 -0.8071 -1.1050
13239TIP3   OH261207   2.347   3.664   1.429 -0.7398 -0.0157 -0.1451
13239TIP3    H161208   2.377   3.705   1.348 -0.2836  3.3591  1.5911
13239TIP3    H261209   2.255   3.690   1.436 -1.1841 -1.4760 -0.2022
13240TIP3   OH261210   1.439   2.541  13.665 -0.3976  0.0883 -0.3892
13240TIP3    H161211   1.499   2.613  13.684 -0.5720 -0.2631  1.7269
13240TIP3    H261212   1.356   2.583  13.643 -0.1927  0.5395 -0.3011
13241TIP3   OH261213   1.799   1.721   2.390 -0.4237  0.2342  0.2165
13241TIP3    H161214   1.880   1.724   2.339 -0.7997 -0.0291 -0.4133
13241TIP3    H261215   1.729   1.730   2.325 -1.0210 -2.5684  0.3044
13242TIP3   OH261216   2.079   6.409   4.458 -0.0715 -0.1446 -0.3642
13242TIP3    H161217   2.071   6.461   4.538  0.0640  0.2129 -0.5770
13242TIP3    H261218   1.990   6.379   4.439 -0.1434 -0.0231 -0.2190
13243TIP3   OH261219   4.367   5.303  12.323  0.2667  0.8608 -0.1154
13243TIP3    H161220   4.318   5.245  12.381  1.6233 -0.6756 -0.4506
13243TIP3    H261221   4.458   5.277  12.334  0.8583  2.5413 -0.7369
13244TIP3   OH261222   2.547   3.270   6.064  0.3677  0.1792 -0.5662
13244TIP3    H161223   2.465   3.319   6.063  0.9778  1.2862  0.5053
13244TIP3    H261224   2.538   3.210   6.139  0.7840  0.7707 -0.0350
13245TIP3   OH261225   2.519   3.783   0.720 -0.5499  0.0625  0.3518
13245TIP3    H161226   2.525   3.709   0.660 -1.8259  1.5538 -1.7685
13245TIP3    H261227   2.460   3.845   0.676  0.4533  2.3388  1.9852
13246TIP3   OH261228   1.672   6.809  17.035 -0.0438 -0.3322 -0.1808
13246TIP3    H161229   1.658   6.867  17.110 -1.1406 -1.8096  0.7893
13246TIP3    H261230   1.595   6.753  17.032  0.8221 -1.5329 -1.2914
13247TIP3   OH261231   1.067   1.527  10.850 -0.0989  0.4948  0.5526
13247TIP3    H161232   0.976   1.510  10.876  0.5262 -0.1844  2.4923
13247TIP3    H261233   1.079   1.476  10.771 -1.7862  1.7080 -0.5683
13248TIP3   OH261234   5.529   3.162   4.997 -0.1049  0.2982  0.0102
13248TIP3    H161235   5.505   3.162   4.904 -0.6132  1.5223  0.1162
13248TIP3    H261236   5.474   3.095   5.036  0.6841 -0.7986 -0.6899
13249TIP3   OH261237   3.484   5.421   1.078  0.0288 -0.1077 -0.4315
13249TIP3    H161238   3.391   5.399   1.076  0.1073 -0.7256  1.0896
13249TIP3    H261239   3.486   5.516   1.089 -0.4645 -0.1882  0.5295
13250TIP3   OH261240   3.685   6.790  16.498 -0.7422 -0.1398  0.0663
13250TIP3    H161241   3.680   6.777  16.404  2.5972  0.3560 -0.2892
13250TIP3    H261242   3.700   6.884  16.509  1.2826 -0.4900  0.8478
13251TIP3   OH261243   5.796   3.452   4.508 -0.1702  0.5118 -0.1865
13251TIP3    H161244   5.844   3.406   4.440 -0.0307  0.4386 -0.0406
13251TIP3    H261245   5.764   3.531   4.466  0.0606  0.5500 -0.2921
13252TIP3   OH261246   5.306   0.450   3.991 -0.0618  0.4292  0.2501
13252TIP3    H161247   5.236   0.511   3.969 -1.0132  0.6970  3.4895
13252TIP3    H261248   5.383   0.505   4.004  0.4417  0.2936 -1.8397
13253TIP3   OH261249   0.262   6.347  12.585  0.1435  0.2833 -0.2813
13253TIP3    H161250   0.342   6.398  12.578  0.0035  0.4573 -0.6336
13253TIP3    H261251   0.195   6.410  12.613 -0.3830  0.6633 -2.2649
13254TIP3   OH261252   0.622   5.042  15.080 -0.0854 -0.2393  0.6215
13254TIP3    H161253   0.611   5.014  14.989  1.5353  1.2804 -0.0897
13254TIP3    H261254   0.667   4.969  15.122  2.5133  0.4332 -0.7698
13255TIP3   OH261255   0.773   5.780  14.967  0.1142  0.5176  0.0431
13255TIP3    H161256   0.858   5.800  15.006  0.5892 -2.9551  1.0776
13255TIP3    H261257   0.713   5.842  15.009  1.7433  1.5269  1.0036
13256TIP3   OH261258   6.657   4.800  15.074  0.0980 -0.0365  0.0025
13256TIP3    H161259   6.726   4.860  15.100 -0.8395  2.2758 -2.3342
13256TIP3    H261260   6.583   4.822  15.131  0.1123  0.2084 -0.0738
13257TIP3   OH261261   2.862   4.285   4.026 -0.2038  0.7433 -0.7365
13257TIP3    H161262   2.865   4.263   4.120 -1.9905  0.3628 -0.7272
13257TIP3    H261263   2.793   4.228   3.991  0.0962  1.2467 -2.1838
13258TIP3   OH261264   3.831   1.940  16.954  0.6912 -0.0089  0.1078
13258TIP3    H161265   3.832   1.864  16.897  0.9861  0.9008 -1.1400
13258TIP3    H261266   3.899   1.998  16.919 -0.8824  1.7232 -0.2559
13259TIP3   OH261267   6.614   0.117  17.129  0.2211 -0.6433 -0.7825
13259TIP3    H161268   6.545   0.106  17.063  0.0720 -1.4114 -0.5129
13259TIP3    H261269   6.583   0.187  17.186 -0.1693 -0.7462 -0.8704
13260TIP3   OH261270   4.930   0.466   4.611 -0.4867 -0.4319 -0.4342
13260TIP3    H161271   4.854   0.523   4.622 -1.1293 -1.4176  0.4152
13260TIP3    H261272   5.004   0.519   4.639 -0.9184  0.3635 -0.7530
13261TIP3   OH261273   0.471   5.613   1.347  0.3254 -0.8374 -0.0342
13261TIP3    H161274   0.517   5.542   1.391  1.5198  0.9286  1.7280
13261TIP3    H261275   0.389   5.623   1.395 -0.4974 -1.8649 -1.1543
13262TIP3   OH261276   1.008   0.724   6.164 -0.6949 -0.3584  0.2682
13262TIP3    H161277   0.964   0.809   6.177 -0.0347 -0.0373  0.4515
13262TIP3    H261278   0.974   0.669   6.235 -0.0351  0.2044  1.0407
13263TIP3   OH261279   0.473   2.348   4.046  0.3766  0.2989 -0.3778
13263TIP3    H161280   0.561   2.368   4.075 -0.2478  1.1139  1.0587
13263TIP3    H261281   0.478   2.346   3.950  2.2514 -1.2208 -0.2952
13264TIP3   OH261282   0.654   3.926   1.668  0.2280  0.2090 -0.3410
13264TIP3    H161283   0.696   3.951   1.751 -0.2095 -0.1916  0.0112
13264TIP3    H261284   0.616   4.007   1.634  1.0402  0.5232 -0.5245
13265TIP3   OH261285   1.558   0.101   3.796 -0.3820  0.3340  0.1675
13265TIP3    H161286   1.538   0.131   3.707  1.3131  0.7166 -0.1120
13265TIP3    H261287   1.495   0.030   3.811 -1.2588  0.8181 -1.0007
13266TIP3   OH261288   3.520   4.233   6.218  0.2607 -0.0492  0.1963
13266TIP3    H161289   3.597   4.245   6.162 -0.7387  0.9238 -1.0443
13266TIP3    H261290   3.459   4.302   6.190 -0.3429  0.3962  2.4472
13267TIP3   OH261291   3.700   4.642   4.488 -0.1674 -0.5614 -0.2578
13267TIP3    H161292   3.787   4.660   4.452 -0.4267 -1.7288 -1.5621
13267TIP3    H261293   3.674   4.723   4.531  0.9294  0.3160 -1.1909
13268TIP3   OH261294   5.592   0.102   5.489  0.1249  0.0996 -0.1863
13268TIP3    H161295   5.656   0.066   5.428  1.1097  0.7528  0.4097
13268TIP3    H261296   5.614   0.196   5.493 -0.7957  0.3122  0.1321
13269TIP3   OH261297   2.008   3.113   3.781 -0.0255  0.2162  0.0525
13269TIP3    H161298   1.978   3.024   3.798  2.0578 -0.5276  0.1182
13269TIP3    H261299   2.083   3.125   3.839  0.2595  1.7088 -0.5720
13270TIP3   OH261300   1.217   3.158   0.307 -0.0364  0.4584 -0.2413
13270TIP3    H161301   1.278   3.123   0.372 -0.1562  0.4612 -0.1252
13270TIP3    H261302   1.231   3.105   0.229  0.3442  0.6704 -0.3213
13271TIP3   OH261303   6.599   6.333  16.348 -0.2436  0.4869 -0.2091
13271TIP3    H161304   6.675   6.332  16.290 -1.7695  3.1402 -2.5123
13271TIP3    H261305   6.615   6.405  16.408 -0.0342 -0.3079  0.7098
13272TIP3   OH261306   1.283   0.308  12.388 -0.0199 -0.4010 -0.4649
13272TIP3    H161307   1.235   0.389  12.373 -1.2738 -0.6884  1.5191
13272TIP3    H261308   1.285   0.264  12.303 -2.5250  0.0605 -0.8341
13273TIP3   OH261309   5.167   0.412   3.709  0.1449 -0.2727 -0.0528
13273TIP3    H161310   5.226   0.446   3.641  1.1820 -0.1887  0.8546
13273TIP3    H261311   5.225   0.388   3.781 -0.8064 -1.5908  0.3180
13274TIP3   OH261312   4.692   1.368   2.532  0.1862 -0.4975 -0.1306
13274TIP3    H161313   4.696   1.399   2.622  3.0008 -1.2773  0.1069
13274TIP3    H261314   4.698   1.447   2.478 -0.4156 -0.1122  0.3594
13275TIP3   OH261315   4.388   2.743   0.629  0.0475  0.3635  0.4316
13275TIP3    H161316   4.339   2.767   0.708 -1.1843  2.3590 -0.8374
13275TIP3    H261317   4.330   2.683   0.582  0.9336 -1.1133  1.1666
13276TIP3   OH261318   1.406   3.899  13.212  0.0881 -0.2068 -0.0121
13276TIP3    H161319   1.500   3.914  13.225  0.0760 -0.0639 -0.0933
13276TIP3    H261320   1.364   3.968  13.264  0.0376  0.4521 -0.9149
13277TIP3   OH261321   4.616   3.305  13.208 -0.4638 -0.6531 -0.0455
13277TIP3    H161322   4.574   3.384  13.173  0.5076 -0.7388 -1.4671
13277TIP3    H261323   4.700   3.335  13.242 -0.5059 -0.9150  0.2946
13278TIP3   OH261324   0.644   4.119  16.500  0.1355 -0.0428 -0.2090
13278TIP3    H161325   0.652   4.169  16.418  0.1129  0.6358  0.1979
13278TIP3    H261326   0.577   4.166  16.550  0.3103 -0.3276  0.2952
13279TIP3   OH261327   5.940   4.784  16.336 -0.2413 -0.1221  0.2702
13279TIP3    H161328   5.888   4.810  16.260  0.5980 -1.4918 -0.8212
13279TIP3    H261329   5.892   4.710  16.374  0.2774 -0.6138 -0.0228
13280TIP3   OH261330   0.558   2.409  17.000 -0.2020  0.1780 -0.4805
13280TIP3    H161331   0.601   2.387  17.083  0.0380  0.4228 -0.5381
13280TIP3    H261332   0.599   2.490  16.972  0.3173 -0.3381 -1.2639
13281TIP3   OH261333   6.106   2.754   0.777  0.4435 -0.3095  0.2265
13281TIP3    H161334   6.163   2.828   0.801  0.0325 -0.1602  0.7483
13281TIP3    H261335   6.167   2.681   0.763  0.7129 -0.3690  1.5955
13282TIP3   OH261336   5.354   1.415   2.337  0.4445  0.3128  0.2631
13282TIP3    H161337   5.427   1.368   2.297  0.7134  0.4101  0.6409
13282TIP3    H261338   5.376   1.507   2.328 -1.6726  0.6471 -3.6430
13283TIP3   OH261339   3.980   1.154   4.464  0.8175 -0.3994 -0.1617
13283TIP3    H161340   4.036   1.218   4.420  1.3998 -2.3052 -2.3990
13283TIP3    H261341   4.033   1.075   4.467 -0.0757 -0.9765  2.0402
13284TIP3   OH261342   6.079   5.897   2.696  0.0271 -0.3484 -0.1920
13284TIP3    H161343   6.150   5.952   2.662  0.9331 -1.7133 -0.5833
13284TIP3    H261344   6.087   5.905   2.792 -1.3932  2.0677 -0.1993
13285TIP3   OH261345   6.362   6.098   5.453 -0.4116 -0.2998  0.3759
13285TIP3    H161346   6.302   6.040   5.501 -1.4418  1.9778  2.0326
13285TIP3    H261347   6.319   6.183   5.455  2.1205  1.0752  0.1380
13286TIP3   OH261348   3.805   1.376  12.084 -0.1701 -0.0256  0.3025
13286TIP3    H161349   3.856   1.315  12.031  0.1037 -0.2139  0.7773
13286TIP3    H261350   3.838   1.463  12.060  0.5194 -0.1579  0.7611
13287TIP3   OH261351   1.762   4.862  11.550 -0.4259 -0.1387  0.4755
13287TIP3    H161352   1.776   4.945  11.504  0.1076  0.0447  0.9419
13287TIP3    H261353   1.823   4.866  11.624 -1.4684 -0.2928  1.3657
13288TIP3   OH261354   6.721   5.960   3.286 -0.7034 -0.1581 -0.0162
13288TIP3    H161355   6.721   5.907   3.206 -1.6269  1.4738 -1.1576
13288TIP3    H261356   6.812   5.965   3.313 -0.5813 -2.2968  0.1533
13289TIP3   OH261357   2.947   0.618  14.364  0.5842 -0.4032  0.6003
13289TIP3    H161358   2.932   0.523  14.364  0.8476 -0.4455  0.3903
13289TIP3    H261359   2.859   0.655  14.357  0.5898 -0.6763 -1.8416
13290TIP3   OH261360   4.286   1.900  15.733 -0.8228 -0.3598  0.1055
13290TIP3    H161361   4.258   1.814  15.766 -1.1180  0.0470  0.9594
13290TIP3    H261362   4.377   1.908  15.761 -0.8478 -0.3211  0.1753
13291TIP3   OH261363   6.022   4.717  10.912 -0.1119 -0.2175  0.4714
13291TIP3    H161364   6.020   4.640  10.856  0.4603 -0.2602  0.5078
13291TIP3    H261365   5.967   4.693  10.987 -2.8670  0.6789 -1.0999
13292TIP3   OH261366   6.117   2.473  14.919 -0.2727 -0.0123  0.2444
13292TIP3    H161367   6.091   2.454  14.829 -0.2228  0.6905  0.0786
13292TIP3    H261368   6.099   2.567  14.930 -0.4508 -0.1305  1.0202
13293TIP3   OH261369   5.194   6.118   4.597 -0.3006  0.3427 -0.2702
13293TIP3    H161370   5.125   6.183   4.583  0.4743  1.5633  1.3243
13293TIP3    H261371   5.167   6.043   4.544 -3.0855  0.6068  0.6151
13294TIP3   OH261372   0.287   0.078   6.082  0.2130  0.0151  0.0314
13294TIP3    H161373   0.379   0.069   6.108  0.1515 -1.2909 -0.0959
13294TIP3    H261374   0.240   0.086   6.165  0.2894 -1.1932  0.2157
13295TIP3   OH261375   0.703   5.974   6.005 -0.1234 -0.1231  0.2314
13295TIP3    H161376   0.698   6.037   5.934  0.8551  0.0355  0.2940
13295TIP3    H261377   0.755   6.017   6.073 -1.0422 -0.2731  1.0525
13296TIP3   OH261378   3.457   2.628  10.917 -0.0044  0.2490  0.9982
13296TIP3    H161379   3.469   2.700  10.855 -0.0771 -0.3015  0.3382
13296TIP3    H261380   3.467   2.549  10.864  1.2411 -0.2448  1.9258
13297TIP3   OH261381   2.040   3.566   3.505  0.0855  0.3186 -0.1659
13297TIP3    H161382   1.975   3.538   3.441  0.8132 -0.4488 -0.5818
13297TIP3    H261383   2.086   3.486   3.530  0.7981  0.8356  0.2111
13298TIP3   OH261384   0.749   5.817  11.370  0.0505 -0.2762 -0.1385
13298TIP3    H161385   0.678   5.827  11.305  0.5919 -0.2787 -0.7419
13298TIP3    H261386   0.804   5.748  11.333  0.1398 -0.5672  0.5397
13299TIP3   OH261387   6.805   6.328  16.148 -0.5730  0.1716 -0.4577
13299TIP3    H161388   6.783   6.407  16.100 -0.5337  0.3477 -0.1922
13299TIP3    H261389   6.807   6.259  16.082 -0.4971  0.4116 -0.7106
13300TIP3   OH261390   3.239   5.832   3.801  0.1041  0.2170 -0.3749
13300TIP3    H161391   3.228   5.852   3.708  3.1084  0.4423 -0.7853
13300TIP3    H261392   3.301   5.759   3.802  0.5311  0.5659  1.4663
13301TIP3   OH261393   1.445   5.134  15.352  0.2227  0.2132  0.1888
13301TIP3    H161394   1.475   5.058  15.402 -0.0276  0.4754  0.7535
13301TIP3    H261395   1.365   5.105  15.309 -0.6716  0.5745  1.5602
13302TIP3   OH261396   6.454   2.991  16.294  0.3281  0.5772 -0.1262
13302TIP3    H161397   6.538   3.033  16.279 -1.3651  4.1681 -0.4977
13302TIP3    H261398   6.410   2.993  16.208 -0.6925  0.0474  0.3592
13303TIP3   OH261399   5.925   4.932   1.511 -0.3417 -0.1479 -0.3397
13303TIP3    H161400   5.859   4.870   1.482  0.8658 -2.4138  1.4962
13303TIP3    H261401   5.882   4.984   1.579 -0.2067 -1.8743  1.1302
13304TIP3   OH261402   4.434   0.015   4.368 -0.2726  0.7837  0.2588
13304TIP3    H161403   4.349   0.027   4.327  0.1415 -1.8445 -1.6496
13304TIP3    H261404   4.496   0.020   4.295  0.9650  0.2137  1.2303
13305TIP3   OH261405   2.366   0.346   3.366 -0.2355 -0.0613  0.1376
13305TIP3    H161406   2.279   0.316   3.394  0.3707 -2.6854 -0.5485
13305TIP3    H261407   2.385   0.295   3.287  2.2639 -0.1380  0.7159
13306TIP3   OH261408   5.086   6.750   1.377 -0.1738 -0.0770  0.4388
13306TIP3    H161409   5.113   6.670   1.421 -0.7023 -0.2628  0.4311
13306TIP3    H261410   5.104   6.819   1.441  0.8365 -0.1230  0.2229
13307TIP3   OH261411   2.484   6.235  11.483  0.0862 -0.2933  1.0356
13307TIP3    H161412   2.420   6.211  11.550 -1.1008 -1.0882 -0.3282
13307TIP3    H261413   2.432   6.272  11.411  1.2957  0.3530  0.4518
13308TIP3   OH261414   5.275   0.025   4.247  0.2076 -1.0462 -0.0904
13308TIP3    H161415   5.199  -0.033   4.247 -0.5779 -0.0528 -0.2204
13308TIP3    H261416   5.315   0.010   4.161 -0.0905 -1.2749 -0.1950
13309TIP3   OH261417   4.912   0.067   2.125  0.0716  0.0782  0.4935
13309TIP3    H161418   4.830   0.018   2.134  0.5031 -0.4203  2.0259
13309TIP3    H261419   4.890   0.155   2.155 -0.2759  0.3758 -0.6022
13310TIP3   OH261420   3.798   4.166  14.834 -0.4409  0.1829 -0.1939
13310TIP3    H161421   3.838   4.112  14.766 -0.2908  0.2946 -0.1932
13310TIP3    H261422   3.713   4.191  14.798  0.2603  1.5252 -0.9956
13311TIP3   OH261423   1.484   2.202   5.852  0.0584  0.7350 -0.0074
13311TIP3    H161424   1.466   2.273   5.913 -2.5022 -0.8394  1.2678
13311TIP3    H261425   1.553   2.151   5.894 -0.4623  0.6416  0.7619
13312TIP3   OH261426   4.198   1.408   0.513  0.7478  0.0659 -0.2327
13312TIP3    H161427   4.219   1.397   0.421 -1.0562 -0.7517 -0.5734
13312TIP3    H261428   4.166   1.323   0.542  1.6265  0.1967  1.2720
13313TIP3   OH261429   4.078   0.972   1.507 -0.1119 -0.0828  0.0431
13313TIP3    H161430   4.085   0.951   1.414  1.2104  0.9315 -0.1035
13313TIP3    H261431   4.167   0.962   1.541 -0.0322  2.1331  0.6198
13314TIP3   OH261432   5.436   5.113  10.852 -0.2908 -0.3806 -0.3155
13314TIP3    H161433   5.408   5.139  10.764 -2.0720 -0.0768  0.3021
13314TIP3    H261434   5.494   5.184  10.880 -3.0979  1.8024  0.3617
13315TIP3   OH261435   4.758   6.430  13.103 -0.4171 -0.3869  0.0108
13315TIP3    H161436   4.669   6.440  13.068 -0.5709 -1.1903  0.1538
13315TIP3    H261437   4.809   6.497  13.058 -1.1203  0.1639  0.0140
13316TIP3   OH261438   4.809   5.526  14.361  0.5192  0.4882  0.0266
13316TIP3    H161439   4.797   5.466  14.287 -0.9137  1.0387 -0.2230
13316TIP3    H261440   4.726   5.573  14.368  1.2121  1.6526  0.9322
13317TIP3   OH261441   6.382   2.462  14.995  0.2194 -0.1140  0.1975
13317TIP3    H161442   6.411   2.546  14.957  0.4837 -0.8291 -1.2605
13317TIP3    H261443   6.287   2.462  14.982  0.1128  0.2864  0.9163
13318TIP3   OH261444   0.081   6.802  10.931  0.5668 -0.6736 -0.0555
13318TIP3    H161445   0.080   6.889  10.890  0.2224 -1.1969 -1.2002
13318TIP3    H261446  -0.009   6.772  10.926  0.6433 -1.0165  0.5409
13319TIP3   OH261447   3.586   3.091  14.550  0.2105 -0.0449 -0.3262
13319TIP3    H161448   3.585   3.010  14.601 -0.9097 -0.0676 -0.3559
13319TIP3    H261449   3.625   3.066  14.466  0.4976 -0.3910 -0.0937
13320TIP3   OH261450   3.356   2.688   4.431 -0.0983  0.0351 -0.1784
13320TIP3    H161451   3.416   2.682   4.505 -2.3233 -2.2447  1.5910
13320TIP3    H261452   3.323   2.778   4.434  0.2789  0.1496  1.2427
13321TIP3   OH261453   0.894   1.227  12.352  0.5744 -0.2812 -0.2361
13321TIP3    H161454   0.911   1.171  12.277  0.6575  0.9446 -1.1790
13321TIP3    H261455   0.804   1.208  12.378 -0.1677  0.6535 -1.9260
13322TIP3   OH261456   2.475   4.727   4.416  0.0386  0.3721 -0.1057
13322TIP3    H161457   2.416   4.698   4.485 -0.4335 -0.6391 -0.8970
13322TIP3    H261458   2.556   4.677   4.431 -1.0989 -2.3194 -2.0464
13323TIP3   OH261459   5.329   0.090   5.570 -0.6481 -0.3989 -0.1597
13323TIP3    H161460   5.412   0.114   5.530  0.3539  0.9517  2.4850
13323TIP3    H261461   5.277   0.171   5.567 -0.4232 -0.1700  1.4639
13324TIP3   OH261462   3.865   4.626  15.366  0.2791 -0.4616 -0.0157
13324TIP3    H161463   3.909   4.706  15.338 -1.1443  0.8239  1.2802
13324TIP3    H261464   3.934   4.576  15.411  0.6655  1.1600  1.3116
13325TIP3   OH261465   5.427   4.635  12.434 -0.3096 -0.1549  0.2987
13325TIP3    H161466   5.387   4.640  12.347 -1.5832 -0.6257  0.8293
13325TIP3    H261467   5.367   4.683  12.490  1.1190  1.1882  0.7338
13326TIP3   OH261468   3.644   6.707   1.680  0.5112  0.2439  0.5205
13326TIP3    H161469   3.559   6.694   1.722  0.1907  0.6241 -0.0131
13326TIP3    H261470   3.674   6.791   1.713  0.2925  0.5089  0.0483
13327TIP3   OH261471   3.195   6.361   6.493  0.4585  0.3015  0.1566
13327TIP3    H161472   3.178   6.412   6.572  0.1403  0.5688 -0.0799
13327TIP3    H261473   3.268   6.304   6.515  0.3953  0.4062  0.6307
13328TIP3   OH261474   1.067   6.480   3.681  0.3074 -0.2227  0.3545
13328TIP3    H161475   1.021   6.509   3.760 -1.5909 -0.5865 -0.5681
13328TIP3    H261476   1.155   6.518   3.689  0.1691 -0.2512  2.6180
13329TIP3   OH261477   2.514   2.653   1.507 -0.0809  0.0982 -0.0550
13329TIP3    H161478   2.420   2.667   1.519 -0.7938 -3.5248 -0.1072
13329TIP3    H261479   2.539   2.600   1.583  1.6716  0.0209 -0.6528
13330TIP3   OH261480   4.505   6.602   4.169  0.4034  0.1867  0.4071
13330TIP3    H161481   4.520   6.518   4.126 -0.0255  0.7739 -0.9560
13330TIP3    H261482   4.489   6.580   4.261  1.6091 -1.0967  0.3452
13331TIP3   OH261483   6.669   4.137   3.604 -0.2457 -0.3961  0.1991
13331TIP3    H161484   6.759   4.156   3.578 -1.1457  0.3016 -2.9589
13331TIP3    H261485   6.653   4.193   3.680  1.4900  0.7186 -0.2104
13332TIP3   OH261486   0.070   5.686  13.990  0.0928 -0.0357  0.2060
13332TIP3    H161487   0.130   5.667  14.062  1.1736 -0.5737 -0.7882
13332TIP3    H261488   0.113   5.756  13.941  0.5463 -1.2463 -1.1990
13333TIP3   OH261489   1.576   2.792   0.366  0.0421 -0.4140  0.2728
13333TIP3    H161490   1.556   2.704   0.397 -2.3457  0.2251  0.7614
13333TIP3    H261491   1.587   2.782   0.271 -0.9505 -1.1536  0.2177
13334TIP3   OH261492   3.130   4.327   1.852 -0.3912  0.1580  0.0962
13334TIP3    H161493   3.080   4.333   1.933  1.0430 -1.1418  1.1341
13334TIP3    H261494   3.066   4.298   1.787 -1.0214 -1.5971  1.3991
13335TIP3   OH261495   5.692   1.936   5.178  0.2474  0.4045 -0.0915
13335TIP3    H161496   5.685   2.021   5.222 -1.1331  0.8122 -1.0565
13335TIP3    H261497   5.714   1.958   5.087 -0.4362 -0.2511 -0.4160
13336TIP3   OH261498   6.310   6.659   0.755 -0.7156 -0.3440  0.0885
13336TIP3    H161499   6.328   6.745   0.718 -0.3623 -0.6374 -0.4335
13336TIP3    H261500   6.330   6.598   0.684  1.3293 -1.0253  1.1836
13337TIP3   OH261501   4.043   1.366  10.959  0.2643 -0.3366 -0.2617
13337TIP3    H161502   4.135   1.355  10.935  0.6849  0.2712  1.0091
13337TIP3    H261503   4.034   1.459  10.977  0.1783 -0.8205  2.6164
13338TIP3   OH261504   4.401   0.691  16.157 -0.8712  0.2745  0.1898
13338TIP3    H161505   4.465   0.643  16.210 -2.6546  1.0112  3.2336
13338TIP3    H261506   4.435   0.685  16.068  2.2592 -1.1914  1.3318
13339TIP3   OH261507   5.366   6.144  15.665  0.3533 -0.0139 -0.3242
13339TIP3    H161508   5.287   6.182  15.627  0.8343  0.0488 -1.3164
13339TIP3    H261509   5.424   6.219  15.679 -0.1002  0.0575  1.2943
13340TIP3   OH261510   1.525   5.283  16.037  0.0548  0.5573 -0.0159
13340TIP3    H161511   1.580   5.349  16.080  0.0922 -0.4505  1.5185
13340TIP3    H261512   1.445   5.330  16.014  0.8594  1.6212 -0.7507
13341TIP3   OH261513   6.770   4.861  14.077  0.2185  0.7604 -0.2758
13341TIP3    H161514   6.757   4.951  14.107 -0.5510  0.8867 -0.9528
13341TIP3    H261515   6.731   4.807  14.146  1.4886  0.8897  0.5736
13342TIP3   OH261516   3.723   2.333   6.814  0.7926  0.1603 -0.5381
13342TIP3    H161517   3.736   2.268   6.882  1.7911 -0.1172 -0.9798
13342TIP3    H261518   3.745   2.416   6.855  0.3604  0.1239 -0.2261
13343TIP3   OH261519   4.967   3.154  16.541  0.2541 -0.2618 -0.7569
13343TIP3    H161520   4.898   3.091  16.561  0.5683 -1.2788 -2.6573
13343TIP3    H261521   5.021   3.111  16.474  2.1110  0.9338 -0.1166
13344TIP3   OH261522   0.409   1.663  15.004  0.0372  0.2530  0.3691
13344TIP3    H161523   0.349   1.682  15.076  0.6545  1.1618  0.6680
13344TIP3    H261524   0.356   1.673  14.925  0.0056  2.0123  0.5851
13345TIP3   OH261525   4.087   3.541   3.587  0.1799 -0.6552 -0.0955
13345TIP3    H161526   4.129   3.627   3.587  0.1181 -0.6135  0.9623
13345TIP3    H261527   4.067   3.523   3.679  0.0980 -1.7556 -0.3040
13346TIP3   OH261528   3.508   5.273  15.956 -0.0723  0.0483 -0.1237
13346TIP3    H161529   3.485   5.296  15.866 -2.1310 -0.1804  0.3016
13346TIP3    H261530   3.561   5.194  15.947 -0.1166  0.1118 -1.1335
13347TIP3   OH261531   4.974   1.977  16.496  0.0654 -0.3248 -0.5583
13347TIP3    H161532   5.056   1.989  16.543 -0.1699 -0.0626 -0.2143
13347TIP3    H261533   4.906   1.994  16.561 -0.2614  0.1505 -1.0116
13348TIP3   OH261534   0.670   1.167  15.208 -0.5824 -0.9969 -0.0602
13348TIP3    H161535   0.760   1.151  15.180 -0.4627  0.6310 -0.7129
13348TIP3    H261536   0.619   1.097  15.167  0.2094 -1.1711 -0.7627
13349TIP3   OH261537   6.541   6.063   6.068  0.4007 -0.2773 -0.5022
13349TIP3    H161538   6.561   6.044   6.159 -0.1422 -0.4690 -0.4172
13349TIP3    H261539   6.461   6.116   6.071  1.2286  1.0182 -0.7968
13350TIP3   OH261540   3.297   6.118   5.242 -0.3518 -0.4256  0.2099
13350TIP3    H161541   3.351   6.189   5.275 -0.1052  0.5077 -2.0558
13350TIP3    H261542   3.354   6.041   5.243  0.6712  0.2960 -1.0547
13351TIP3   OH261543   2.711   0.331  13.904 -0.1823  0.3922  0.4484
13351TIP3    H161544   2.777   0.399  13.913 -0.6259  0.6715  1.7068
13351TIP3    H261545   2.628   0.379  13.893 -0.1263  0.0714 -2.2096
13352TIP3   OH261546   3.479   4.799   1.598 -0.2866 -0.6222 -0.4075
13352TIP3    H161547   3.553   4.769   1.650  0.4851 -0.3196 -1.3211
13352TIP3    H261548   3.413   4.825   1.663  1.0550  0.7861  0.4381
13353TIP3   OH261549   2.089   5.530   4.781  0.5425  0.2029  0.9028
13353TIP3    H161550   2.096   5.434   4.780 -1.5875  0.0112  0.1493
13353TIP3    H261551   2.035   5.549   4.858  0.4217  0.7686  0.6795
13354TIP3   OH261552   6.462   2.109  16.752 -0.1400  0.3660  0.8934
13354TIP3    H161553   6.489   2.027  16.710 -0.9885  0.0798  0.8769
13354TIP3    H261554   6.367   2.102  16.758 -0.0275 -0.0086  3.6679
13355TIP3   OH261555   2.315   0.141   0.760 -0.4617  0.2146  0.2249
13355TIP3    H161556   2.255   0.095   0.702 -0.6935 -2.3352  2.3230
13355TIP3    H261557   2.401   0.102   0.741 -0.6860 -1.3558  2.1423
13356TIP3   OH261558   0.044   1.027   2.635  0.3777  0.0177  0.5337
13356TIP3    H161559  -0.032   1.044   2.690 -0.9093  3.4762 -1.9180
13356TIP3    H261560   0.050   0.931   2.631 -2.8199 -0.3924  2.1749
13357TIP3   OH261561   5.070   5.275  17.251  0.5374 -0.0988  0.0726
13357TIP3    H161562   5.078   5.310  17.163 -1.6248  0.4424  0.0426
13357TIP3    H261563   5.101   5.185  17.245 -1.3302 -0.6891 -1.7160
13358TIP3   OH261564   0.286   0.945   2.142 -0.1139  0.0445 -0.9226
13358TIP3    H161565   0.340   1.023   2.158 -0.2671  0.0861 -0.6009
13358TIP3    H261566   0.198   0.970   2.171 -0.0324 -0.4568 -0.2342
13359TIP3   OH261567   6.431   1.581  15.713  0.1842 -0.3016  0.1627
13359TIP3    H161568   6.520   1.616  15.718  0.2431 -0.5639  1.1823
13359TIP3    H261569   6.375   1.659  15.710  0.3081 -0.0397  2.5226
13360TIP3   OH261570   4.773   1.439  15.011  0.1531 -0.4958  0.3534
13360TIP3    H161571   4.763   1.409  15.101 -2.2393 -0.6186  0.1172
13360TIP3    H261572   4.862   1.474  15.007  0.6195 -1.2823  2.5006
13361TIP3   OH261573   0.502   3.926  16.366 -0.4264 -0.3260 -0.2215
13361TIP3    H161574   0.559   3.976  16.425  0.4083 -0.8412 -0.5739
13361TIP3    H261575   0.470   3.854  16.420  0.4207 -0.8570 -0.4092
13362TIP3   OH261576   3.978   5.671  12.777 -0.7688 -0.2476  0.4501
13362TIP3    H161577   3.986   5.653  12.870 -0.2846 -1.6730  0.1603
13362TIP3    H261578   3.997   5.587  12.734 -2.3300  0.0277 -0.8891
13363TIP3   OH261579   0.122   1.192  14.260  0.5277 -0.4345 -0.6626
13363TIP3    H161580   0.053   1.182  14.194 -0.3200  1.0741 -0.0635
13363TIP3    H261581   0.204   1.183  14.211 -0.0780  0.8016 -1.9791
13364TIP3   OH261582   0.587   3.374   2.542 -0.9458 -0.0786 -0.2306
13364TIP3    H161583   0.670   3.330   2.527 -1.6093 -1.4376 -0.0418
13364TIP3    H261584   0.593   3.408   2.632 -0.0652  1.0910 -0.7100
13365TIP3   OH261585   2.665   0.639  15.377  0.2022 -0.5641 -0.5514
13365TIP3    H161586   2.574   0.616  15.397  0.0629 -1.0378 -1.6549
13365TIP3    H261587   2.663   0.668  15.285  1.4600 -2.3931 -1.2054
13366TIP3   OH261588   4.080   3.991  14.505 -0.1848  0.7220 -0.1062
13366TIP3    H161589   4.073   3.901  14.472 -0.9276  0.2709  1.2446
13366TIP3    H261590   4.173   4.012  14.496  0.0101 -0.2068 -0.3430
13367TIP3   OH261591   0.408   1.943  16.830 -0.0034 -0.4408  0.3498
13367TIP3    H161592   0.445   2.019  16.874 -0.2731  0.7796 -1.4637
13367TIP3    H261593   0.484   1.891  16.803  0.1970 -0.4434  0.8949
13368TIP3   OH261594   4.223   1.929   2.765  0.8340 -0.1205  0.1435
13368TIP3    H161595   4.165   1.875   2.711  0.6303  1.3963 -1.2114
13368TIP3    H261596   4.166   1.962   2.835  0.7051 -0.7335  0.3385
13369TIP3   OH261597   0.115   4.837   1.539 -0.0827  0.2027 -0.1992
13369TIP3    H161598   0.196   4.822   1.588  1.6504  2.8117 -1.9760
13369TIP3    H261599   0.131   4.798   1.454 -1.4612 -0.7661 -0.0490
13370TIP3   OH261600   4.103   5.710  11.076  0.3578 -0.6892 -0.0544
13370TIP3    H161601   4.124   5.636  11.019 -1.2192 -0.1151 -1.4878
13370TIP3    H261602   4.040   5.761  11.025 -1.6354 -0.4613  2.4700
13371TIP3   OH261603   4.976   6.607  12.026  0.2705 -0.3751  0.1751
13371TIP3    H161604   5.059   6.650  12.048  1.6359 -2.8095  0.1546
13371TIP3    H261605   4.982   6.591  11.932 -0.1953 -0.6196  0.1840
13372TIP3   OH261606   0.734   3.419   1.108  0.4476 -0.7230 -0.6674
13372TIP3    H161607   0.790   3.470   1.049  0.0179 -0.3223 -0.7351
13372TIP3    H261608   0.688   3.485   1.159 -0.7164 -1.0243 -1.3049
13373TIP3   OH261609   6.506   6.776  11.715 -0.3622 -0.1837 -0.2689
13373TIP3    H161610   6.425   6.725  11.709 -0.1618 -0.3393 -2.5539
13373TIP3    H261611   6.554   6.738  11.789 -1.4207 -1.4860 -0.2262
13374TIP3   OH261612   3.248   2.179   4.957 -0.5221  0.2944 -0.1464
13374TIP3    H161613   3.250   2.107   5.019  3.3256 -0.8958 -1.3543
13374TIP3    H261614   3.173   2.162   4.901 -1.5546 -0.9384  1.5595
13375TIP3   OH261615   3.047   1.448   0.315  0.2749  0.8868  0.5218
13375TIP3    H161616   3.079   1.384   0.379 -0.7534  1.3017  1.4861
13375TIP3    H261617   3.069   1.410   0.230  1.8911  0.4395  1.1129
13376TIP3   OH261618   2.271   0.407  14.982 -0.5810  0.0596  0.2669
13376TIP3    H161619   2.233   0.367  14.904  0.8135 -0.1813 -0.3117
13376TIP3    H261620   2.246   0.500  14.975 -0.7513 -0.0222 -0.2906
13377TIP3   OH261621   4.589   1.896  15.780  0.4140 -0.0044  0.0136
13377TIP3    H161622   4.592   1.811  15.738 -0.2086 -0.2062  0.3591
13377TIP3    H261623   4.597   1.959  15.708 -1.1302 -0.3358 -0.4807
13378TIP3   OH261624   3.966   1.021  15.174  0.2535 -0.0129  0.0973
13378TIP3    H161625   3.926   0.967  15.106  1.7295  0.0870 -0.8935
13378TIP3    H261626   3.912   1.006  15.252 -0.0625 -1.9804 -0.4615
13379TIP3   OH261627   4.165   2.512  16.107 -0.4491  0.8068  0.0327
13379TIP3    H161628   4.223   2.459  16.052 -0.8796  0.7798 -0.4053
13379TIP3    H261629   4.102   2.449  16.143 -0.9673  1.0131 -0.4943
13380TIP3   OH261630   3.774   1.583   0.298  0.2208 -0.1592  0.0950
13380TIP3    H161631   3.818   1.617   0.220 -1.1168  1.6677  0.0876
13380TIP3    H261632   3.681   1.598   0.283 -0.0033  1.5197  2.5741
13381TIP3   OH261633   4.809   5.373   5.661 -0.9496  0.2071  0.3667
13381TIP3    H161634   4.894   5.356   5.621 -0.3364  0.8851  1.3296
13381TIP3    H261635   4.829   5.386   5.754 -2.1649 -0.0582  0.6840
13382TIP3   OH261636   2.453   4.945   6.296  0.2161 -0.0953  0.6996
13382TIP3    H161637   2.447   5.037   6.271  0.7310  0.3983  2.2363
13382TIP3    H261638   2.547   4.930   6.310  0.0084 -0.4408  1.8248
13383TIP3   OH261639   1.277   1.894   5.357  0.1924 -0.5734  0.1616
13383TIP3    H161640   1.222   1.887   5.279 -1.7037  0.3969  1.3384
13383TIP3    H261641   1.365   1.872   5.326 -0.5247 -0.4292 -2.1853
13384TIP3   OH261642   2.483   6.397  16.447 -0.0389  0.0653  0.4918
13384TIP3    H161643   2.513   6.377  16.535 -2.3357  1.1175  1.6192
13384TIP3    H261644   2.444   6.485  16.454  0.6716  0.6452 -1.8426
13385TIP3   OH261645   3.621   0.016   0.874 -0.9417  0.6912 -0.3332
13385TIP3    H161646   3.622   0.087   0.810  1.4790  0.7193 -0.3719
13385TIP3    H261647   3.591  -0.060   0.824 -0.3078  0.9865 -1.1956
13386TIP3   OH261648   2.834   1.026  12.194 -0.1083 -0.0045 -0.4517
13386TIP3    H161649   2.881   1.103  12.227 -3.0058  1.9244 -0.4474
13386TIP3    H261650   2.784   0.995  12.270 -1.0408 -0.1967 -1.1314
13387TIP3   OH261651   1.727   5.001   3.016  0.9226 -0.3215  0.7135
13387TIP3    H161652   1.676   5.077   3.043  0.5821  0.0226 -0.7932
13387TIP3    H261653   1.801   5.038   2.968  0.9402 -0.9207  0.2681
13388TIP3   OH261654   3.223   2.030  10.695 -0.3827  0.8539  0.3053
13388TIP3    H161655   3.228   2.117  10.654 -0.8764 -0.2497 -2.3359
13388TIP3    H261656   3.294   1.981  10.653 -1.6815 -0.7042 -0.1733
13389TIP3   OH261657   2.678   5.088   6.021 -0.7697  0.3862  0.3905
13389TIP3    H161658   2.641   5.005   5.989  0.3367 -0.2226  0.6400
13389TIP3    H261659   2.617   5.116   6.090 -1.1034 -0.2694  0.3717
13390TIP3   OH261660   5.266   3.297  11.013 -0.2968  0.0022 -0.1313
13390TIP3    H161661   5.179   3.256  11.013  0.1668 -1.1103  1.8516
13390TIP3    H261662   5.283   3.317  10.921 -2.1934 -0.7193 -0.6934
13391TIP3   OH261663   0.287   4.432  12.110 -0.7345 -0.2622  0.0312
13391TIP3    H161664   0.358   4.376  12.141  1.0109  1.2916 -0.9276
13391TIP3    H261665   0.266   4.399  12.023 -0.1619  0.1582 -0.2699
13392TIP3   OH261666   2.399   5.894  11.580 -0.0490 -1.0884 -0.0085
13392TIP3    H161667   2.427   5.907  11.489 -0.3776 -0.8287 -0.0748
13392TIP3    H261668   2.396   5.982  11.617  0.0895 -1.1951  0.2594
13393TIP3   OH261669   6.055   5.458  14.040 -0.0994 -0.7372 -0.6294
13393TIP3    H161670   6.101   5.389  13.993 -0.3590 -0.3066 -1.5370
13393TIP3    H261671   6.072   5.538  13.989 -1.9273 -0.5897 -1.0676
13394TIP3   OH261672   6.222   2.535   4.532  0.3580 -0.4197  0.1978
13394TIP3    H161673   6.197   2.512   4.442  1.0462  0.8156 -0.3382
13394TIP3    H261674   6.139   2.562   4.573  0.3594  1.3696 -0.8501
13395TIP3   OH261675   1.035   3.353  11.342 -0.1870  0.8723  0.2402
13395TIP3    H161676   1.012   3.305  11.262 -1.2202  0.2528  0.8932
13395TIP3    H261677   1.130   3.364  11.337  0.3969 -2.7473  0.8737
13396TIP3   OH261678   3.502   0.615   5.604  0.3766 -0.2513 -0.0627
13396TIP3    H161679   3.480   0.652   5.690 -1.1018 -1.0915 -0.0475
13396TIP3    H261680   3.422   0.570   5.576 -0.3214  2.5623 -3.2861
13397TIP3   OH261681   0.706   1.907  12.199  0.3305 -0.1076 -0.0120
13397TIP3    H161682   0.746   1.919  12.285 -1.4018 -0.4487  0.8802
13397TIP3    H261683   0.766   1.849  12.153  1.2493  0.0150  0.9839
13398TIP3   OH261684   0.976   3.911   1.636 -0.4871 -0.5643  0.2020
13398TIP3    H161685   0.963   3.842   1.701 -0.2662 -0.7785  0.0234
13398TIP3    H261686   0.891   3.953   1.627  0.0610  1.3477  2.7221
13399TIP3   OH261687   3.688   5.849   3.788 -0.1776  0.1814 -0.2731
13399TIP3    H161688   3.660   5.810   3.705 -0.1524  0.3821 -0.3751
13399TIP3    H261689   3.729   5.776   3.836  0.8592  0.3354 -0.9168
13400TIP3   OH261690   5.936   4.984  13.609  0.1233 -0.1205  0.1516
13400TIP3    H161691   5.992   4.910  13.585 -0.3654  0.0639 -1.7175
13400TIP3    H261692   5.907   5.020  13.526 -0.8003  1.3145  1.0503
13401TIP3   OH261693   0.156   0.475  14.682 -0.0740 -0.3401 -0.3007
13401TIP3    H161694   0.226   0.433  14.732 -2.3845 -2.3563  1.4844
13401TIP3    H261695   0.163   0.437  14.594 -0.4428 -2.5264  0.5581
13402TIP3   OH261696   2.845   3.641  13.802  0.0093  0.1604  0.5139
13402TIP3    H161697   2.766   3.696  13.801  0.0154  0.2485  1.9861
13402TIP3    H261698   2.845   3.597  13.717 -0.9186  1.1439 -0.0277
13403TIP3   OH261699   6.613   6.035  16.362  0.5254 -0.1007 -0.2102
13403TIP3    H161700   6.677   6.034  16.433  1.5367 -1.8162 -1.0635
13403TIP3    H261701   6.582   6.126  16.358  1.8143  0.4394  1.2009
13404TIP3   OH261702   0.206   0.205   1.158  0.3050  0.1985  0.4536
13404TIP3    H161703   0.267   0.137   1.187 -1.3996 -1.0172  1.4574
13404TIP3    H261704   0.230   0.282   1.209  3.0798  0.8302 -1.6051
13405TIP3   OH261705   3.137   3.688  15.306  0.0001  0.1049 -0.4587
13405TIP3    H161706   3.130   3.757  15.240  2.8101  0.9302 -0.0480
13405TIP3    H261707   3.108   3.731  15.387 -0.5037  0.0437 -0.6010
13406TIP3   OH261708   5.941   1.879   4.974 -0.0148 -0.2994  0.3223
13406TIP3    H161709   6.000   1.941   4.932 -0.2676 -1.7286 -2.3186
13406TIP3    H261710   5.968   1.879   5.066  1.8419  1.5675 -0.1553
13407TIP3   OH261711   3.030   6.808   1.340 -0.3375  0.5500 -0.3848
13407TIP3    H161712   3.077   6.864   1.402  1.5365  0.5330 -1.7236
13407TIP3    H261713   3.044   6.719   1.373  0.6950  0.5365 -0.8304
13408TIP3   OH261714   4.801   5.997   5.018 -0.2887 -0.3018  0.4644
13408TIP3    H161715   4.839   5.973   5.102  1.4161 -1.8138 -0.6462
13408TIP3    H261716   4.858   6.066   4.984 -0.6823 -0.0297  0.3574
13409TIP3   OH261717   6.728   0.561   2.083 -0.2266 -0.2307  0.0946
13409TIP3    H161718   6.805   0.564   2.025  0.7259 -0.3883  1.3140
13409TIP3    H261719   6.678   0.485   2.053  2.9342 -3.7078  2.6828
13410TIP3   OH261720   6.705   0.454  12.144 -0.1848  0.6588 -0.0320
13410TIP3    H161721   6.799   0.452  12.160 -0.0076  2.0600 -0.7297
13410TIP3    H261722   6.668   0.397  12.211  0.8475  2.9874  2.6948
13411TIP3   OH261723   4.755   1.100   0.659 -0.2839  0.0489 -0.5458
13411TIP3    H161724   4.840   1.122   0.697 -1.6946  1.4052  2.1128
13411TIP3    H261725   4.762   1.126   0.567  2.8346 -1.9588 -1.0159
13412TIP3   OH261726   4.888   4.747   1.143  0.0301 -0.5603 -0.1189
13412TIP3    H161727   4.794   4.766   1.135 -0.1178 -1.2648 -0.1170
13412TIP3    H261728   4.892   4.674   1.205  0.5104 -1.1838 -0.8722
13413TIP3   OH261729   3.806   0.396  14.270  0.0461  0.5548  0.4065
13413TIP3    H161730   3.866   0.381  14.343 -1.3453 -0.0529  1.4776
13413TIP3    H261731   3.797   0.492  14.265 -0.0658  0.5973  1.2419
13414TIP3   OH261732   2.409   2.495  12.974  0.2450  0.0378  0.4868
13414TIP3    H161733   2.398   2.485  12.880 -0.3016  1.5781  0.3588
13414TIP3    H261734   2.324   2.524  13.006  0.9339  1.4563  1.1383
13415TIP3   OH261735   6.698   2.215  12.721 -0.0320 -0.4002  0.8284
13415TIP3    H161736   6.792   2.227  12.711 -0.4205  0.8233 -3.2773
13415TIP3    H261737   6.667   2.299  12.754  0.0913  0.3770 -0.9060
13416TIP3   OH261738   4.655   2.824  12.814  0.6335 -0.0059  0.0518
13416TIP3    H161739   4.710   2.762  12.861 -0.1564 -0.7540  0.0091
13416TIP3    H261740   4.710   2.856  12.742  0.2780 -2.5848 -1.4874
13417TIP3   OH261741   3.595   2.495   0.503  1.3666 -0.0553 -0.1446
13417TIP3    H161742   3.572   2.587   0.515 -0.8279 -0.6436  0.6264
13417TIP3    H261743   3.538   2.466   0.431  0.6295 -1.2561  0.8953
13418TIP3   OH261744   4.598   0.912  15.858 -0.4332  0.0751 -0.2874
13418TIP3    H161745   4.583   0.964  15.937 -2.4859  0.6461 -0.9692
13418TIP3    H261746   4.611   0.822  15.890 -1.8889  0.1831  0.6994
13419TIP3   OH261747   0.852   3.461   0.585 -0.1904 -0.0536  0.3041
13419TIP3    H161748   0.781   3.473   0.648 -0.6300  1.1157 -0.3967
13419TIP3    H261749   0.909   3.536   0.600 -1.5750  1.6442 -2.3323
13420TIP3   OH261750   3.822   1.708   4.533  0.2352  0.1665  0.1594
13420TIP3    H161751   3.759   1.681   4.466  0.4371  1.4963 -0.5861
13420TIP3    H261752   3.774   1.770   4.588 -0.6863 -2.5786  2.7455
13421TIP3   OH261753   3.338   0.648   5.045  0.4328  0.2628  0.0274
13421TIP3    H161754   3.274   0.711   5.010  0.4326 -0.0876 -0.6235
13421TIP3    H261755   3.291   0.602   5.114 -0.2373 -0.4132 -0.8499
13422TIP3   OH261756   6.484   3.569  11.810 -0.5255 -0.8055 -0.5553
13422TIP3    H161757   6.478   3.561  11.715 -0.6308 -0.9862 -0.5348
13422TIP3    H261758   6.473   3.479  11.842  0.1978 -0.8483 -0.4038
13423TIP3   OH261759   6.398   1.104  12.400  0.6587  0.5492 -0.4195
13423TIP3    H161760   6.390   1.141  12.312 -0.0093 -1.0995 -1.0958
13423TIP3    H261761   6.444   1.021  12.386  1.7135  0.8621  0.9856
13424TIP3   OH261762   4.093   2.248   6.547  0.4883  0.2103 -0.0102
13424TIP3    H161763   4.143   2.168   6.532  0.4067  0.3418 -1.0885
13424TIP3    H261764   4.018   2.240   6.488  0.8798  1.4047 -0.7145
13425TIP3   OH261765   4.869   4.468  12.791 -0.2576  0.0538 -0.2530
13425TIP3    H161766   4.897   4.541  12.846  1.5022 -1.1416  0.5218
13425TIP3    H261767   4.908   4.487  12.706 -0.3970  0.3687 -0.2487
13426TIP3   OH261768   0.662   6.634   0.990 -0.7571 -0.1589 -0.1558
13426TIP3    H161769   0.676   6.569   0.921 -1.1624 -0.2546 -0.1519
13426TIP3    H261770   0.585   6.683   0.960  0.1108  0.9652 -0.6517
13427TIP3   OH261771   4.790   0.141  14.857 -0.4020 -0.0049  0.2154
13427TIP3    H161772   4.740   0.186  14.926  0.3846 -0.7717  1.3330
13427TIP3    H261773   4.785   0.200  14.782 -2.7672  0.0601  0.3404
13428TIP3   OH261774   2.295   2.624   5.354  0.3276  0.0315 -0.6825
13428TIP3    H161775   2.205   2.603   5.329 -0.4965  0.6715  1.4691
13428TIP3    H261776   2.290   2.714   5.386  1.8662  0.2749 -1.0778
13429TIP3   OH261777   2.175   2.785   3.213  0.6639 -0.1796 -0.3624
13429TIP3    H161778   2.216   2.804   3.297  0.1940 -1.2532  0.1337
13429TIP3    H261779   2.247   2.761   3.155  0.8466 -1.0416  0.2090
13430TIP3   OH261780   4.513   0.005  12.893  0.4103  0.6000  0.1468
13430TIP3    H161781   4.453  -0.022  12.963  0.5133  0.0597  0.0330
13430TIP3    H261782   4.595   0.025  12.938 -0.1837  2.5776  0.4672
13431TIP3   OH261783   5.730   4.411  16.271  0.9994  0.8679 -0.2031
13431TIP3    H161784   5.669   4.343  16.301  0.2789  0.9675 -1.4045
13431TIP3    H261785   5.776   4.372  16.198  1.4752  1.2463 -0.1098
13432TIP3   OH261786   1.035   1.191   2.330 -0.4830  0.4446 -0.0735
13432TIP3    H161787   1.083   1.236   2.399 -1.4087  0.5300  0.5397
13432TIP3    H261788   1.000   1.262   2.275  0.3828  0.3731 -0.7360
13433TIP3   OH261789   2.924   1.067   3.949  0.3980  0.3235 -0.0474
13433TIP3    H161790   2.915   1.157   3.918 -0.7591  0.7016  1.2738
13433TIP3    H261791   2.878   1.014   3.883 -0.2816  0.8862 -0.0326
13434TIP3   OH261792   1.485   1.635   1.466  0.2375 -0.1606 -0.3107
13434TIP3    H161793   1.536   1.714   1.446 -1.5083  0.9279 -0.7111
13434TIP3    H261794   1.402   1.648   1.419  0.0499 -2.4484 -0.7349
13435TIP3   OH261795   6.093   6.313  13.295  0.2964 -0.3035  0.0208
13435TIP3    H161796   6.073   6.319  13.388 -0.3174 -0.7424 -0.0753
13435TIP3    H261797   6.051   6.390  13.256  0.4861 -0.1625  0.0927
13436TIP3   OH261798   1.281   4.414   1.850  0.5841  0.1721  0.1686
13436TIP3    H161799   1.246   4.503   1.849 -1.7361 -0.6691 -0.8113
13436TIP3    H261800   1.304   4.398   1.941 -0.2724  1.2966  0.6045
13437TIP3   OH261801   6.019   1.891   3.001 -0.0153 -0.2489  0.1566
13437TIP3    H161802   5.963   1.927   2.933 -1.1493 -0.3072  1.0230
13437TIP3    H261803   6.036   1.965   3.060  1.1913 -0.1273 -0.3144
13438TIP3   OH261804   6.055   0.531   2.515  0.0811 -0.6720  0.2065
13438TIP3    H161805   6.071   0.514   2.422  0.0048 -0.7937  0.2158
13438TIP3    H261806   6.123   0.594   2.540  0.9546 -1.6820  0.4127
13439TIP3   OH261807   3.076   4.813  15.750  0.2143 -0.3815  0.2338
13439TIP3    H161808   3.008   4.868  15.789  0.2546  0.3735 -0.7294
13439TIP3    H261809   3.130   4.786  15.825 -0.6404 -0.2968  0.8992
13440TIP3   OH261810   3.942   3.581   1.612 -0.1037 -0.0972  0.7541
13440TIP3    H161811   4.001   3.650   1.580  0.1597 -1.3958 -1.8818
13440TIP3    H261812   4.001   3.513   1.645 -0.3367  0.5517  2.5853
13441TIP3   OH261813   1.895   3.349   4.827  0.6528  0.2040 -0.6413
13441TIP3    H161814   1.891   3.379   4.918 -1.4945 -1.8019  0.0409
13441TIP3    H261815   1.982   3.309   4.818  0.8658  0.3819  0.5309
13442TIP3   OH261816   5.010   5.877   3.242 -0.2847 -0.2707  0.1061
13442TIP3    H161817   4.948   5.815   3.279  1.3752 -0.7358  2.3490
13442TIP3    H261818   5.077   5.822   3.200  0.6968 -0.0511  1.2918
13443TIP3   OH261819   3.191   2.660   3.074 -0.7642 -0.2966 -0.3621
13443TIP3    H161820   3.181   2.691   2.984 -3.9183 -0.7871 -0.2913
13443TIP3    H261821   3.103   2.632   3.100 -0.0191 -0.0124  2.9525
13444TIP3   OH261822   5.493   5.077   3.095  0.4602  0.1100 -0.1917
13444TIP3    H161823   5.538   5.087   3.179 -0.0198  1.6993 -0.0993
13444TIP3    H261824   5.558   5.036   3.038  0.7112 -1.2408  0.9939
13445TIP3   OH261825   6.764   3.562  10.933 -0.5177  0.4229  0.0699
13445TIP3    H161826   6.796   3.485  10.886 -0.8919  0.1897  0.1983
13445TIP3    H261827   6.798   3.551  11.022  2.6218  2.2574 -0.7419
13446TIP3   OH261828   3.903   0.856  11.422 -0.1282 -0.4323  0.0209
13446TIP3    H161829   3.946   0.936  11.392 -1.0951  0.3521  0.6625
13446TIP3    H261830   3.837   0.838  11.355 -0.8466  0.1136  0.5618
13447TIP3   OH261831   5.271   0.592  11.942 -0.1290  0.0375 -0.0790
13447TIP3    H161832   5.366   0.593  11.935 -0.2249  1.8957 -1.8062
13447TIP3    H261833   5.254   0.601  12.036  1.3773 -0.0737  0.2271
13448TIP3   OH261834   4.999   0.835   0.098 -0.0893  0.1012 -0.0978
13448TIP3    H161835   4.994   0.742   0.121 -1.7101  0.0741 -0.3786
13448TIP3    H261836   4.958   0.880   0.172 -2.0902  0.3031 -1.2444
13449TIP3   OH261837   5.185   5.619  16.412  0.0053  0.3466 -0.4180
13449TIP3    H161838   5.181   5.572  16.328 -0.3392 -0.9873  0.3230
13449TIP3    H261839   5.094   5.641  16.432  0.2701  2.6812 -1.4525
13450TIP3   OH261840   0.968   6.138   3.728  0.3162  0.2161  0.2094
13450TIP3    H161841   0.927   6.203   3.785 -0.0932 -0.7319  1.0389
13450TIP3    H261842   1.023   6.086   3.786 -0.5249 -1.1082 -0.1245
13451TIP3   OH261843   6.450   0.372  16.244 -0.4296 -0.3420  0.3590
13451TIP3    H161844   6.438   0.281  16.216  0.1535 -0.1016 -0.7688
13451TIP3    H261845   6.480   0.417  16.165 -1.1803  0.9413  0.7674
13452TIP3   OH261846   4.302   4.717   5.684  0.5152  0.0769 -0.4741
13452TIP3    H161847   4.350   4.643   5.647  0.5089 -0.1914  0.0463
13452TIP3    H261848   4.213   4.685   5.697  0.3315  0.3995 -0.9069
13453TIP3   OH261849   2.930   5.026  12.043 -0.1755  0.2280  0.2572
13453TIP3    H161850   2.918   4.958  11.977 -0.0399 -1.7092  2.1088
13453TIP3    H261851   2.981   5.093  11.999  0.7813 -1.4390 -1.3288
13454TIP3   OH261852   4.990   6.020   6.504 -0.4611  0.3068 -0.2411
13454TIP3    H161853   4.987   6.032   6.598  0.0584 -0.7476 -0.0738
13454TIP3    H261854   4.960   6.104   6.468 -3.0916 -0.0690  0.8447
13455TIP3   OH261855   6.178   5.612  13.396 -0.1299  0.0747  0.0066
13455TIP3    H161856   6.231   5.689  13.415 -0.8828  0.7324 -0.4884
13455TIP3    H261857   6.091   5.633  13.431 -0.3282 -0.5826 -0.0617
13456TIP3   OH261858   2.459   3.741  11.147 -0.0222  0.4124  0.1941
13456TIP3    H161859   2.554   3.746  11.158  0.2723 -1.6227 -0.9626
13456TIP3    H261860   2.446   3.709  11.058 -1.6536 -2.1915  1.2451
13457TIP3   OH261861   4.270   1.527   6.226  0.0576  0.1467 -0.7132
13457TIP3    H161862   4.276   1.611   6.181  1.9377 -0.3687 -1.5423
13457TIP3    H261863   4.319   1.540   6.307  0.3122 -0.1130 -0.8208
13458TIP3   OH261864   4.994   4.872   3.714 -0.5607  0.3564  0.4824
13458TIP3    H161865   4.964   4.963   3.715 -1.0892  0.1858  0.5765
13458TIP3    H261866   5.017   4.854   3.805 -1.1765  0.1697  0.6084
13459TIP3   OH261867   0.862   0.878  14.186 -0.1868  0.0052  0.1207
13459TIP3    H161868   0.954   0.891  14.162  0.2884 -2.3487  0.4755
13459TIP3    H261869   0.831   0.810  14.127 -1.5917  0.4593  0.3032
13460TIP3   OH261870   4.832   6.708  16.320 -0.1451 -0.6359  0.1653
13460TIP3    H161871   4.862   6.676  16.405 -0.5652 -1.1899  0.1150
13460TIP3    H261872   4.890   6.667  16.257  0.4684  0.1519  0.2094
13461TIP3   OH261873   3.338   3.154   5.454  0.1853 -0.2716  0.0920
13461TIP3    H161874   3.426   3.159   5.492  0.0389  0.6209  0.3352
13461TIP3    H261875   3.308   3.245   5.450  0.3223 -0.2631 -2.4651
13462TIP3   OH261876   2.627   1.192   5.519 -0.1514 -0.5817  0.4958
13462TIP3    H161877   2.682   1.270   5.512 -0.0329 -0.8262 -3.7286
13462TIP3    H261878   2.544   1.217   5.480  0.3702 -2.8287 -2.3565
13463TIP3   OH261879   1.019   0.796  12.328 -0.3425 -0.9291  0.1425
13463TIP3    H161880   1.001   0.875  12.277 -0.9348 -0.1419  1.5444
13463TIP3    H261881   1.111   0.777  12.309  0.3686  1.1636  1.1747
13464TIP3   OH261882   2.772   0.441   2.038  0.0777 -0.5277 -0.0612
13464TIP3    H161883   2.850   0.393   2.066  0.6904 -0.0104 -0.8208
13464TIP3    H261884   2.803   0.532   2.029 -1.2553  0.2362  2.2415
13465TIP3   OH261885   4.216   4.754  13.365  0.2058 -0.3317  0.3086
13465TIP3    H161886   4.227   4.814  13.439 -2.0107 -3.0840  3.1329
13465TIP3    H261887   4.123   4.762  13.342  0.4545 -0.8935 -0.9541
13466TIP3   OH261888   4.361   2.943  16.781  0.2136 -0.1126  0.4072
13466TIP3    H161889   4.294   2.876  16.769  0.1366 -0.0238  0.3497
13466TIP3    H261890   4.374   2.946  16.876  0.2656 -0.2556  0.4063
13467TIP3   OH261891   3.354   3.304   3.311 -0.3282  0.3129 -0.2785
13467TIP3    H161892   3.350   3.392   3.349  2.8648  0.8313 -0.8684
13467TIP3    H261893   3.394   3.250   3.379 -1.6042 -0.5652 -0.1926
13468TIP3   OH261894   0.410   4.954   4.602 -0.0390  0.6230 -0.3777
13468TIP3    H161895   0.338   4.922   4.547 -0.3563  2.0958 -0.8581
13468TIP3    H261896   0.417   4.888   4.672 -2.8173  1.1192  0.4952
13469TIP3   OH261897   5.487   5.780   0.512  0.3140 -0.0359 -0.0676
13469TIP3    H161898   5.461   5.871   0.528  0.3484  0.1720 -1.0831
13469TIP3    H261899   5.439   5.729   0.577 -1.4011  0.4973 -0.8551
13470TIP3   OH261900   6.315   1.957   1.200  0.3271 -0.2206  0.1725
13470TIP3    H161901   6.315   1.948   1.296  2.0708  0.7016  0.2915
13470TIP3    H261902   6.382   2.023   1.182  0.0321 -0.3808 -1.7064
13471TIP3   OH261903   6.703   0.923  15.875 -0.3269 -0.2744 -0.1602
13471TIP3    H161904   6.693   0.875  15.957  1.3267 -1.5105 -0.6314
13471TIP3    H261905   6.670   1.010  15.894  0.5430 -0.3565  1.9942
13472TIP3   OH261906   3.713   3.669  16.188 -0.3636 -0.3760 -0.2790
13472TIP3    H161907   3.671   3.681  16.103  0.0085  0.7730 -0.3108
13472TIP3    H261908   3.802   3.700  16.176 -0.0760 -0.9199  0.3386
13473TIP3   OH261909   3.821   4.441   0.784  0.2121  0.3382  0.1102
13473TIP3    H161910   3.786   4.409   0.868  0.6506  0.6676  0.4239
13473TIP3    H261911   3.804   4.535   0.785 -0.3644  0.2444 -0.4628
13474TIP3   OH261912   0.414   1.695   0.491  0.1154  0.3374 -0.0602
13474TIP3    H161913   0.502   1.731   0.478  0.1165  0.6681  0.8097
13474TIP3    H261914   0.362   1.731   0.419  0.7647 -0.1272 -0.7714
13475TIP3   OH261915   2.941   2.743  15.383 -0.4906  0.1781 -0.3550
13475TIP3    H161916   2.999   2.745  15.460 -1.0122  0.2155  0.0443
13475TIP3    H261917   2.925   2.836  15.363  0.2473  0.1830 -0.9818
13476TIP3   OH261918   5.701   2.019   4.630 -0.0204  0.3406  0.3038
13476TIP3    H161919   5.606   2.034   4.632  0.0286  0.8103 -0.6545
13476TIP3    H261920   5.739   2.106   4.635  0.3395  0.2256 -0.3386
13477TIP3   OH261921   6.010   1.481  15.943  0.0737  0.1164  1.1541
13477TIP3    H161922   6.103   1.463  15.956  0.0115 -0.8762  0.3183
13477TIP3    H261923   5.975   1.402  15.902 -1.1631  0.4346  1.5308
13478TIP3   OH261924   3.514   5.916  16.993  0.2505  0.1621 -0.7363
13478TIP3    H161925   3.498   5.822  16.990 -0.6749  0.3127 -1.1119
13478TIP3    H261926   3.586   5.930  16.932  0.4559 -0.3159 -0.6085
13479TIP3   OH261927   1.469   2.262   2.831  0.4134  0.0278  0.0826
13479TIP3    H161928   1.416   2.195   2.873 -0.1393 -1.8084 -3.1752
13479TIP3    H261929   1.407   2.332   2.809  0.4720  0.4158  1.0873
13480TIP3   OH261930   1.959   6.333   5.399 -0.2116 -0.6758 -0.2964
13480TIP3    H161931   1.928   6.354   5.311 -1.2782 -1.4869 -0.1485
13480TIP3    H261932   1.887   6.360   5.456  1.0073  1.0884  0.4882
13481TIP3   OH261933   4.810   3.808   5.554  1.1168 -0.1887 -0.3063
13481TIP3    H161934   4.783   3.831   5.465 -0.0934 -0.4955 -0.0335
13481TIP3    H261935   4.731   3.773   5.595  1.5746  0.2368  0.9911
13482TIP3   OH261936   0.302   1.796   5.468  0.6459 -0.5405 -0.4659
13482TIP3    H161937   0.278   1.877   5.513 -1.0130 -1.8504  1.1974
13482TIP3    H261938   0.241   1.791   5.394 -1.1895 -1.5207  1.0106
13483TIP3   OH261939   4.717   1.327  13.102  0.3160  0.3080 -0.2861
13483TIP3    H161940   4.635   1.303  13.059 -0.6845 -0.2536  1.8072
13483TIP3    H261941   4.694   1.401  13.157  1.1132 -0.0861  0.5960
13484TIP3   OH261942   3.718   2.681   4.530  0.0747  0.0323  0.1288
13484TIP3    H161943   3.757   2.718   4.609  0.7556 -0.7175  0.1575
13484TIP3    H261944   3.627   2.666   4.553  0.5824 -1.5086  1.2734
13485TIP3   OH261945   4.753   4.805  13.829  0.2927  0.1837 -0.3320
13485TIP3    H161946   4.795   4.720  13.843 -0.3309 -0.0756  0.0233
13485TIP3    H261947   4.788   4.861  13.899  1.3173  0.4644 -1.0468
13486TIP3   OH261948   0.217   3.348  11.968 -0.4906  0.5573  0.2766
13486TIP3    H161949   0.227   3.332  12.062 -1.6387  1.3927  0.5577
13486TIP3    H261950   0.307   3.347  11.934 -0.1654 -2.2729  0.9175
13487TIP3   OH261951   0.513   4.419   1.552  0.7615 -0.2626  0.2941
13487TIP3    H161952   0.583   4.439   1.614  1.0831  0.4145 -0.2742
13487TIP3    H261953   0.559   4.385   1.475  0.5453  1.0073 -0.4195
13488TIP3   OH261954   0.099   1.100   4.210  0.0425 -0.5729  0.0541
13488TIP3    H161955   0.018   1.096   4.260  0.8174 -3.1684  1.2715
13488TIP3    H261956   0.156   1.158   4.261 -0.1683 -0.8623  0.6277
13489TIP3   OH261957   5.595   4.073   2.617 -0.3032 -0.3677  0.4713
13489TIP3    H161958   5.658   4.104   2.552 -1.1658 -0.8704 -0.6409
13489TIP3    H261959   5.510   4.094   2.579 -0.8730 -2.3195  0.5601
13490TIP3   OH261960   0.250   1.343   4.870  0.1509  0.0968  0.0663
13490TIP3    H161961   0.192   1.302   4.934  0.2151 -1.3988 -0.7806
13490TIP3    H261962   0.218   1.311   4.785  1.6469 -0.0472 -0.4733
13491TIP3   OH261963   5.162   2.840  13.423  0.0625 -0.4851  0.4184
13491TIP3    H161964   5.155   2.787  13.503  0.2904 -1.4327 -0.1784
13491TIP3    H261965   5.233   2.799  13.374 -0.6036 -0.3887 -0.6376
13492TIP3   OH261966   3.168   2.673  13.428 -0.3286 -0.0369  0.0408
13492TIP3    H161967   3.143   2.590  13.387 -0.0941 -1.1678  2.0435
13492TIP3    H261968   3.216   2.720  13.360  0.5642 -2.0624 -0.8117
13493TIP3   OH261969   1.302   3.331   2.562 -0.1094  0.1486  0.3401
13493TIP3    H161970   1.234   3.381   2.516 -2.0517 -1.9417  0.7122
13493TIP3    H261971   1.348   3.284   2.492  1.3922  1.9611  0.0373
13494TIP3   OH261972   3.826   0.305   2.594 -0.8251 -0.4661  0.1921
13494TIP3    H161973   3.773   0.226   2.606 -0.3653 -0.5178  2.0358
13494TIP3    H261974   3.772   0.375   2.630  0.3832 -0.5483  2.3087
13495TIP3   OH261975   2.039   1.003  16.519  0.2736 -0.0776 -0.9043
13495TIP3    H161976   2.102   1.021  16.450  1.1289 -0.4435 -0.2272
13495TIP3    H261977   2.025   0.908  16.516 -0.3446  0.0103 -1.1226
13496TIP3   OH261978   5.379   1.886  17.220  0.3060  0.1517 -0.2639
13496TIP3    H161979   5.305   1.856  17.168  0.2227 -0.0368 -0.0379
13496TIP3    H261980   5.442   1.813  17.216  0.7552  0.5629 -0.9897
13497TIP3   OH261981   1.690   0.570   2.984 -0.4159  0.3630 -0.1598
13497TIP3    H161982   1.705   0.567   3.078 -0.3691 -2.2890 -0.1839
13497TIP3    H261983   1.630   0.498   2.967  1.1601 -0.5323 -2.4064
13498TIP3   OH261984   6.112   1.733  17.180  0.0442  0.1397 -0.2649
13498TIP3    H161985   6.135   1.748  17.272  2.2750  0.2383 -0.7810
13498TIP3    H261986   6.058   1.808  17.156  0.5689  0.8228  0.6149
13499TIP3   OH261987   3.203   1.275   2.177 -0.0260  0.3820  0.2396
13499TIP3    H161988   3.191   1.198   2.122  0.4476 -0.2730  1.0351
13499TIP3    H261989   3.118   1.290   2.217  0.0949 -0.2880  0.7766
13500TIP3   OH261990   6.491   5.355  15.264 -0.4852  0.4793 -0.4019
13500TIP3    H161991   6.554   5.284  15.248 -1.1584 -0.0401 -0.8616
13500TIP3    H261992   6.489   5.364  15.359 -2.6080 -2.2724 -0.0470
13501TIP3   OH261993   0.884   1.502   0.383  0.1227 -0.3359  0.3355
13501TIP3    H161994   0.813   1.481   0.443  0.0314  0.3688  0.4888
13501TIP3    H261995   0.846   1.567   0.323  0.4182 -0.5119 -0.0454
13502TIP3   OH261996   4.029   4.583  16.830 -0.0601  0.5348 -0.1581
13502TIP3    H161997   4.057   4.671  16.855  0.2595  0.5865 -0.6771
13502TIP3    H261998   3.934   4.583  16.843  0.0314  0.7168  0.5474
13503TIP3   OH261999   2.481   5.412  16.282 -0.2650 -0.0520  0.1110
13503TIP3    H162000   2.397   5.411  16.327  0.3736 -2.4053  1.4266
13503TIP3    H262001   2.500   5.320  16.265 -0.1561  0.5812 -4.6003
13504TIP3   OH262002   3.543   4.956   0.067 -0.1637  0.1082  0.3132
13504TIP3    H162003   3.516   5.045   0.091  0.9538 -0.0680  2.3925
13504TIP3    H262004   3.510   4.901   0.138 -0.3228 -1.0958 -0.6494
13505TIP3   OH262005   4.186   3.874   1.108  0.4191  0.4575  0.2334
13505TIP3    H162006   4.092   3.859   1.118  0.2831  0.0492 -1.4333
13505TIP3    H262007   4.224   3.786   1.103  0.4572  0.5555 -2.4398
13506TIP3   OH262008   4.092   2.608   4.872  0.6077  0.3892  0.2039
13506TIP3    H162009   4.036   2.557   4.931  1.1477  0.8241  1.1195
13506TIP3    H262010   4.106   2.551   4.797  0.9814 -0.7221  1.0885
13507TIP3   OH262011   0.800   5.183  14.267 -0.4094 -0.0850 -0.1612
13507TIP3    H162012   0.881   5.212  14.309  0.3228 -1.4249 -0.5945
13507TIP3    H262013   0.785   5.095  14.300  0.5513 -1.4744 -3.0819
13508TIP3   OH262014   4.946   1.928  17.289  0.0931 -0.5159  0.3343
13508TIP3    H162015   4.947   1.909  17.195  0.3773 -2.7018  0.7330
13508TIP3    H262016   4.904   2.014  17.296 -3.1189 -1.7981 -1.5219
13509TIP3   OH262017   2.404   0.006  14.769 -0.1942 -0.2017  0.5629
13509TIP3    H162018   2.448   0.056  14.699 -2.9083  0.7210 -0.6308
13509TIP3    H262019   2.447  -0.079  14.768  1.5379  0.6262 -0.5040
13510TIP3   OH262020   0.567   6.413  15.315  0.0635  0.0113 -0.0435
13510TIP3    H162021   0.530   6.422  15.227  0.9342  0.1626 -0.4086
13510TIP3    H262022   0.598   6.322  15.319  0.7464  0.2295 -0.1959
13511TIP3   OH262023   4.709   5.430  14.786 -0.8128  0.6028 -0.3157
13511TIP3    H162024   4.636   5.406  14.842 -2.6849 -1.6336 -3.3766
13511TIP3    H262025   4.690   5.520  14.759 -2.1749  0.2662 -0.5595
13512TIP3   OH262026   1.167   0.426  11.375 -0.0144  0.2341 -0.2176
13512TIP3    H162027   1.189   0.422  11.282  1.6312  1.0262  0.0939
13512TIP3    H262028   1.205   0.346  11.412  1.2964  0.9880  0.1148
13513TIP3   OH262029   1.750   5.183  16.514 -0.2924 -0.3594 -0.3668
13513TIP3    H162030   1.665   5.143  16.532 -0.6011  0.1758 -0.5810
13513TIP3    H262031   1.814   5.123  16.551 -0.8047 -0.3452  0.5787
13514TIP3   OH262032   0.212   5.112  12.609 -0.4545  0.0871  0.0064
13514TIP3    H162033   0.234   5.024  12.639 -0.5848  0.2668  0.6419
13514TIP3    H262034   0.257   5.121  12.525  1.9014  0.4126  1.2110
13515TIP3   OH262035   2.087   5.352  12.689 -0.4235  0.4806 -0.1966
13515TIP3    H162036   1.995   5.331  12.677  0.0778 -2.1862 -0.0594
13515TIP3    H262037   2.117   5.291  12.758  1.5827  0.7571 -0.7441
13516TIP3   OH262038   1.848   3.277   3.653  0.6149  0.9239  0.3032
13516TIP3    H162039   1.847   3.360   3.700  3.7733  0.7750  0.8742
13516TIP3    H262040   1.914   3.225   3.698  0.7343 -0.8382 -1.7372
13517TIP3   OH262041   1.479   2.072   5.621 -0.6968 -0.0361 -0.2688
13517TIP3    H162042   1.479   2.128   5.698 -0.6833  1.7816 -1.5298
13517TIP3    H262043   1.411   2.007   5.638 -1.2409  0.8093  0.9277
13518TIP3   OH262044   5.499   0.412   5.772  0.8471  0.6081 -0.9751
13518TIP3    H162045   5.505   0.326   5.814 -0.5065  0.6678 -0.6216
13518TIP3    H262046   5.560   0.407   5.698 -0.0426 -1.0726 -1.6457
13519TIP3   OH262047   5.344   2.407   4.071 -0.1081  0.7912  0.1702
13519TIP3    H162048   5.421   2.372   4.116 -0.1396  0.9860  0.3771
13519TIP3    H262049   5.310   2.334   4.020 -0.1921  0.5098  0.6249
13520TIP3   OH262050   6.566   2.773   3.208 -0.7215 -0.0896  0.1586
13520TIP3    H162051   6.543   2.692   3.162 -1.8610  0.2561  0.0694
13520TIP3    H262052   6.602   2.744   3.292  1.2684 -0.7221 -0.8539
13521TIP3   OH262053   5.065   3.459  15.497  0.3580  0.5139 -0.0589
13521TIP3    H162054   4.993   3.399  15.478  1.0359 -0.0482 -0.9522
13521TIP3    H262055   5.022   3.540  15.524 -0.6994  0.7126 -2.1096
13522TIP3   OH262056   3.173   1.768   2.471 -0.0596 -0.6329  0.2471
13522TIP3    H162057   3.192   1.811   2.387  0.8540  0.2004  0.8528
13522TIP3    H262058   3.246   1.708   2.484 -1.2302 -2.3020 -0.4958
13523TIP3   OH262059   5.732   1.597  16.821  0.5985  0.2338 -0.2967
13523TIP3    H162060   5.713   1.585  16.728 -0.8361  1.7416 -0.2373
13523TIP3    H262061   5.757   1.689  16.828 -1.5204  0.7647  1.1086
13524TIP3   OH262062   2.476   4.866   5.646  0.0335  0.2694 -0.5029
13524TIP3    H162063   2.513   4.797   5.590 -0.8403 -0.9280  0.3627
13524TIP3    H262064   2.483   4.831   5.735  1.1381  2.0322  0.1478
13525TIP3   OH262065   1.270   5.720  15.765  0.0730  0.0156 -0.3051
13525TIP3    H162066   1.340   5.766  15.718  1.5142 -0.3386  1.3785
13525TIP3    H262067   1.269   5.761  15.851 -0.9996 -0.8035  0.0963
13526TIP3   OH262068   6.762   0.086   0.441 -0.1253  0.1916  0.0689
13526TIP3    H162069   6.807   0.036   0.373 -0.0785  0.1181  0.1534
13526TIP3    H262070   6.670   0.083   0.415 -0.0430  0.6170 -0.2795
13527TIP3   OH262071   6.525   1.113  11.540 -0.3176 -0.1582  0.0663
13527TIP3    H162072   6.595   1.140  11.481  0.3400 -1.3662  0.2659
13527TIP3    H262073   6.463   1.066  11.484 -0.8998  0.7466 -0.0763
13528TIP3   OH262074   0.246   6.764  15.030  0.0985 -0.4221 -0.2692
13528TIP3    H162075   0.245   6.672  15.003  1.4303 -0.5288 -0.0034
13528TIP3    H262076   0.265   6.812  14.949  0.0700 -0.4335 -0.2826
13529TIP3   OH262077   4.236   2.494   5.371 -0.2684  0.0742  0.2594
13529TIP3    H162078   4.326   2.493   5.403 -0.3176 -0.8537  0.3986
13529TIP3    H262079   4.213   2.587   5.367  1.4200  0.4914 -1.8776
13530TIP3   OH262080   3.250   2.887  16.785  0.3162 -0.0755  0.1496
13530TIP3    H162081   3.325   2.922  16.833  0.8796 -0.4081 -0.4490
13530TIP3    H262082   3.226   2.956  16.723  2.0535 -1.0154 -1.7156
13531TIP3   OH262083   3.587   3.795  11.096 -0.2014  0.2680 -0.1557
13531TIP3    H162084   3.554   3.786  11.006 -1.7965  0.6873  0.3503
13531TIP3    H262085   3.573   3.887  11.117  0.8220  0.3278  0.2925
13532TIP3   OH262086   0.192   6.403  11.335 -0.4701 -0.0505 -0.3413
13532TIP3    H162087   0.173   6.393  11.241  1.5595 -2.0349 -0.6376
13532TIP3    H262088   0.271   6.458  11.337 -1.5544  1.5533  0.3707
13533TIP3   OH262089   5.756   6.725  13.198  0.5023  0.2936  0.2523
13533TIP3    H162090   5.684   6.761  13.250 -0.2682 -0.5726 -0.1898
13533TIP3    H262091   5.744   6.764  13.111 -1.4605 -2.3225 -0.7784
13534TIP3   OH262092   2.692   5.782  11.788  0.1137 -0.0500  0.6394
13534TIP3    H162093   2.598   5.781  11.772  0.3179  1.5006 -0.9756
13534TIP3    H262094   2.704   5.844  11.859 -0.0155  0.6911  0.0309
13535TIP3   OH262095   2.486   4.482   1.293  0.4832  0.5840  0.3896
13535TIP3    H162096   2.422   4.553   1.298  1.8611  1.9149 -0.0849
13535TIP3    H262097   2.434   4.404   1.271 -1.1053  1.3627  1.2435
13536TIP3   OH262098   3.682   1.616   6.731  0.5550 -0.1144 -0.1977
13536TIP3    H162099   3.637   1.683   6.783  1.2329 -0.9911  1.5858
13536TIP3    H262100   3.713   1.663   6.653  0.1439  1.4126  0.5218
13537TIP3   OH262101   0.070   2.907   0.759  0.2058  0.3726 -0.0948
13537TIP3    H162102   0.013   2.834   0.780 -0.0456  0.6227  0.0996
13537TIP3    H262103   0.158   2.877   0.780  0.2966 -0.4539 -1.5254
13538TIP3   OH262104   5.385   3.256   2.950 -0.6711 -0.3991 -0.6811
13538TIP3    H162105   5.302   3.245   2.995 -0.0722 -5.1341 -0.2277
13538TIP3    H262106   5.448   3.276   3.019 -0.5324 -3.1052  0.1001
13539TIP3   OH262107   3.939   6.344   4.321  0.1877  0.1969  0.1558
13539TIP3    H162108   3.882   6.419   4.306  0.6831  0.4955 -0.2665
13539TIP3    H262109   4.025   6.373   4.290  0.8825  0.2264  1.9686
13540TIP3   OH262110   1.221   5.858  14.290 -0.2137  0.2744  0.3554
13540TIP3    H162111   1.224   5.764  14.309  1.5569 -0.0291 -1.0750
13540TIP3    H262112   1.169   5.864  14.210 -0.2774  0.5156  0.4153
13541TIP3   OH262113   1.295   2.101  11.790  0.2949  0.2293 -0.1282
13541TIP3    H162114   1.389   2.110  11.771  0.1824  1.9402  0.0239
13541TIP3    H262115   1.254   2.092  11.704  0.3677  2.1227 -0.3983
13542TIP3   OH262116   5.649   1.048  11.838 -0.1270  0.4946 -0.5117
13542TIP3    H162117   5.738   1.082  11.827  0.2747 -0.6025 -0.7679
13542TIP3    H262118   5.633   0.994  11.760 -1.0842  0.8031 -0.5480
13543TIP3   OH262119   4.650   0.528   4.646  0.5666  0.0082 -0.1178
13543TIP3    H162120   4.619   0.599   4.589  0.2541 -0.6839 -0.8342
13543TIP3    H262121   4.644   0.449   4.591  3.1027 -0.2685 -0.1323
13544TIP3   OH262122   6.589   4.035  10.747  0.0290 -0.6326 -0.0681
13544TIP3    H162123   6.646   4.100  10.706  1.3760 -0.8512  1.3682
13544TIP3    H262124   6.649   3.974  10.790 -1.2622 -0.8021  1.6117
13545TIP3   OH262125   3.329   6.271   1.424  0.3433 -0.3577  0.3252
13545TIP3    H162126   3.292   6.195   1.380 -0.5881 -0.0182  0.5113
13545TIP3    H262127   3.340   6.243   1.515 -1.4046  0.1892  0.7345
13546TIP3   OH262128   0.574   1.807   1.149 -0.4954 -0.1756  0.2183
13546TIP3    H162129   0.661   1.845   1.162 -0.1918 -1.2705  1.6392
13546TIP3    H262130   0.526   1.874   1.099  0.9791  0.6696 -0.1330
13547TIP3   OH262131   3.308   6.119   4.894  0.8242 -0.5072  0.2984
13547TIP3    H162132   3.233   6.067   4.921  0.9286 -0.9660 -0.2627
13547TIP3    H262133   3.315   6.104   4.799  0.0591  1.5735 -0.1351
13548TIP3   OH262134   4.113   2.170   6.073  0.1865 -0.0244  0.0652
13548TIP3    H162135   4.081   2.200   6.158  2.2318  1.6489  0.3385
13548TIP3    H262136   4.192   2.121   6.094  0.1813 -0.4159 -0.8207
13549TIP3   OH262137   1.628   0.314   4.475 -0.0571  0.8183  0.5534
13549TIP3    H162138   1.698   0.313   4.540 -0.1259 -0.8082  0.6622
13549TIP3    H262139   1.658   0.374   4.406  2.1276 -0.8828 -0.0884
13550TIP3   OH262140   6.730   1.440  10.707 -0.2825  0.1866  0.3506
13550TIP3    H162141   6.713   1.488  10.788  1.4428 -1.2830  1.6741
13550TIP3    H262142   6.790   1.496  10.658  1.2370 -0.2509  1.6144
13551TIP3   OH262143   0.856   2.188   3.463 -0.4581  0.0803 -0.0168
13551TIP3    H162144   0.821   2.104   3.432  0.2401 -0.5356  0.8156
13551TIP3    H262145   0.797   2.214   3.534 -0.4329  0.0838  0.0030
13552TIP3   OH262146   1.061   5.225   4.034 -0.2959 -0.3843 -0.0363
13552TIP3    H162147   1.128   5.253   4.097 -1.6748 -0.8026  1.7224
13552TIP3    H262148   1.093   5.143   3.999  0.2639 -0.4292  0.5597
13553TIP3   OH262149   4.702   0.155   1.514  0.1187 -0.4281  0.0651
13553TIP3    H162150   4.756   0.225   1.550 -0.9372  0.1591  0.5596
13553TIP3    H262151   4.703   0.169   1.420  0.7886 -0.4083  0.0679
13554TIP3   OH262152   5.364   0.094   3.461  0.9361 -0.4466  0.0823
13554TIP3    H162153   5.374   0.106   3.555  1.8177  2.2964 -0.2874
13554TIP3    H262154   5.444   0.130   3.423 -0.7929  1.6104 -1.8704
13555TIP3   OH262155   1.285   3.278  14.690 -0.3492  0.0985  0.1843
13555TIP3    H162156   1.203   3.229  14.688 -0.2599 -0.0842  0.8816
13555TIP3    H262157   1.353   3.211  14.693 -0.0760  0.1921 -2.0843
13556TIP3   OH262158   3.815   1.488  11.181  0.2696 -0.1020  0.1423
13556TIP3    H162159   3.895   1.514  11.135  0.3516 -1.0588 -0.2743
13556TIP3    H262160   3.764   1.569  11.189  0.6369  0.2422 -0.8798
13557TIP3   OH262161   5.126   5.480  16.164 -0.3187 -0.5960  0.1482
13557TIP3    H162162   5.192   5.438  16.110  0.5098  2.5292 -1.5296
13557TIP3    H262163   5.056   5.504  16.104 -1.3243 -0.6623  1.2457
13558TIP3   OH262164   4.399   2.126   3.632  0.8328 -0.2564  0.0397
13558TIP3    H162165   4.325   2.186   3.635  0.4443 -0.6176 -1.3818
13558TIP3    H262166   4.361   2.040   3.649  1.0850 -0.3417  0.1910
13559TIP3   OH262167   0.812   3.727   3.140 -0.9239  0.1956  0.3700
13559TIP3    H162168   0.864   3.807   3.128 -2.5620  1.1616 -0.7985
13559TIP3    H262169   0.760   3.745   3.218  0.3343 -0.7219  1.4683
13560TIP3   OH262170   5.233   0.052   5.961 -0.5615 -0.3584  0.6731
13560TIP3    H162171   5.230  -0.007   5.886 -0.3508 -1.9001  1.8163
13560TIP3    H262172   5.242   0.139   5.923 -0.2662 -1.1074 -1.0724
13561TIP3   OH262173   1.113   1.405   2.522  0.5225  0.0851  0.2595
13561TIP3    H162174   1.093   1.440   2.609  0.6391  0.5395  0.1070
13561TIP3    H262175   1.052   1.449   2.463 -0.5107 -1.2719  0.2923
13562TIP3   OH262176   4.377   1.293   6.470  0.1873 -0.5229 -0.0080
13562TIP3    H162177   4.351   1.203   6.453 -1.8769  0.1015 -0.4320
13562TIP3    H262178   4.451   1.309   6.412 -2.2032 -0.6364 -3.3763
13563TIP3   OH262179   1.377   3.723  14.111 -0.0016 -0.1012 -0.4121
13563TIP3    H162180   1.398   3.663  14.183  0.8212 -1.7817 -1.9793
13563TIP3    H262181   1.461   3.765  14.090 -0.2473  0.4079 -0.3883
13564TIP3   OH262182   4.591   5.057   1.851  0.2857 -0.0455 -0.1913
13564TIP3    H162183   4.530   5.047   1.924  0.1843  1.3474 -0.0627
13564TIP3    H262184   4.574   4.981   1.795 -1.1160 -0.0227  0.1654
13565TIP3   OH262185   2.409   5.221  13.577  0.4220 -0.2469  0.3736
13565TIP3    H162186   2.470   5.147  13.576 -0.1383 -0.7251  0.7655
13565TIP3    H262187   2.323   5.181  13.583 -0.1781  0.2863 -2.8993
13566TIP3   OH262188   6.007   1.834   3.777  0.3988 -0.4901 -0.3682
13566TIP3    H162189   5.918   1.799   3.783  0.4717 -0.7090 -0.5430
13566TIP3    H262190   6.024   1.838   3.683 -0.1086  1.2944 -0.4167
13567TIP3   OH262191   3.186   2.296   0.520  0.2486 -0.1233  0.7968
13567TIP3    H162192   3.250   2.260   0.581  0.4769 -0.2787  0.4677
13567TIP3    H262193   3.237   2.321   0.443 -0.2721 -1.6083 -0.0633
13568TIP3   OH262194   6.596   4.566  16.992  0.2984  0.4974 -0.0872
13568TIP3    H162195   6.617   4.655  16.963  1.2723 -0.2385 -1.8520
13568TIP3    H262196   6.552   4.527  16.916  2.3545 -1.3525 -0.4124
13569TIP3   OH262197   2.894   5.838  16.809 -0.3986 -0.0277  0.2165
13569TIP3    H162198   2.815   5.810  16.761  0.7246 -2.5690 -0.3577
13569TIP3    H262199   2.959   5.771  16.788  2.0118  2.0595  0.5286
13570TIP3   OH262200   3.657   3.749  12.101 -0.2099  0.3965 -0.2279
13570TIP3    H162201   3.713   3.707  12.167 -0.0117 -0.4488 -0.9148
13570TIP3    H262202   3.702   3.734  12.018 -2.3006 -1.9606 -1.0825
13571TIP3   OH262203   4.073   1.540  12.332 -0.2206  0.0573 -0.1395
13571TIP3    H162204   4.015   1.466  12.316  1.9376 -1.6443 -0.5744
13571TIP3    H262205   4.141   1.531  12.266  2.4998 -0.1783  2.4968
13572TIP3   OH262206   0.548   5.962  16.324  0.0833  0.4224  0.1906
13572TIP3    H162207   0.528   5.946  16.416 -0.5914  0.1712  0.0029
13572TIP3    H262208   0.639   5.991  16.324 -0.3209  1.7859  1.0833
13573TIP3   OH262209   5.405   4.446  13.497 -0.0635 -0.0484  0.1413
13573TIP3    H162210   5.392   4.482  13.410  1.1019 -1.3401 -0.6095
13573TIP3    H262211   5.320   4.456  13.541 -0.4652  1.2436 -0.8839
13574TIP3   OH262212   2.372   2.131   1.894 -0.1874  0.2119  0.0070
13574TIP3    H162213   2.397   2.100   1.981 -0.3272 -2.2308 -0.7539
13574TIP3    H262214   2.281   2.159   1.903 -0.1998 -0.0320  0.6352
13575TIP3   OH262215   1.927   1.826  16.203 -0.3301  0.1202 -0.9806
13575TIP3    H162216   1.975   1.825  16.286 -1.2740 -2.8858 -0.3409
13575TIP3    H262217   1.992   1.849  16.138  0.8040  0.9583  0.3757
13576TIP3   OH262218   3.063   1.238  11.616 -0.0344 -0.3914 -0.2889
13576TIP3    H162219   3.012   1.242  11.535  1.2165  0.0977 -1.0805
13576TIP3    H262220   3.153   1.259  11.590  0.2339  0.7590  1.3787
13577TIP3   OH262221   4.452   0.413   5.848  0.5990 -0.2483  0.2886
13577TIP3    H162222   4.365   0.411   5.888 -0.9377 -1.7019 -2.7772
13577TIP3    H262223   4.464   0.503   5.820  0.2687  0.0410  1.0526
13578TIP3   OH262224   6.236   4.879  11.162 -0.0237 -0.2579 -0.0004
13578TIP3    H162225   6.289   4.896  11.084  0.8783  0.8399  0.8373
13578TIP3    H262226   6.146   4.872  11.128 -0.1747  3.5089 -0.8251
13579TIP3   OH262227   1.731   4.104  10.813  0.1194 -0.3264  0.6932
13579TIP3    H162228   1.794   4.087  10.744  2.5635  0.8855  2.4818
13579TIP3    H262229   1.698   4.017  10.838 -0.5780 -0.8124 -1.6565
13580TIP3   OH262230   2.370   0.870   3.591 -0.2316 -0.5223 -0.2180
13580TIP3    H162231   2.282   0.890   3.560 -1.4020 -2.3669  1.7294
13580TIP3    H262232   2.390   0.784   3.554  0.1181 -0.8020  0.5960
13581TIP3   OH262233   1.685   1.396  14.047 -0.2389  0.2190  0.4481
13581TIP3    H162234   1.768   1.363  14.011  0.2247  0.8001  0.9651
13581TIP3    H262235   1.635   1.423  13.970 -0.0408 -0.3473  0.1153
13582TIP3   OH262236   3.577   1.955   5.897  0.0036  0.1109 -0.3037
13582TIP3    H162237   3.661   1.991   5.926  1.1347 -1.4791 -1.4852
13582TIP3    H262238   3.560   1.883   5.957 -0.0042 -0.2233 -0.7073
13583TIP3   OH262239   2.188   4.097   5.090 -0.4745  0.4960 -1.2484
13583TIP3    H162240   2.174   4.168   5.153  0.2775  1.5258 -2.2002
13583TIP3    H262241   2.102   4.056   5.082 -0.1838 -1.0447  1.9851
13584TIP3   OH262242   3.311   3.709  13.467  0.0431  0.5431 -0.3575
13584TIP3    H162243   3.280   3.765  13.395 -0.6158 -0.4623 -0.8744
13584TIP3    H262244   3.232   3.686  13.515  0.5244  1.5040  0.9405
13585TIP3   OH262245   4.824   0.320   2.765  0.1155 -0.3489 -0.2804
13585TIP3    H162246   4.729   0.331   2.769  0.2336  0.7070 -0.2826
13585TIP3    H262247   4.859   0.377   2.833  0.7693 -0.4433 -0.5257
13586TIP3   OH262248   1.061   5.764  10.834  0.2330  0.1969 -0.4026
13586TIP3    H162249   1.088   5.836  10.891 -0.3880  1.3614 -1.5356
13586TIP3    H262250   1.142   5.715  10.818  0.6241  0.5067  0.5352
13587TIP3   OH262251   2.761   3.214  17.238 -0.4521 -0.2491 -0.2670
13587TIP3    H162252   2.762   3.166  17.322  2.2754  1.5137  0.8251
13587TIP3    H262253   2.808   3.156  17.178  1.0408  0.1045  0.5068
13588TIP3   OH262254   4.812   0.570   3.289  1.0500 -0.1402 -0.4263
13588TIP3    H162255   4.728   0.527   3.272  0.2591 -0.2893  3.1575
13588TIP3    H262256   4.797   0.661   3.266 -0.3271 -0.0527  0.6874
13589TIP3   OH262257   2.321   3.069   3.265  0.0430 -1.0090 -0.5178
13589TIP3    H162258   2.413   3.047   3.247 -0.2489 -1.8979 -0.9816
13589TIP3    H262259   2.294   3.123   3.191  0.3096 -0.3791 -0.1630
13590TIP3   OH262260   4.025   5.497  15.435 -0.2142 -0.6417  0.3216
13590TIP3    H162261   3.956   5.483  15.370  0.2940  3.7930 -1.4895
13590TIP3    H262262   4.106   5.499  15.384  0.7250 -1.0853  1.7298
13591TIP3   OH262263   1.537   4.039   4.361 -0.6043 -0.0593 -0.3029
13591TIP3    H162264   1.521   4.025   4.454 -0.6556 -0.2794 -0.3463
13591TIP3    H262265   1.525   3.954   4.320 -0.9107  0.1030 -0.5585
13592TIP3   OH262266   2.888   3.039  15.292 -0.3191 -0.1097  0.6074
13592TIP3    H162267   2.957   3.076  15.237 -1.6225  2.8185  0.7060
13592TIP3    H262268   2.809   3.046  15.239 -0.8252 -2.0731  1.0138
13593TIP3   OH262269   6.434   4.997   3.939  0.3880  0.1839 -0.1626
13593TIP3    H162270   6.524   4.999   3.905 -0.3132 -1.6454 -2.2979
13593TIP3    H262271   6.384   5.050   3.878 -0.5012 -1.3445 -0.8084
13594TIP3   OH262272   4.534   6.066   3.981 -0.1814  0.2419  0.3078
13594TIP3    H162273   4.514   6.073   3.887  2.2815 -2.1482 -0.5133
13594TIP3    H262274   4.520   6.155   4.015  0.8632  1.7258 -2.7694
13595TIP3   OH262275   1.688   3.942   3.465  0.2569  0.1417  0.0550
13595TIP3    H162276   1.714   3.882   3.395 -0.7968  0.5795 -0.7359
13595TIP3    H262277   1.638   3.887   3.526  0.1805 -0.0071 -0.1385
13596TIP3   OH262278   5.196   4.203  12.033  0.3546 -0.3922  0.3253
13596TIP3    H162279   5.248   4.244  11.964 -0.2878 -1.0782 -0.5870
13596TIP3    H262280   5.246   4.124  12.056  0.4760 -0.2589  0.5261
13597TIP3   OH262281   3.525   3.312  14.720 -0.2125 -0.2095 -0.0141
13597TIP3    H162282   3.534   3.258  14.642  1.4661  0.1705 -0.1163
13597TIP3    H262283   3.450   3.369  14.702  0.5329  0.3072 -1.6117
13598TIP3   OH262284   4.715   1.265   4.620  0.3462  0.6742  0.4117
13598TIP3    H162285   4.791   1.208   4.626  0.8794  1.2072 -0.8297
13598TIP3    H262286   4.746   1.350   4.652  0.3196  0.9245 -0.2156
13599TIP3   OH262287   1.467   6.062   4.624  0.0793 -0.0574 -0.8863
13599TIP3    H162288   1.517   5.981   4.617  1.1537  0.6218 -1.3623
13599TIP3    H262289   1.380   6.034   4.651  1.2037 -1.1100  1.9944
13600TIP3   OH262290   4.515   2.507  11.422  0.1123 -0.0896 -0.0357
13600TIP3    H162291   4.507   2.453  11.500 -0.0551  0.9103  0.6636
13600TIP3    H262292   4.437   2.486  11.370  0.2649 -0.8161  0.0145
13601TIP3   OH262293   2.799   6.281   5.699 -0.1329 -0.1697 -0.4585
13601TIP3    H162294   2.880   6.330   5.710 -0.9743  1.1215  0.1497
13601TIP3    H262295   2.815   6.225   5.622  0.4867  1.8319 -1.8736
13602TIP3   OH262296   4.897   4.668  16.557 -0.7732  0.1193  0.1329
13602TIP3    H162297   4.975   4.680  16.503 -0.4488  2.2007  1.0042
13602TIP3    H262298   4.873   4.576  16.544  1.5112 -0.4339 -0.5469
13603TIP3   OH262299   3.289   0.373  13.875 -0.8509 -0.3252 -0.3869
13603TIP3    H162300   3.363   0.352  13.933 -1.0621 -0.7563 -0.2694
13603TIP3    H262301   3.213   0.376  13.934 -1.3384 -2.3536 -0.8511
13604TIP3   OH262302   6.314   0.966   1.155 -0.3971  0.0445 -0.1271
13604TIP3    H162303   6.259   1.044   1.150 -0.3456  0.0819 -0.1052
13604TIP3    H262304   6.392   0.988   1.103 -1.0553 -0.5382 -1.4163
13605TIP3   OH262305   5.478   5.911   2.426  0.0640 -0.3973 -0.6819
13605TIP3    H162306   5.514   5.851   2.492 -1.7303  0.6059  1.3610
13605TIP3    H262307   5.463   5.993   2.474 -1.7074  0.2480 -2.2136
13606TIP3   OH262308   3.327   0.570  15.503  0.6115  0.5379 -0.1758
13606TIP3    H162309   3.238   0.605  15.508 -0.5350 -1.9683 -1.0955
13606TIP3    H262310   3.366   0.592  15.588 -0.4011  2.8086 -0.2425
13607TIP3   OH262311   3.083   5.628   2.302 -0.9521  0.1181 -0.1220
13607TIP3    H162312   3.139   5.571   2.355  0.2623  1.8300  0.5077
13607TIP3    H262313   3.117   5.716   2.317 -2.2360  0.9366 -1.7401
13608TIP3   OH262314   6.102   1.323  12.164  0.2104  0.7259 -0.0602
13608TIP3    H162315   6.104   1.269  12.243 -0.6194  1.0662  0.2027
13608TIP3    H262316   6.188   1.309  12.123 -0.3296 -1.6238 -0.5592
13609TIP3   OH262317   4.035   5.695  15.194 -0.2302  0.1043 -0.0695
13609TIP3    H162318   4.117   5.710  15.240 -0.8764 -0.9718  1.5403
13609TIP3    H262319   4.034   5.601  15.177 -1.0075  0.1512 -0.3216
13610TIP3   OH262320   6.619   4.452  14.667  0.1123 -0.1611  0.0777
13610TIP3    H162321   6.650   4.541  14.682  1.0472 -0.0550 -2.0760
13610TIP3    H262322   6.529   4.463  14.634 -0.9454 -0.2530  2.7207
13611TIP3   OH262323   2.820   5.797  13.825 -0.2292  0.1331 -0.4743
13611TIP3    H162324   2.769   5.720  13.850  1.5091 -0.6645  0.8471
13611TIP3    H262325   2.911   5.770  13.837  0.5062  1.7416 -1.9952
13612TIP3   OH262326   1.171   4.735  11.636 -0.0909  0.3651  0.1672
13612TIP3    H162327   1.114   4.712  11.562  0.4782  2.3202 -0.9754
13612TIP3    H262328   1.224   4.657  11.652  0.4094  0.1561 -2.1514
13613TIP3   OH262329   4.802   5.757   6.198 -0.2304  0.1706 -0.0640
13613TIP3    H162330   4.724   5.706   6.218  0.2936 -0.5139  0.2804
13613TIP3    H262331   4.844   5.771   6.282  0.5478 -0.3499 -0.3511
13614TIP3   OH262332   4.062   1.455  13.182  0.0539  0.0846  0.0643
13614TIP3    H162333   4.089   1.464  13.273  1.6336  2.8209 -0.5698
13614TIP3    H262334   3.981   1.505  13.176 -0.3025 -0.4856  0.0398
13615TIP3   OH262335   2.305   4.831   3.188 -0.6793  0.1419 -0.0433
13615TIP3    H162336   2.295   4.752   3.135  0.2766  0.2717 -0.4447
13615TIP3    H262337   2.268   4.901   3.135  2.0766  0.6298 -1.5336
13616TIP3   OH262338   2.551   5.803   5.183  0.1416  0.2953 -0.0096
13616TIP3    H162339   2.645   5.821   5.176 -0.2633  2.1524 -1.4784
13616TIP3    H262340   2.539   5.720   5.137  0.5687  2.0534 -3.6461
13617TIP3   OH262341   2.264   6.816   3.575  0.2247 -0.0834 -0.0953
13617TIP3    H162342   2.260   6.729   3.614 -1.0628  0.7152  1.6571
13617TIP3    H262343   2.357   6.840   3.580  0.5115 -1.1181 -0.1323
13618TIP3   OH262344   4.368   2.881   0.347  0.2325  0.8861  0.0743
13618TIP3    H162345   4.443   2.828   0.322  0.3156  1.5980 -1.2299
13618TIP3    H262346   4.384   2.902   0.439  1.5395  0.8793 -0.1337
13619TIP3   OH262347   2.947   3.105  17.068 -0.2476  0.0761  0.2332
13619TIP3    H162348   2.964   3.136  16.979 -0.8447 -0.2667 -0.0076
13619TIP3    H262349   2.948   3.009  17.061 -2.5333 -0.0006  0.1093
13620TIP3   OH262350   3.473   2.501   1.109  0.4334 -0.0545 -0.3011
13620TIP3    H162351   3.445   2.483   1.199 -1.2350  1.6065 -0.4305
13620TIP3    H262352   3.477   2.414   1.068  1.5428 -0.8764  1.4174
13621TIP3   OH262353   3.555   5.113   3.374 -0.5325  0.4440  0.1676
13621TIP3    H162354   3.544   5.160   3.457  0.2286  0.7475  0.1001
13621TIP3    H262355   3.580   5.181   3.311 -0.1417  0.0621 -0.0906
13622TIP3   OH262356   5.741   2.325  15.219 -0.7654 -0.7384 -0.2463
13622TIP3    H162357   5.678   2.300  15.287 -1.3993 -0.0983 -0.5834
13622TIP3    H262358   5.811   2.370  15.267 -2.2216  1.6280 -0.1883
13623TIP3   OH262359   1.980   5.944   2.410  0.2493 -0.3161  0.0938
13623TIP3    H162360   1.923   6.021   2.417  0.5676  0.0045 -0.7177
13623TIP3    H262361   1.919   5.871   2.397  0.0049 -0.0007 -0.5846
13624TIP3   OH262362   5.311   0.480  16.513 -0.2752  0.0292 -1.0096
13624TIP3    H162363   5.273   0.523  16.436 -0.9897  1.6740  0.1834
13624TIP3    H262364   5.239   0.428  16.549 -0.7227  1.1645 -0.1618
13625TIP3   OH262365   4.883   5.828   1.477 -0.1811 -0.2509 -0.8904
13625TIP3    H162366   4.823   5.821   1.551 -0.2060  2.0588 -0.5993
13625TIP3    H262367   4.841   5.890   1.418  0.1854 -1.4982 -2.5271
13626TIP3   OH262368   5.746   3.811   5.914 -0.3133  0.0315 -0.0470
13626TIP3    H162369   5.694   3.846   5.842 -1.5773  1.8966  1.6609
13626TIP3    H262370   5.745   3.716   5.901  0.7871  0.3438 -3.2643
13627TIP3   OH262371   1.367   0.252  16.770 -0.4638  0.0351 -0.4482
13627TIP3    H162372   1.275   0.250  16.798 -0.9851  0.9039 -1.9836
13627TIP3    H262373   1.373   0.330  16.716  1.4046  0.4221  0.2681
13628TIP3   OH262374   4.072   1.808  12.656  0.3600  0.1129 -1.0466
13628TIP3    H162375   4.111   1.893  12.674  0.6537 -0.3923  0.9597
13628TIP3    H262376   4.144   1.755  12.622  1.5134 -0.7132  2.3149
13629TIP3   OH262377   2.359   2.097  10.287  0.3023 -0.5636  0.3666
13629TIP3    H162378   2.445   2.116  10.249  0.8373  0.0428  1.8144
13629TIP3    H262379   2.359   2.002  10.301  1.2592 -0.4070  1.5279
13630TIP3   OH262380   3.136   5.550  12.785 -0.2955 -0.4979  0.5016
13630TIP3    H162381   3.227   5.527  12.802  0.1129 -1.1242 -2.0989
13630TIP3    H262382   3.107   5.488  12.719 -2.0658  0.7840 -0.0235
13631TIP3   OH262383   5.606   1.297  11.460  0.4931  0.1599  0.0089
13631TIP3    H162384   5.583   1.211  11.424  2.1493 -0.1947 -0.2648
13631TIP3    H262385   5.526   1.326  11.504 -0.0729 -1.5756  0.2148
13632TIP3   OH262386   5.757   1.797   4.472 -0.2834  0.0586 -0.5752
13632TIP3    H162387   5.725   1.877   4.512 -0.6211 -0.3560 -0.0006
13632TIP3    H262388   5.847   1.789   4.504 -0.2684  0.1750 -0.5873
13633TIP3   OH262389   3.214   1.971  16.093  0.4220 -0.1512  0.0893
13633TIP3    H162390   3.164   1.952  16.013  0.3517  0.5188 -0.0262
13633TIP3    H262391   3.162   1.932  16.163 -0.7761  1.3384  0.0825
13634TIP3   OH262392   5.677   6.605   3.560  0.5281 -0.2150  0.1139
13634TIP3    H162393   5.737   6.565   3.622  1.1799 -0.2149 -0.5116
13634TIP3    H262394   5.593   6.563   3.577  0.8265 -0.6115  0.6187
13635TIP3   OH262395   6.657   1.498   4.300 -0.1964 -0.3984 -0.3458
13635TIP3    H162396   6.751   1.482   4.290  0.2931  1.2035  1.1138
13635TIP3    H262397   6.637   1.468   4.388 -0.5329  1.2699  0.1791
13636TIP3   OH262398   5.984   2.111   0.081  0.0421  0.2128  0.3745
13636TIP3    H162399   6.009   2.150   0.164 -1.2267  1.1916  0.3230
13636TIP3    H262400   5.915   2.168   0.047 -1.1191 -1.4791 -0.2190
13637TIP3   OH262401   3.395   1.114   1.109 -0.0120 -0.0090  0.1106
13637TIP3    H162402   3.345   1.185   1.149 -0.0689 -0.1352  0.2647
13637TIP3    H262403   3.396   1.134   1.015  0.2067  0.3407  0.1864
13638TIP3   OH262404   2.147   4.077   5.980  0.5293  0.3053 -0.5818
13638TIP3    H162405   2.080   4.129   5.935 -2.1323  0.2827  2.9170
13638TIP3    H262406   2.168   4.128   6.058  0.9585 -1.9034  0.8386
13639TIP3   OH262407   1.002   1.273  14.584  0.1959 -0.4525  0.5992
13639TIP3    H162408   1.029   1.228  14.665  1.3428  0.1008  0.5400
13639TIP3    H262409   0.991   1.202  14.521  1.8182 -0.7018  0.5543
13640TIP3   OH262410   5.295   2.613  17.043 -0.3924  0.8827  0.2078
13640TIP3    H162411   5.265   2.523  17.036 -0.9733  0.9669  1.3958
13640TIP3    H262412   5.262   2.656  16.965 -0.1824  0.0921 -0.3253
13641TIP3   OH262413   0.046   1.987  15.348 -0.3123 -0.1502  0.2056
13641TIP3    H162414   0.010   2.038  15.276  1.3050 -2.1548 -2.1819
13641TIP3    H262415   0.122   2.038  15.377 -0.9252  0.6278  0.4955
13642TIP3   OH262416   5.784   3.334  15.117  0.1705 -0.3951  0.0954
13642TIP3    H162417   5.855   3.385  15.158  0.2240 -1.2762  1.1416
13642TIP3    H262418   5.705   3.364  15.162 -0.2618  1.0716 -1.5299
13643TIP3   OH262419   4.694   2.276   3.129 -0.3249 -0.6719 -0.3849
13643TIP3    H162420   4.782   2.307   3.150 -1.1442  1.2439  0.4765
13643TIP3    H262421   4.637   2.326   3.187 -1.9538 -2.3189 -0.4795
13644TIP3   OH262422   2.903   5.362   2.791 -0.2835  0.2736 -0.4561
13644TIP3    H162423   2.883   5.410   2.872  0.2699  0.8914 -0.6793
13644TIP3    H262424   2.903   5.429   2.723 -0.3067 -0.1767 -0.9042
13645TIP3   OH262425   2.262   1.379  15.921 -0.5189 -0.4122 -0.3738
13645TIP3    H162426   2.197   1.309  15.925  1.4675 -2.3395  0.1602
13645TIP3    H262427   2.279   1.389  15.827 -1.3663 -0.0578 -0.5037
13646TIP3   OH262428   6.740   2.563  14.815  0.0384 -0.1983  0.7317
13646TIP3    H162429   6.784   2.614  14.883  0.3514 -0.2278  0.5533
13646TIP3    H262430   6.809   2.540  14.753 -0.3710  0.5339 -0.0338
13647TIP3   OH262431   1.488   1.008   1.035  0.2174  0.5233 -0.6551
13647TIP3    H162432   1.427   0.965   1.095 -0.6058  0.4676 -1.5070
13647TIP3    H262433   1.538   0.937   0.996 -0.4970  0.4061 -1.3688
13648TIP3   OH262434   4.845   1.965  12.137 -0.1911  0.2139  0.4788
13648TIP3    H162435   4.921   2.000  12.185  0.7264 -3.8720  2.5060
13648TIP3    H262436   4.770   2.011  12.174  0.8835  0.2282  2.8314
13649TIP3   OH262437   0.594   0.395   2.366  0.4414 -0.5914 -0.0882
13649TIP3    H162438   0.679   0.410   2.408  0.1848  0.4531  0.0662
13649TIP3    H262439   0.531   0.395   2.439 -0.1152  2.0389 -0.4910
13650TIP3   OH262440   2.845   6.596   5.366 -0.4100 -0.6804 -0.1899
13650TIP3    H162441   2.831   6.555   5.280  0.6749 -0.9055 -0.2744
13650TIP3    H262442   2.795   6.677   5.362  1.2315  0.3428 -1.8520
13651TIP3   OH262443   4.329   4.604  14.463 -0.1701 -0.3188 -0.0594
13651TIP3    H162444   4.257   4.585  14.523  0.3331 -1.2198  0.2864
13651TIP3    H262445   4.342   4.522  14.415 -0.1281  0.1887 -0.9375
13652TIP3   OH262446   3.289   5.208  14.370 -0.0599 -0.2125  0.6980
13652TIP3    H162447   3.206   5.245  14.340 -1.6439 -1.0911  3.5892
13652TIP3    H262448   3.316   5.265  14.442  1.2138 -0.6420  0.5876
13653TIP3   OH262449   6.231   5.429   6.141  0.4215  0.6779  0.7681
13653TIP3    H162450   6.236   5.458   6.232  0.6028  0.4278  0.8393
13653TIP3    H262451   6.225   5.509   6.090 -2.4153  0.8084  1.1481
13654TIP3   OH262452   3.449   2.915   5.016  0.4689  0.2455  0.0114
13654TIP3    H162453   3.369   2.867   4.994  0.6575  0.5972 -1.6072
13654TIP3    H262454   3.430   2.956   5.100 -0.6241 -0.5917  0.2063
13655TIP3   OH262455   6.770   4.487  12.409  0.8221 -0.1141  0.0171
13655TIP3    H162456   6.776   4.517  12.318  0.9946 -0.8012 -0.2057
13655TIP3    H262457   6.707   4.415  12.406  0.3545  0.2626  0.5544
13656TIP3   OH262458   3.410   1.036  16.633  0.2024 -0.3267 -0.1925
13656TIP3    H162459   3.337   0.984  16.666  0.3202 -1.5832 -1.7990
13656TIP3    H262460   3.488   0.986  16.657  0.4075 -0.0981 -0.3769
13657TIP3   OH262461   2.197   6.527  16.244  0.0715 -0.6204  0.0468
13657TIP3    H162462   2.165   6.503  16.156 -2.5859 -0.3427  0.8391
13657TIP3    H262463   2.168   6.455  16.300 -2.8499  1.4834  1.4762
13658TIP3   OH262464   3.113   3.751  11.694  0.0915 -0.2369  0.3110
13658TIP3    H162465   3.097   3.761  11.788  1.7562  0.8414  0.5309
13658TIP3    H262466   3.030   3.720  11.658 -0.0906 -2.3323  2.3637
13659TIP3   OH262467   3.779   5.452  13.230  0.1220 -0.0657  0.0249
13659TIP3    H162468   3.770   5.375  13.285  0.7527 -0.1668 -0.0112
13659TIP3    H262469   3.700   5.452  13.176 -0.2417 -0.2627  0.5445
13660TIP3   OH262470   1.267   1.649  16.850  0.2112  0.5599  0.2966
13660TIP3    H162471   1.296   1.727  16.803 -0.1457  0.8481  0.5453
13660TIP3    H262472   1.279   1.671  16.942 -2.2835  1.3271  0.5116
13661TIP3   OH262473   5.425   6.171   4.160 -0.2300  0.0504  1.0276
13661TIP3    H162474   5.497   6.234   4.164 -0.1385  0.0867 -0.5499
13661TIP3    H262475   5.467   6.088   4.139 -0.7932  0.6367 -3.2407
13662TIP3   OH262476   1.369   6.463   5.642  0.6085  0.3628  0.5403
13662TIP3    H162477   1.345   6.404   5.714 -0.4028  1.0671  0.7975
13662TIP3    H262478   1.331   6.547   5.667 -0.3281  0.4580 -1.1363
13663TIP3   OH262479   4.581   2.561   0.899  0.2785 -0.2614  0.4462
13663TIP3    H162480   4.661   2.604   0.931 -0.0415 -1.3598  2.9453
13663TIP3    H262481   4.610   2.473   0.875 -0.1482 -0.6584  1.3488
13664TIP3   OH262482   4.129   3.658   0.391  0.2886  1.1627 -0.3509
13664TIP3    H162483   4.156   3.697   0.308 -1.4582  0.0849 -1.4927
13664TIP3    H262484   4.033   3.660   0.389  0.1522 -1.1083  0.5143
13665TIP3   OH262485   3.329   2.407  16.081 -0.1846  0.4087 -0.1539
13665TIP3    H162486   3.394   2.339  16.098 -0.5036 -0.1552 -1.1098
13665TIP3    H262487   3.275   2.409  16.160  0.3562  0.1476  0.2228
13666TIP3   OH262488   2.612   4.395  16.620  0.2285  0.5841 -0.2565
13666TIP3    H162489   2.530   4.425  16.657 -0.2565 -1.9024  0.9224
13666TIP3    H262490   2.680   4.440  16.670 -0.4382  0.6426  0.6017
13667TIP3   OH262491   0.791   3.266  12.697 -0.6234 -0.4496  0.4841
13667TIP3    H162492   0.856   3.323  12.737 -1.6446  2.1887 -1.3820
13667TIP3    H262493   0.712   3.319  12.689 -1.3792 -1.7604 -2.1914
13668TIP3   OH262494   0.191   5.785  13.326  0.1298 -0.1874  0.4468
13668TIP3    H162495   0.234   5.790  13.412 -0.5012  0.6138  0.7278
13668TIP3    H262496   0.098   5.798  13.345 -0.0017  0.1074 -0.3763
13669TIP3   OH262497   2.387   6.582   1.558  0.6308 -0.4927  0.0590
13669TIP3    H162498   2.472   6.568   1.598  0.9377 -0.1764 -0.4781
13669TIP3    H262499   2.367   6.500   1.512 -0.1544 -1.2247  1.5985
13670TIP3   OH262500   2.797   2.146   4.275 -0.5452 -0.1327 -0.3275
13670TIP3    H162501   2.838   2.197   4.205 -1.2240  0.9574  0.0412
13670TIP3    H262502   2.759   2.212   4.333  0.3810 -0.9740  1.3258
13671TIP3   OH262503   2.180   3.672  15.830 -0.1703  0.2894 -0.5645
13671TIP3    H162504   2.243   3.741  15.851 -1.7404  2.4291 -2.3873
13671TIP3    H262505   2.224   3.618  15.765 -0.1021  1.6969 -1.7454
13672TIP3   OH262506   1.622   2.779   1.023 -0.8817 -0.0519 -0.2534
13672TIP3    H162507   1.688   2.758   1.089 -1.5724  1.3492  0.9286
13672TIP3    H262508   1.540   2.781   1.071 -1.7545 -1.2056 -1.6038
13673TIP3   OH262509   4.066   1.919  14.908 -0.7472 -0.3200 -0.5815
13673TIP3    H162510   4.110   1.834  14.906  0.3700  0.2500 -1.4554
13673TIP3    H262511   4.049   1.935  15.001 -0.7245 -1.3655 -0.3876
13674TIP3   OH262512   0.738   3.234   1.550 -0.2614 -0.9034 -0.5267
13674TIP3    H162513   0.761   3.327   1.548 -1.5753 -0.4013  2.0243
13674TIP3    H262514   0.644   3.234   1.572 -0.6600 -2.8503 -1.9847
13675TIP3   OH262515   0.985   1.119  16.205 -0.7024  0.1351 -0.5853
13675TIP3    H162516   0.917   1.109  16.139  0.5605 -2.6443 -1.6351
13675TIP3    H262517   1.064   1.138  16.155  0.2205 -1.7285  0.0504
13676TIP3   OH262518   2.247   1.188  13.490  0.7637  0.2838  0.3838
13676TIP3    H162519   2.294   1.182  13.574  0.7767  0.2511  0.3740
13676TIP3    H262520   2.303   1.141  13.429  0.3228 -0.4515  0.5406
13677TIP3   OH262521   5.867   6.779   3.107  0.6538  0.2063  0.2231
13677TIP3    H162522   5.962   6.771   3.114  0.8385  1.4482 -0.5324
13677TIP3    H262523   5.853   6.864   3.066 -0.8766  1.4779  3.0526
13678TIP3   OH262524   0.122   0.751   2.268  0.5449 -0.1261  0.4353
13678TIP3    H162525   0.174   0.787   2.196  0.6642 -1.1945 -0.0159
13678TIP3    H262526   0.033   0.746   2.233  0.4406  0.1534  0.6558
13679TIP3   OH262527   2.380   0.494  16.628 -0.3827  0.1351 -0.1070
13679TIP3    H162528   2.306   0.548  16.655 -0.7085 -1.1985  1.8069
13679TIP3    H262529   2.456   0.533  16.672 -0.4115 -0.2044  0.2450
13680TIP3   OH262530   1.678   4.781  12.087  0.5512 -0.5122  0.0364
13680TIP3    H162531   1.622   4.848  12.127  0.2050 -0.7608 -0.0212
13680TIP3    H262532   1.673   4.707  12.148  0.2574 -0.7869 -0.3116
13681TIP3   OH262533   0.687   0.300  11.706  0.4557 -0.6838 -0.5535
13681TIP3    H162534   0.632   0.349  11.645  1.2814  0.9202 -0.0720
13681TIP3    H262535   0.644   0.312  11.791  0.4085 -1.2249 -0.4967
13682TIP3   OH262536   3.654   5.629  15.095 -0.0317 -0.1095 -0.2186
13682TIP3    H162537   3.627   5.703  15.149  2.1703  0.0470  0.7883
13682TIP3    H262538   3.667   5.667  15.008  0.7998  0.6635  0.2211
13683TIP3   OH262539   3.104   4.504   2.261 -0.4853  0.0921  0.2753
13683TIP3    H162540   3.075   4.483   2.349  0.9819 -0.3371  0.6751
13683TIP3    H262541   3.055   4.445   2.204 -0.8336 -0.1866  0.8702
13684TIP3   OH262542   1.859   5.574  15.676  0.3590  0.2214  0.5078
13684TIP3    H162543   1.775   5.620  15.674  0.8487  1.1156 -0.2250
13684TIP3    H262544   1.842   5.492  15.629  0.0665  0.7426 -0.3297
13685TIP3   OH262545   2.002   0.225  15.990  0.1972 -0.4887 -0.1144
13685TIP3    H162546   2.015   0.133  15.966  2.7359 -0.7512  1.8473
13685TIP3    H262547   1.931   0.223  16.053 -0.1094 -1.0343 -0.4680
13686TIP3   OH262548   3.125   2.908  12.568 -0.0560 -0.1676 -0.4455
13686TIP3    H162549   3.153   2.819  12.547  0.5226  0.0377 -0.5672
13686TIP3    H262550   3.051   2.924  12.509  0.3058 -0.3005 -0.9438
13687TIP3   OH262551   2.448   4.973  14.039  0.4686  0.1660  0.6430
13687TIP3    H162552   2.416   4.884  14.024  1.0327 -0.0235  0.5101
13687TIP3    H262553   2.370   5.028  14.039  0.1301 -0.3138  0.5832
13688TIP3   OH262554   2.899   2.309   1.351  0.2493  0.3370  0.5885
13688TIP3    H162555   2.969   2.287   1.290 -1.7061 -0.4159 -1.5571
13688TIP3    H262556   2.897   2.405   1.350  2.1106  0.4402  1.8334
13689TIP3   OH262557   3.749   0.724   5.640 -0.4858 -0.0085  0.5479
13689TIP3    H162558   3.656   0.699   5.635  0.0550 -2.0254 -2.4786
13689TIP3    H262559   3.763   0.749   5.731 -4.2788  1.6547  0.8607
13690TIP3   OH262560   4.857   3.558  12.734 -0.3863 -0.6883 -0.5306
13690TIP3    H162561   4.846   3.600  12.819  0.2181  0.2674 -0.8960
13690TIP3    H262562   4.770   3.561  12.694 -0.4210 -0.0043 -0.4284
13691TIP3   OH262563   4.595   3.681  11.741  0.4311  0.2601 -0.2283
13691TIP3    H162564   4.508   3.702  11.708 -0.1653 -2.1476 -0.3222
13691TIP3    H262565   4.655   3.715  11.674 -0.4591  1.1255 -0.6031
13692TIP3   OH262566   5.265   0.563  10.633 -0.0547 -0.2236  0.0459
13692TIP3    H162567   5.208   0.519  10.696 -0.4428  0.3900  0.1257
13692TIP3    H262568   5.352   0.526  10.651 -0.4546 -1.3682 -0.2703
13693TIP3   OH262569   0.425   2.515   3.405 -0.3218 -0.0383 -0.3545
13693TIP3    H162570   0.429   2.427   3.366  0.2373  0.1561 -0.7482
13693TIP3    H262571   0.456   2.573   3.336 -1.1264  0.5250 -0.2489
13694TIP3   OH262572   4.899   5.671   3.385 -0.4484  0.1060  0.6892
13694TIP3    H162573   4.847   5.592   3.374 -1.5504  1.0454 -1.1445
13694TIP3    H262574   4.985   5.639   3.414 -0.4872 -1.8687 -1.1908
13695TIP3   OH262575   6.787   3.147  12.749 -0.4702  0.1448  0.1010
13695TIP3    H162576   6.827   3.169  12.665 -0.6618 -0.1988 -0.0833
13695TIP3    H262577   6.699   3.183  12.745 -1.0882 -1.3925 -0.5514
13696TIP3   OH262578   4.218   6.559   1.460 -0.8315  0.2036  0.6494
13696TIP3    H162579   4.185   6.470   1.459  0.3125 -0.2404  0.6688
13696TIP3    H262580   4.281   6.561   1.531  0.5100  0.4984 -0.4978
13697TIP3   OH262581   6.212   4.185   5.356 -0.3029 -0.0726 -0.4292
13697TIP3    H162582   6.133   4.148   5.318 -1.0524  0.0009  0.9825
13697TIP3    H262583   6.186   4.211   5.445  1.1630  0.4491 -0.1226
13698TIP3   OH262584   2.964   6.201  12.233 -0.2469 -0.0275 -0.2885
13698TIP3    H162585   3.022   6.150  12.176  0.2409  0.4499 -0.2226
13698TIP3    H262586   2.887   6.218  12.179 -0.2554 -0.5119 -0.4369
13699TIP3   OH262587   1.361   0.434  16.577  0.7736  0.0359  1.0397
13699TIP3    H162588   1.384   0.527  16.570  1.2733  0.0024  2.0731
13699TIP3    H262589   1.275   0.435  16.619 -2.1542  0.2329 -4.0893
13700TIP3   OH262590   1.923   6.530   4.008 -0.0523 -0.5899  0.1123
13700TIP3    H162591   1.847   6.474   4.027  0.1119 -1.0009 -0.3947
13700TIP3    H262592   1.999   6.474   4.025  0.1000 -1.0591 -1.8694
13701TIP3   OH262593   6.544   2.569  15.223 -0.3681 -0.3636 -0.1106
13701TIP3    H162594   6.540   2.642  15.161 -3.9540 -0.1887  0.1217
13701TIP3    H262595   6.636   2.564  15.248  0.2962  3.0346 -1.3396
13702TIP3   OH262596   0.482   0.715  16.174  0.4226  0.5869  0.9489
13702TIP3    H162597   0.457   0.749  16.089 -1.4149 -0.8782  0.8313
13702TIP3    H262598   0.457   0.783  16.236 -1.7022  0.1960  0.5985
13703TIP3   OH262599   5.797   2.996  10.545  0.1777  0.7672  0.1871
13703TIP3    H162600   5.884   2.966  10.519 -0.0190 -0.6679  1.0602
13703TIP3    H262601   5.739   2.961  10.477 -0.0247 -0.7348  1.0874
13704TIP3   OH262602   6.678   1.014  12.132 -0.5360 -0.0785 -0.2186
13704TIP3    H162603   6.722   0.933  12.158 -0.9109 -0.0700  0.4745
13704TIP3    H262604   6.743   1.082  12.149 -1.3649  0.1464  2.5719
13705TIP3   OH262605   6.279   6.510  13.149  0.1213 -0.8393  0.2221
13705TIP3    H162606   6.336   6.475  13.217 -0.1000 -0.1685  0.7671
13705TIP3    H262607   6.205   6.548  13.197  0.5399  0.7134 -0.3216
13706TIP3   OH262608   0.634   1.229   0.721 -0.1276 -0.6053  0.2299
13706TIP3    H162609   0.720   1.271   0.723 -0.4587  0.0676  1.4824
13706TIP3    H262610   0.594   1.259   0.639 -0.0985  1.0384  0.7904
13707TIP3   OH262611   4.179   5.217  16.956  0.0610 -0.2179  0.1987
13707TIP3    H162612   4.192   5.161  16.879  2.0603  0.5387 -0.0768
13707TIP3    H262613   4.142   5.158  17.022  0.1043 -1.3420 -0.7394
13708TIP3   OH262614   2.640   5.751   0.316  0.2490  0.1432 -0.7148
13708TIP3    H162615   2.588   5.690   0.264  0.2868 -0.0103 -0.5717
13708TIP3    H262616   2.598   5.751   0.402  1.6828 -1.5557  0.0538
13709TIP3   OH262617   6.012   6.192  14.296 -0.4142  0.2006 -0.0924
13709TIP3    H162618   5.992   6.283  14.273  0.4136  0.2541 -0.6184
13709TIP3    H262619   6.050   6.198  14.384 -1.5084  0.2229  0.3980
13710TIP3   OH262620   1.262   3.814  16.880  0.2713  0.3307  0.6019
13710TIP3    H162621   1.330   3.785  16.819  0.9719  0.2698  1.3992
13710TIP3    H262622   1.207   3.737  16.893  1.4037 -0.3267  1.7417
13711TIP3   OH262623   4.939   1.492  12.210 -0.8501 -0.3189  0.0354
13711TIP3    H162624   4.983   1.538  12.138  0.6515 -2.5799 -0.5821
13711TIP3    H262625   4.847   1.488  12.182 -1.2234  2.7781  0.4457
13712TIP3   OH262626   3.992   3.793   4.333 -0.1410 -0.2710 -0.5811
13712TIP3    H162627   3.966   3.710   4.373  0.1433 -0.2969 -0.4513
13712TIP3    H262628   4.071   3.819   4.381 -0.8468  0.6317  0.1457
13713TIP3   OH262629   3.365   3.815   3.570  0.0065 -0.1141 -0.2896
13713TIP3    H162630   3.417   3.736   3.559  1.8676  1.1139 -0.7230
13713TIP3    H262631   3.300   3.810   3.500  1.0575 -0.5429 -1.2606
13714TIP3   OH262632   2.727   3.290  15.330 -0.0558 -0.4375  0.0955
13714TIP3    H162633   2.757   3.379  15.350 -2.1510  0.5713 -0.9665
13714TIP3    H262634   2.668   3.268  15.402  1.5371 -1.6049  1.1124
13715TIP3   OH262635   4.608   5.798   3.560  0.0498 -0.2537 -0.3397
13715TIP3    H162636   4.580   5.709   3.581  1.1656 -0.6144 -0.3052
13715TIP3    H262637   4.702   5.798   3.578  0.1181  0.8464 -0.6391
13716TIP3   OH262638   6.180   6.300   3.357 -0.1087  0.6250  0.7165
13716TIP3    H162639   6.159   6.208   3.340 -0.4011  0.6245  1.0958
13716TIP3    H262640   6.265   6.297   3.402  2.0055  0.7206 -2.8819
13717TIP3   OH262641   4.763   1.230   2.912 -0.5294  0.3175 -0.5308
13717TIP3    H162642   4.840   1.173   2.918 -0.2651  0.7153 -0.1427
13717TIP3    H262643   4.756   1.271   2.998 -1.5241 -0.1602 -0.3650
13718TIP3   OH262644   1.369   6.597   1.913  0.7725  0.4475 -0.8738
13718TIP3    H162645   1.327   6.518   1.879  0.5097  0.3304 -0.2947
13718TIP3    H262646   1.297   6.650   1.946  1.1634 -0.9985  2.7597
13719TIP3   OH262647   6.642   2.031  12.268  0.2863 -0.2950  0.1945
13719TIP3    H162648   6.580   1.960  12.283 -0.4635  0.6179  1.6397
13719TIP3    H262649   6.721   2.004  12.313 -0.1315 -0.0477  1.0861
13720TIP3   OH262650   5.079   3.782  13.982 -0.4837  0.6255  0.3338
13720TIP3    H162651   5.013   3.752  13.919 -0.1215 -0.3569  0.4012
13720TIP3    H262652   5.148   3.716  13.977  0.1788  1.2754  0.7687
13721TIP3   OH262653   1.418   0.963  13.133  0.6582 -0.0305 -0.0841
13721TIP3    H162654   1.349   0.910  13.174  0.8400  0.3757  0.7639
13721TIP3    H262655   1.412   1.048  13.176  0.6719  0.5037 -1.1156
13722TIP3   OH262656   2.076   3.149  14.928  0.4576 -0.1450 -0.4103
13722TIP3    H162657   2.150   3.136  14.987  1.6939  0.6238 -1.7079
13722TIP3    H262658   2.091   3.086  14.857 -0.1880 -0.0588 -0.6308
13723TIP3   OH262659   1.365   2.765   1.146  0.2629 -0.3693  0.4365
13723TIP3    H162660   1.383   2.673   1.164 -0.5317 -0.6528 -0.1659
13723TIP3    H262661   1.270   2.773   1.155  0.0912 -0.0356 -1.2978
13724TIP3   OH262662   3.706   2.987   1.314  0.0251  0.4983 -0.0872
13724TIP3    H162663   3.631   2.931   1.333 -0.6421  0.5792 -2.2440
13724TIP3    H262664   3.753   2.942   1.244  0.7211  1.5769 -0.3408
13725TIP3   OH262665   0.346   5.245  13.006 -0.0127  0.1790 -0.3306
13725TIP3    H162666   0.359   5.152  12.992  0.9011 -0.0678  1.7027
13725TIP3    H262667   0.418   5.271  13.064  1.1512  2.6819 -2.6969
13726TIP3   OH262668   1.800   1.001   1.172 -0.3462  0.2057 -0.2043
13726TIP3    H162669   1.765   1.086   1.198 -1.1096  0.0308 -0.6365
13726TIP3    H262670   1.750   0.938   1.223 -1.3669 -0.1013 -1.5461
13727TIP3   OH262671   5.471   0.524   0.877  0.4457  0.0948 -0.2012
13727TIP3    H162672   5.406   0.555   0.940 -2.6205 -0.7071 -2.6959
13727TIP3    H262673   5.485   0.599   0.819  1.7549  0.2417  0.2879
13728TIP3   OH262674   2.610   1.750   5.319 -0.1819  0.3380  0.0849
13728TIP3    H162675   2.685   1.748   5.379 -0.6779  0.8558  0.7484
13728TIP3    H262676   2.545   1.693   5.359  0.1088 -0.6957 -0.8658
13729TIP3   OH262677   6.027   3.551  11.263  0.0978  0.5598 -0.0549
13729TIP3    H162678   6.044   3.643  11.246  0.8980  0.2639 -0.9231
13729TIP3    H262679   5.984   3.519  11.183 -0.3736  0.2184  0.3201
13730TIP3   OH262680   1.472   3.550   1.480  0.5748 -0.0689 -0.1600
13730TIP3    H162681   1.379   3.529   1.490  0.8535 -1.4211 -0.1462
13730TIP3    H262682   1.516   3.465   1.486  1.8896  0.6479  0.6516
13731TIP3   OH262683   0.628   3.400   5.514  0.1217 -0.4745 -0.5549
13731TIP3    H162684   0.609   3.349   5.435  0.0892 -0.0162 -0.8510
13731TIP3    H262685   0.563   3.470   5.512 -0.0830 -0.6472  0.0542
13732TIP3   OH262686   5.615   6.037   5.830  0.0265 -0.9384  0.1994
13732TIP3    H162687   5.571   6.120   5.811  1.3441 -0.4086 -0.6717
13732TIP3    H262688   5.639   6.003   5.744 -1.1816 -2.6474  0.4825
13733TIP3   OH262689   0.413   1.577  11.012 -0.2288  0.1003 -0.0566
13733TIP3    H162690   0.474   1.505  11.028 -1.0325 -0.2404  1.5838
13733TIP3    H262691   0.374   1.596  11.097 -0.5987  1.9857 -0.5966
13734TIP3   OH262692   5.324   2.043   4.164 -0.0911 -0.3072 -0.0044
13734TIP3    H162693   5.232   2.070   4.163  0.0210  0.0700 -0.7847
13734TIP3    H262694   5.330   1.974   4.098  0.1335 -0.5285  0.2423
13735TIP3   OH262695   2.025   4.456   0.070  0.6013 -0.5410 -0.7129
13735TIP3    H162696   2.029   4.418   0.157 -0.7431  0.3360 -0.2402
13735TIP3    H262697   1.941   4.426   0.035 -2.1427  4.2561  0.8804
13736TIP3   OH262698   2.589   4.581  13.935  0.0911  0.3889  0.3430
13736TIP3    H162699   2.568   4.605  13.844  0.5882  1.8909  0.5894
13736TIP3    H262700   2.508   4.599  13.983  0.0272  0.2135  0.3013
13737TIP3   OH262701   0.196   5.128   2.393 -0.1975  0.1109 -0.1950
13737TIP3    H162702   0.133   5.089   2.453 -1.2004 -0.5827 -1.6315
13737TIP3    H262703   0.281   5.111   2.434 -0.8986  1.1464  1.8247
13738TIP3   OH262704   3.998   6.485   3.985  0.1794  0.1614  0.2573
13738TIP3    H162705   4.023   6.504   4.075 -0.8792 -1.1220  0.8458
13738TIP3    H262706   3.914   6.440   3.992  0.0664  0.0543 -1.3746
13739TIP3   OH262707   0.700   6.717   4.920 -0.2501  0.1841 -0.2696
13739TIP3    H162708   0.667   6.764   4.997 -0.8312 -0.2357 -0.2563
13739TIP3    H262709   0.637   6.736   4.851  0.6150  1.0963 -0.8476
13740TIP3   OH262710   0.047   1.587  16.566 -0.2505 -0.7384  0.1127
13740TIP3    H162711   0.058   1.650  16.495  1.2057 -1.2204 -0.1282
13740TIP3    H262712  -0.044   1.558  16.559 -0.0981 -0.9039 -1.6719
13741TIP3   OH262713   3.139   3.851   3.417  0.0386 -0.0298  0.0707
13741TIP3    H162714   3.146   3.947   3.422  1.6616  0.0039 -1.7379
13741TIP3    H262715   3.052   3.836   3.380 -0.0052  0.7830 -0.1745
13742TIP3   OH262716   1.796   3.160  12.346  0.3547  0.1703 -0.2613
13742TIP3    H162717   1.745   3.235  12.375  1.1294 -0.3527  2.7801
13742TIP3    H262718   1.885   3.178  12.378  0.8513 -1.4260 -0.6473
13743TIP3   OH262719   4.476   1.985  17.257  0.1950  0.1988 -0.2696
13743TIP3    H162720   4.399   1.939  17.288 -1.1511  1.7135 -1.1683
13743TIP3    H262721   4.528   1.918  17.211 -1.9051 -0.3855 -1.9494
13744TIP3   OH262722   4.411   6.470   4.796 -0.1426 -0.4122  0.4315
13744TIP3    H162723   4.327   6.425   4.800 -0.8326  0.7963  0.1427
13744TIP3    H262724   4.475   6.402   4.775 -1.4546 -0.9160 -2.3632
13745TIP3   OH262725   5.900   1.094   1.829 -0.5858  0.2898  0.3948
13745TIP3    H162726   5.886   1.001   1.809 -3.5255  1.0644 -1.8891
13745TIP3    H262727   5.956   1.125   1.758 -1.1438  0.6213  0.0970
13746TIP3   OH262728   6.693   4.096  11.879  0.1326 -0.4823 -0.3378
13746TIP3    H162729   6.785   4.079  11.861  0.1628  0.3042 -0.9873
13746TIP3    H262730   6.660   4.136  11.799 -0.8596 -1.0576 -0.2323
13747TIP3   OH262731   6.582   1.175   6.520  0.0111 -0.0655 -1.0616
13747TIP3    H162732   6.672   1.183   6.553 -0.1344  1.3445 -0.9405
13747TIP3    H262733   6.529   1.224   6.583 -0.6051  0.5697 -2.0488
13748TIP3   OH262734   2.645   0.237  12.535 -0.0253  0.5143  0.0782
13748TIP3    H162735   2.669   0.156  12.490  3.1473  1.0166  0.6263
13748TIP3    H262736   2.686   0.306  12.482 -0.7106  1.5785  0.8920
13749TIP3   OH262737   2.285   3.460   1.821  0.1247 -0.2798  0.2664
13749TIP3    H162738   2.361   3.513   1.798  0.0086 -1.0031 -2.0666
13749TIP3    H262739   2.214   3.494   1.766  0.1836 -3.0996 -1.7390
13750TIP3   OH262740   0.937   3.914  13.502 -0.2160 -0.3138 -0.0448
13750TIP3    H162741   0.956   3.889  13.593  0.9868  0.6463 -0.0077
13750TIP3    H262742   0.859   3.863  13.479 -0.7299 -0.3425  1.6233
13751TIP3   OH262743   4.002   2.391   4.048 -0.5152 -0.5215 -0.1555
13751TIP3    H162744   3.936   2.323   4.036 -0.6974 -0.2924 -0.4776
13751TIP3    H262745   4.009   2.401   4.142 -1.8621  0.3277 -0.1172
13752TIP3   OH262746   0.165   2.337   4.983  0.4763 -0.0822 -0.1680
13752TIP3    H162747   0.261   2.341   4.986  0.4311  2.3091  0.5278
13752TIP3    H262748   0.145   2.281   4.908  2.4628  1.9722 -2.3950
13753TIP3   OH262749   5.190   4.024   5.468 -0.1903  0.3212 -0.5720
13753TIP3    H162750   5.100   4.045   5.493 -0.3272 -0.0251 -0.7603
13753TIP3    H262751   5.185   3.934   5.434  0.6258 -0.6233  1.6241
13754TIP3   OH262752   4.089   6.530   3.114 -0.0905 -0.0838  0.4445
13754TIP3    H162753   4.026   6.469   3.151 -0.1475 -0.5717 -0.4169
13754TIP3    H262754   4.159   6.475   3.080  0.1712  0.3696  0.2429
13755TIP3   OH262755   2.912   2.537   3.806  0.8942  0.5233  0.5202
13755TIP3    H162756   2.911   2.450   3.765 -0.1976 -0.3316  2.2713
13755TIP3    H262757   2.962   2.525   3.886  0.6569  1.4984  0.8239
13756TIP3   OH262758   2.571   3.850  12.705 -0.8747 -0.0729 -0.1689
13756TIP3    H162759   2.620   3.919  12.660 -0.9279  0.0939  0.0274
13756TIP3    H262760   2.486   3.889  12.723 -0.9547 -0.2390 -0.1827
13757TIP3   OH262761   6.800   5.112   4.801 -0.3943 -0.2028 -0.2904
13757TIP3    H162762   6.804   5.017   4.817 -1.0790  0.0452  1.6288
13757TIP3    H262763   6.825   5.151   4.884  2.2817  1.3777 -1.7037
13758TIP3   OH262764   5.058   5.889  13.348  0.2307 -0.2302 -0.1874
13758TIP3    H162765   4.985   5.931  13.393  0.5498 -0.1302  0.2497
13758TIP3    H262766   5.105   5.962  13.307 -0.5806 -0.4091 -1.4826
13759TIP3   OH262767   0.708   1.847   5.746 -0.0709 -0.2867  0.8806
13759TIP3    H162768   0.772   1.905   5.705  0.8853  0.4958  3.3094
13759TIP3    H262769   0.738   1.838   5.836 -2.6737 -0.9529  1.7719
13760TIP3   OH262770   4.915   6.574  16.549  0.1342 -0.3716  0.3923
13760TIP3    H162771   4.934   6.481  16.536  0.0601 -0.3574  0.1673
13760TIP3    H262772   4.997   6.611  16.582  0.2857 -0.4411  0.0991
13761TIP3   OH262773   5.737   3.889  16.280  0.0874  0.0156 -0.0342
13761TIP3    H162774   5.773   3.889  16.192 -0.6362 -2.3559 -0.3935
13761TIP3    H262775   5.647   3.920  16.269  0.5716  1.6261  0.2162
13762TIP3   OH262776   5.017   0.702  16.357  0.3476  0.2922  0.0473
13762TIP3    H162777   4.937   0.670  16.315  1.5482 -0.7207 -1.6301
13762TIP3    H262778   5.022   0.794  16.334  0.3432  0.0331 -1.0268
13763TIP3   OH262779   4.640   3.992  15.313  0.4575  0.1455  0.5864
13763TIP3    H162780   4.644   3.907  15.357  0.4198 -0.1011  0.1214
13763TIP3    H262781   4.619   3.971  15.222  1.4858  0.5755  0.2362
13764TIP3   OH262782   2.508   6.135   1.985 -0.3075  0.2154 -0.2368
13764TIP3    H162783   2.480   6.226   1.992 -0.2920  0.1908  0.1665
13764TIP3    H262784   2.582   6.127   2.045 -1.4913 -0.5155  1.1901
13765TIP3   OH262785   5.083   3.758   5.459  0.4519 -0.5143  0.4484
13765TIP3    H162786   5.000   3.760   5.508  0.7843  1.3127  1.0013
13765TIP3    H262787   5.118   3.671   5.474 -0.9962 -1.0488  0.8562
13766TIP3   OH262788   0.118   0.673  12.627  0.2021  0.2505 -0.1618
13766TIP3    H162789   0.071   0.715  12.699  0.7300  0.9120 -0.1888
13766TIP3    H262790   0.197   0.727  12.616 -0.0949  0.4425 -1.5512
13767TIP3   OH262791   6.139   6.326   4.938  0.0245  0.4917 -0.5619
13767TIP3    H162792   6.220   6.373   4.917  0.1524  0.3162 -0.4601
13767TIP3    H262793   6.120   6.350   5.029 -0.3750  1.0248 -0.7765
13768TIP3   OH262794   5.515   3.432  14.238  0.2345 -0.0484 -0.1705
13768TIP3    H162795   5.550   3.495  14.174  1.0215 -0.1866  0.1090
13768TIP3    H262796   5.452   3.483  14.289 -0.8985 -0.0995 -1.4599
13769TIP3   OH262797   2.273   1.186  14.963 -0.2650 -0.2402  0.1696
13769TIP3    H162798   2.252   1.255  14.900 -0.6684  0.7957  1.4021
13769TIP3    H262799   2.279   1.231  15.047  0.0326 -1.6258  0.9179
13770TIP3   OH262800   5.766   5.843  13.551  0.3628  0.1878 -0.0981
13770TIP3    H162801   5.778   5.902  13.476 -0.5114 -1.0299 -1.2366
13770TIP3    H262802   5.846   5.790  13.552  0.7730  0.7983  0.4061
13771TIP3   OH262803   3.159   2.887   2.213  0.5680  0.6079  0.4592
13771TIP3    H162804   3.157   2.976   2.248 -0.0947 -0.2714  2.8755
13771TIP3    H262805   3.066   2.863   2.203  0.7161  0.7851 -2.0223
13772TIP3   OH262806   1.665   0.459   3.576  0.2390 -0.0631  0.2168
13772TIP3    H162807   1.634   0.379   3.533  0.7641 -0.2828  0.2368
13772TIP3    H262808   1.733   0.428   3.637  0.6706  0.4355 -0.0084
13773TIP3   OH262809   1.117   1.961   2.025 -0.1790 -0.0977  0.5667
13773TIP3    H162810   1.106   2.056   2.025  3.2148  0.4161  0.9960
13773TIP3    H262811   1.079   1.933   2.108 -0.6103  0.9564  0.7488
13774TIP3   OH262812   0.515   3.732   2.100 -0.0286 -0.1801  0.2330
13774TIP3    H162813   0.473   3.818   2.105 -1.0384 -0.7059  1.2142
13774TIP3    H262814   0.519   3.702   2.191  2.7049 -0.0769  0.2145
13775TIP3   OH262815   6.571   6.230  15.447 -0.1714 -0.0775 -0.2150
13775TIP3    H162816   6.527   6.196  15.525  1.3704 -0.7223  0.4191
13775TIP3    H262817   6.532   6.181  15.375  0.0167 -1.1822  0.4077
13776TIP3   OH262818   5.265   2.512   5.285  0.3375 -0.5615 -0.3821
13776TIP3    H162819   5.224   2.597   5.306  0.3577 -0.5000 -0.5907
13776TIP3    H262820   5.358   2.526   5.302  0.1712 -0.9782  1.0020
13777TIP3   OH262821   4.154   2.321   3.164 -0.2264  0.1963  0.0371
13777TIP3    H162822   4.064   2.315   3.132 -0.0489  0.7789 -0.6121
13777TIP3    H262823   4.155   2.398   3.220  0.0296  0.6182 -0.5393
13778TIP3   OH262824   4.453   0.472   2.944  0.0075 -0.3801 -0.1593
13778TIP3    H162825   4.508   0.522   2.885  1.9385 -2.1405  0.0207
13778TIP3    H262826   4.433   0.391   2.897 -1.6112 -0.2294  0.1883
13779TIP3   OH262827   3.477   4.928   5.409  0.3915 -0.1014  0.4156
13779TIP3    H162828   3.493   4.903   5.500  0.1863  0.0439  0.4935
13779TIP3    H262829   3.418   5.003   5.415 -0.1984 -0.5339  0.1459
13780TIP3   OH262830   4.479   3.617   4.258  0.1804 -0.0811 -0.1236
13780TIP3    H162831   4.574   3.604   4.254  0.2063  0.4046 -2.1833
13780TIP3    H262832   4.448   3.548   4.317  1.6784 -1.0555 -0.4141
13781TIP3   OH262833   3.013   1.470   4.282 -0.1141 -0.2749  0.2571
13781TIP3    H162834   2.974   1.458   4.368  0.3822  0.1299  0.5466
13781TIP3    H262835   3.100   1.430   4.289 -0.9374 -2.3811 -0.7920
13782TIP3   OH262836   2.240   6.111   1.881 -0.2074 -0.0704 -0.2629
13782TIP3    H162837   2.216   6.150   1.797  1.3009 -0.8191 -1.0690
13782TIP3    H262838   2.334   6.128   1.890 -0.0551 -1.2319  0.5987
13783TIP3   OH262839   6.093   5.178   0.721 -0.0757 -0.7291 -0.6189
13783TIP3    H162840   6.173   5.199   0.770 -0.3696  1.6485 -1.0156
13783TIP3    H262841   6.091   5.083   0.717  1.7357 -0.8970  1.0377
13784TIP3   OH262842   0.524   6.462  14.776 -0.0806  0.2805  0.4297
13784TIP3    H162843   0.473   6.427  14.703 -0.7239  2.1231 -0.0699
13784TIP3    H262844   0.573   6.535  14.738  0.4685  0.5502  1.5934
13785TIP3   OH262845   1.976   3.638  17.264  0.2601  0.1557 -0.3194
13785TIP3    H162846   1.971   3.716  17.208 -1.8962  1.8742  2.0400
13785TIP3    H262847   1.889   3.599  17.259  1.2581 -2.1122 -1.3163
13786TIP3   OH262848   2.093   3.718  13.534 -0.0668  0.2410  0.1656
13786TIP3    H162849   2.094   3.772  13.613  0.9471 -0.9132  0.9672
13786TIP3    H262850   2.114   3.779  13.463 -1.0839  1.3087  0.7569
13787TIP3   OH262851   6.778   3.604   3.977  0.2597  0.5285  0.1068
13787TIP3    H162852   6.753   3.677   3.921  0.8636 -0.0676 -0.9882
13787TIP3    H262853   6.828   3.644   4.048  1.3055  1.1427 -0.9200
13788TIP3   OH262854   0.891   2.327  15.487 -0.6693  0.0953 -0.3624
13788TIP3    H162855   0.876   2.421  15.495  0.6927  0.3956 -0.9077
13788TIP3    H262856   0.824   2.297  15.427 -1.3610  0.6473  0.1199
13789TIP3   OH262857   1.511   5.002  11.696 -0.2890 -0.0887  0.0627
13789TIP3    H162858   1.530   4.973  11.606  0.5890  0.5299  0.0390
13789TIP3    H262859   1.597   5.022  11.734 -0.7919  2.4717  0.0713
13790TIP3   OH262860   6.451   2.987   2.329  0.8545  0.4514  0.4428
13790TIP3    H162861   6.447   2.893   2.343 -0.4162  0.5000  0.5042
13790TIP3    H262862   6.410   3.001   2.243  1.5376  0.9003  0.1804
13791TIP3   OH262863   0.212   1.670  14.823  0.1196 -0.0011 -0.0051
13791TIP3    H162864   0.125   1.639  14.846  0.4703  0.2828  1.8253
13791TIP3    H262865   0.221   1.649  14.730 -1.8344 -0.1521 -0.2061
13792TIP3   OH262866   1.701   6.354   4.054 -0.2664 -0.0662  0.2863
13792TIP3    H162867   1.639   6.393   3.992  0.7828  2.6580  0.8075
13792TIP3    H262868   1.663   6.270   4.076 -2.5911  0.5119 -1.1552
13793TIP3   OH262869   4.093   2.056  13.714  0.7256 -0.2412 -0.4551
13793TIP3    H162870   4.120   2.147  13.730  0.5250 -0.0502 -1.1619
13793TIP3    H262871   4.175   2.009  13.699  0.7366  0.2117 -1.9645
13794TIP3   OH262872   2.316   1.565  10.447 -0.5557 -0.0223  0.0489
13794TIP3    H162873   2.225   1.555  10.420 -0.6445 -2.0816  0.9415
13794TIP3    H262874   2.364   1.501  10.396  0.3263  0.6979 -0.0448
13795TIP3   OH262875   1.430   1.263   5.164  0.3891 -0.2560 -0.1084
13795TIP3    H162876   1.504   1.214   5.129 -0.7799 -0.7385 -2.0343
13795TIP3    H262877   1.356   1.204   5.156 -0.7973  1.3091 -1.2511
13796TIP3   OH262878   5.942   3.894  14.756  0.4352 -0.1486 -0.3485
13796TIP3    H162879   6.023   3.843  14.756  0.3375 -0.3841  1.6719
13796TIP3    H262880   5.895   3.864  14.678  1.4855 -1.3203 -0.5660
13797TIP3   OH262881   1.823   3.492   5.082  0.3301  0.2676  0.0433
13797TIP3    H162882   1.906   3.537   5.096  0.8822 -0.3722 -1.0650
13797TIP3    H262883   1.816   3.433   5.157  0.8980  0.3085  0.1381
13798TIP3   OH262884   6.773   4.446   5.459 -0.1285  0.1515 -0.3262
13798TIP3    H162885   6.707   4.506   5.494 -0.1560  1.1947 -2.0782
13798TIP3    H262886   6.856   4.483   5.489 -0.2619 -0.8951  1.4739
13799TIP3   OH262887   1.837   6.298  16.860 -0.7803  0.1173 -0.2978
13799TIP3    H162888   1.829   6.373  16.919  0.5678  0.6509 -0.7464
13799TIP3    H262889   1.793   6.226  16.905 -0.7680  0.8034  0.8283
13800TIP3   OH262890   2.236   4.449   1.005 -0.1068 -0.9218 -0.4862
13800TIP3    H162891   2.160   4.481   1.052 -0.9500 -2.5950 -0.6413
13800TIP3    H262892   2.270   4.377   1.058  2.4628  0.8160  0.4671
13801TIP3   OH262893   3.090   1.322  13.380  0.3931 -0.0898  0.3670
13801TIP3    H162894   3.063   1.231  13.388 -0.4506  0.1646  0.5249
13801TIP3    H262895   3.096   1.337  13.286  1.8754 -0.6771  0.3430
13802TIP3   OH262896   1.133   0.335  16.421  0.3059 -0.1467 -0.1765
13802TIP3    H162897   1.225   0.315  16.406  1.1094  0.7374  2.8815
13802TIP3    H262898   1.102   0.263  16.476 -0.3311  0.4160  0.2214
13803TIP3   OH262899   2.929   1.793   2.264 -0.4663  0.7559 -0.4960
13803TIP3    H162900   2.926   1.699   2.283 -2.3443  0.7003 -0.8259
13803TIP3    H262901   3.017   1.808   2.231 -0.2233 -0.9523 -0.7359
13804TIP3   OH262902   4.204   3.718  14.726 -0.1115 -0.2284 -0.2218
13804TIP3    H162903   4.199   3.711  14.630 -1.2066  1.7040 -0.3731
13804TIP3    H262904   4.230   3.809  14.741  0.1548 -0.5465  1.3195
13805TIP3   OH262905   4.321   6.789  16.486 -0.5221  0.2331 -0.4370
13805TIP3    H162906   4.332   6.824  16.397  0.3602  0.2401 -0.3420
13805TIP3    H262907   4.299   6.865  16.539 -0.4390  0.3398 -0.5516
13806TIP3   OH262908   1.411   6.258  12.623  0.1820 -0.3424 -0.2347
13806TIP3    H162909   1.328   6.216  12.601 -1.1494  1.6433  0.7258
13806TIP3    H262910   1.471   6.186  12.641 -1.9378 -1.8406  1.2004
13807TIP3   OH262911   5.311   4.433   4.192  0.0938 -0.0858  0.2367
13807TIP3    H162912   5.242   4.387   4.239 -0.7246  0.6556 -0.2194
13807TIP3    H262913   5.325   4.513   4.244  0.4895 -0.1519  0.2342
13808TIP3   OH262914   3.757   5.912   5.102  0.0350  0.3575 -0.2975
13808TIP3    H162915   3.723   5.995   5.136 -0.9507 -0.0151 -0.3441
13808TIP3    H262916   3.798   5.935   5.019 -1.3366  0.6141 -0.9217
13809TIP3   OH262917   5.421   0.272  16.324  0.5479 -0.2249 -0.0782
13809TIP3    H162918   5.371   0.287  16.243  0.7642  0.4137 -0.0985
13809TIP3    H262919   5.403   0.181  16.346  0.5017 -0.4184 -0.8638
13810TIP3   OH262920   0.990   1.277  13.576  0.0626  0.0039 -0.1774
13810TIP3    H162921   1.056   1.335  13.615  1.1054 -1.3801  0.1780
13810TIP3    H262922   1.013   1.274  13.483  0.2957 -0.2103 -0.1131
13811TIP3   OH262923   4.538   6.538  14.102 -0.2422 -0.2739 -0.2042
13811TIP3    H162924   4.530   6.465  14.164 -1.0783 -0.2837 -0.3135
13811TIP3    H262925   4.629   6.534  14.073  0.8277  1.0430  2.5982
13812TIP3   OH262926   1.145   3.443  17.031  0.3126  0.4485 -0.2076
13812TIP3    H162927   1.100   3.438  17.115 -1.7598 -0.7664 -1.3128
13812TIP3    H262928   1.094   3.508  16.981  0.2281 -0.3865 -1.2265
13813TIP3   OH262929   3.453   5.154  15.114  0.2068 -0.9861 -0.4307
13813TIP3    H162930   3.384   5.201  15.160  2.6219  2.2510  0.3178
13813TIP3    H262931   3.408   5.107  15.044 -2.8858 -0.8032  1.2764
13814TIP3   OH262932   2.480   1.543   6.331 -0.2478 -0.2561  0.5968
13814TIP3    H162933   2.498   1.461   6.285  0.1297 -0.2793  0.7754
13814TIP3    H262934   2.390   1.535   6.361 -0.7956  0.1246 -0.8759
13815TIP3   OH262935   6.249   6.061   1.711 -0.0751  0.7181 -0.2757
13815TIP3    H162936   6.248   5.981   1.658  1.4286  0.4143  0.1294
13815TIP3    H262937   6.269   6.032   1.800  0.1746  1.5226 -0.0590
13816TIP3   OH262938   0.486   0.976   4.319  0.5316 -0.3937  0.2225
13816TIP3    H162939   0.465   0.947   4.230 -1.0259  1.0264  0.0665
13816TIP3    H262940   0.439   0.915   4.375 -2.0514  1.1457 -0.0863
13817TIP3   OH262941   2.385   5.919   4.553 -0.5913  0.1638  0.0776
13817TIP3    H162942   2.397   6.008   4.520  1.8857  0.1760  0.7870
13817TIP3    H262943   2.436   5.917   4.634 -0.1445 -2.0462 -0.2088
13818TIP3   OH262944   5.978   2.793  11.836  0.7618 -0.4342 -0.4607
13818TIP3    H162945   5.975   2.759  11.926 -1.2831  0.1307 -0.2879
13818TIP3    H262946   6.071   2.784  11.811  1.4105 -0.4548  1.7397
13819TIP3   OH262947   1.045   0.895   4.731 -0.0487 -0.3581 -0.5032
13819TIP3    H162948   1.076   0.941   4.809 -2.1430  1.9894 -0.9098
13819TIP3    H262949   1.123   0.882   4.678  0.8166  1.9738  0.0720
13820TIP3   OH262950   6.089   5.947   0.930  0.0517  0.3528 -0.2067
13820TIP3    H162951   6.179   5.971   0.906 -0.0582 -0.9049 -2.0846
13820TIP3    H262952   6.076   5.986   1.016  2.0050  1.5273 -0.3886
13821TIP3   OH262953   4.362   0.019   5.368 -0.0134  0.3186 -0.2608
13821TIP3    H162954   4.270   0.030   5.389 -0.0845 -0.6882  0.0128
13821TIP3    H262955   4.406   0.013   5.453  0.2585  0.4474 -0.3893
13822TIP3   OH262956   0.199   2.989  10.590  0.0378  0.0502 -0.1475
13822TIP3    H162957   0.189   3.065  10.532  1.2217 -0.2569 -0.8034
13822TIP3    H262958   0.182   2.914  10.534 -1.0851 -0.1869  0.4901
13823TIP3   OH262959   4.657   0.143  16.135 -0.9255 -0.5215  0.3758
13823TIP3    H162960   4.685   0.107  16.050 -0.4530 -0.2122  0.3973
13823TIP3    H262961   4.707   0.093  16.200  0.1784  0.5587  0.3802
13824TIP3   OH262962   3.022   6.515   2.235  0.2907 -0.0448  0.2613
13824TIP3    H162963   3.009   6.456   2.161 -1.0649 -0.5183  0.8499
13824TIP3    H262964   2.993   6.465   2.311 -1.0394  1.4097  0.7611
13825TIP3   OH262965   2.232   2.069  12.058  0.0409  0.5785 -0.0309
13825TIP3    H162966   2.155   2.025  12.022 -0.0087 -0.5252  1.3461
13825TIP3    H262967   2.288   2.084  11.982 -0.3139 -1.1140 -0.6706
13826TIP3   OH262968   1.157   1.053   3.323  0.2215 -0.0000  0.3329
13826TIP3    H162969   1.164   1.003   3.242 -1.0693 -0.2520  0.3645
13826TIP3    H262970   1.155   1.145   3.295 -1.4587 -0.1247 -0.0401
13827TIP3   OH262971   1.442   2.098  14.201 -0.2456  0.7997  0.7091
13827TIP3    H162972   1.387   2.078  14.276  0.5449 -1.9982  0.6318
13827TIP3    H262973   1.382   2.095  14.126 -0.0625 -2.9929  0.5282
13828TIP3   OH262974   3.008   1.202  12.323  0.4719 -0.0856 -0.1652
13828TIP3    H162975   3.068   1.169  12.256 -0.6185 -0.0247 -1.2209
13828TIP3    H262976   3.041   1.166  12.405  0.9563 -1.4634 -0.9282
13829TIP3   OH262977   2.389   3.624   3.792 -0.0888 -0.0553 -0.4404
13829TIP3    H162978   2.478   3.651   3.813 -0.3253 -1.0736  2.3903
13829TIP3    H262979   2.337   3.704   3.798  0.1191 -0.0126  1.8428
13830TIP3   OH262980   5.554   0.806  12.043 -0.1809 -0.3254 -0.0122
13830TIP3    H162981   5.554   0.900  12.060  0.9684 -0.2718 -0.2103
13830TIP3    H262982   5.526   0.798  11.952  0.5904 -0.0946 -0.2789
13831TIP3   OH262983   6.426   4.021  15.481 -0.0375  1.0031 -0.3010
13831TIP3    H162984   6.425   4.115  15.462  1.2877  1.2401  0.6631
13831TIP3    H262985   6.518   3.997  15.477 -0.2767 -0.0632  0.3560
13832TIP3   OH262986   1.213   6.064  12.489 -0.0025  0.1406  0.2626
13832TIP3    H162987   1.252   6.038  12.405 -1.3144  0.4709 -0.4727
13832TIP3    H262988   1.223   5.986  12.545  3.6984  0.8725  0.9226
13833TIP3   OH262989   3.570   4.261   1.943  0.2726 -0.5908  0.6227
13833TIP3    H162990   3.536   4.174   1.963  0.9306 -1.0948 -0.3539
13833TIP3    H262991   3.498   4.306   1.900 -0.0171 -0.6975  0.9886
13834TIP3   OH262992   3.419   6.736   5.675  0.0332 -0.8284 -0.3114
13834TIP3    H162993   3.448   6.810   5.728 -3.2541  0.2472  0.2028
13834TIP3    H262994   3.436   6.763   5.585  5.1292 -2.4351 -0.1618
13835TIP3   OH262995   3.470   0.101  10.740 -0.3210  0.3456 -0.5277
13835TIP3    H162996   3.553   0.145  10.761  0.6210 -1.9595  0.9462
13835TIP3    H262997   3.403   0.156  10.780  0.5337  1.7413 -0.9142
13836TIP3   OH262998   6.766   3.705  17.134  0.1993 -0.3357  0.8010
13836TIP3    H162999   6.817   3.645  17.189 -0.2160 -1.0998  0.3679
13836TIP3    H263000   6.811   3.704  17.049 -0.9685 -1.6758  0.1486
13837TIP3   OH263001   0.473   0.568  14.514  0.3550  0.3636  0.5245
13837TIP3    H163002   0.447   0.485  14.553 -2.8398  1.6476  1.4839
13837TIP3    H263003   0.485   0.627  14.589  0.1977  1.3322 -0.1912
13838TIP3   OH263004   1.437   0.014  16.647 -0.2422  0.4616 -0.4077
13838TIP3    H163005   1.398   0.094  16.682 -0.6466  1.5947 -3.1864
13838TIP3    H263006   1.523   0.042  16.614  0.1976 -0.5785 -0.1793
13839TIP3   OH263007   5.878   1.665   3.173 -0.5259  0.3952  0.4012
13839TIP3    H163008   5.921   1.746   3.146  0.1210 -0.0785 -0.0120
13839TIP3    H263009   5.785   1.689   3.179 -0.4197  1.0242 -0.2821
13840TIP3   OH263010   5.890   1.685   0.878 -0.5958  0.3237 -0.0411
13840TIP3    H163011   5.862   1.602   0.840 -0.7700  0.6637 -0.6786
13840TIP3    H263012   5.975   1.703   0.836  1.0846 -1.1013  2.4542
13841TIP3   OH263013   4.365   3.072  15.326  0.5046  0.3389 -0.0330
13841TIP3    H163014   4.289   3.129  15.338  0.1886  0.0599 -0.6232
13841TIP3    H263015   4.341   2.991  15.371 -0.4646 -0.5204 -1.9694
13842TIP3   OH263016   0.480   2.992   4.670 -0.0087  0.0569  0.4601
13842TIP3    H163017   0.479   2.994   4.766 -0.3621 -0.8335  0.4888
13842TIP3    H263018   0.547   2.928   4.648  1.0080  1.2269  0.0725
13843TIP3   OH263019   2.952   4.186   4.258  0.0802 -0.1573  0.0145
13843TIP3    H163020   3.024   4.250   4.255 -0.1894  0.1439 -3.5220
13843TIP3    H263021   2.984   4.117   4.317  1.6504  1.7379  1.5052
13844TIP3   OH263022   3.687   3.637   3.328  0.5880  0.3416 -0.2254
13844TIP3    H163023   3.728   3.551   3.324 -0.1950 -0.0833  0.5863
13844TIP3    H263024   3.709   3.678   3.244 -0.8655 -1.5014 -1.6082
13845TIP3   OH263025   3.306   5.783  14.062  0.0322 -0.0148  0.1797
13845TIP3    H163026   3.354   5.865  14.052  0.9955 -0.2407  2.4099
13845TIP3    H263027   3.270   5.786  14.150 -0.2135 -1.8259  0.1922
13846TIP3   OH263028   6.285   4.212   5.076 -0.6041  0.3248 -1.1090
13846TIP3    H163029   6.377   4.204   5.103 -0.0938  1.0310 -2.5544
13846TIP3    H263030   6.241   4.245   5.154  0.2719 -0.4664 -0.2443
13847TIP3   OH263031   1.722   5.063  12.709 -0.3696 -0.2609  0.0171
13847TIP3    H163032   1.799   5.034  12.757 -0.3475 -1.3811 -0.6774
13847TIP3    H263033   1.734   5.158  12.699  1.1456 -0.4925 -0.4972
13848TIP3   OH263034   3.459   0.773  11.735  0.2909  0.3740  0.1518
13848TIP3    H163035   3.541   0.732  11.708  0.9734  0.1559  2.3154
13848TIP3    H263036   3.473   0.866  11.720  1.3361  0.4399  1.3218
13849TIP3   OH263037   5.359   2.037  15.814 -0.0780 -0.1634 -0.0283
13849TIP3    H163038   5.307   2.080  15.746  0.0028  0.9232  0.5672
13849TIP3    H263039   5.449   2.061  15.793 -0.1102  0.9168  0.9138
13850TIP3   OH263040   6.151   3.155   3.160 -0.2283 -0.4643 -0.2711
13850TIP3    H163041   6.209   3.207   3.215  0.0009 -0.8063 -0.1858
13850TIP3    H263042   6.183   3.168   3.071  0.1402 -0.8569 -0.1968
13851TIP3   OH263043   2.496   4.144   4.083 -0.0608 -0.2606  0.4159
13851TIP3    H163044   2.555   4.124   4.156 -0.8837 -0.9023  0.9262
13851TIP3    H263045   2.549   4.130   4.004  0.3515 -1.2531  0.8554
13852TIP3   OH263046   5.650   5.144  14.575 -0.3290 -0.2736 -0.1935
13852TIP3    H163047   5.745   5.155  14.586 -0.4332 -0.7950  1.6105
13852TIP3    H263048   5.616   5.233  14.567  0.2101 -0.0130  0.3479
13853TIP3   OH263049   5.374   2.266  13.930 -0.4408 -0.1590 -0.3361
13853TIP3    H163050   5.384   2.349  13.883 -1.7378  0.8163  1.0520
13853TIP3    H263051   5.464   2.235  13.942  0.2109  1.9763  0.7080
13854TIP3   OH263052   2.238   0.785   0.407 -0.3566 -0.4621  0.0283
13854TIP3    H163053   2.293   0.787   0.485  0.1522 -1.0682 -0.3082
13854TIP3    H263054   2.159   0.738   0.434 -0.6959  0.3471  0.4916
13855TIP3   OH263055   5.919   4.222  17.116 -0.0470  0.2263 -0.0070
13855TIP3    H163056   5.923   4.316  17.097 -0.1819  0.4848  1.1596
13855TIP3    H263057   5.828   4.206  17.143  0.1686 -0.0650  0.5862
13856TIP3   OH263058   0.045   4.603  15.040 -0.0868  0.2907  0.0330
13856TIP3    H163059   0.120   4.636  14.991  0.1509 -0.3618 -0.0583
13856TIP3    H263060  -0.031   4.649  15.003  0.3515  1.6313  0.7483
13857TIP3   OH263061   4.081   2.389  15.273  0.3682  0.7316  0.1157
13857TIP3    H163062   4.033   2.471  15.289  0.2230  0.5011  0.8954
13857TIP3    H263063   4.042   2.327  15.334  0.9072  0.2446 -0.0321
13858TIP3   OH263064   5.411   5.968   2.142 -0.8292 -0.2496 -0.0031
13858TIP3    H163065   5.446   5.917   2.215  0.5493  0.5628 -0.0711
13858TIP3    H263066   5.356   6.035   2.183  0.0329  0.2771  0.3142
13859TIP3   OH263067   0.710   0.409  15.080 -0.0111 -0.3545  0.0037
13859TIP3    H163068   0.758   0.483  15.118 -0.6116 -0.4743  1.0146
13859TIP3    H263069   0.778   0.351  15.046  0.5422 -0.2513  0.9191
13860TIP3   OH263070   1.059   0.036  15.193  0.0936  0.1152  0.5707
13860TIP3    H163071   1.033   0.027  15.101  0.1164  0.2957  0.5458
13860TIP3    H263072   0.984   0.005  15.243  0.1241 -0.0920  0.4899
13861TIP3   OH263073   3.609   0.015   3.353 -0.2896  0.2260 -0.4223
13861TIP3    H163074   3.688  -0.017   3.396 -0.7241 -0.8846 -0.4093
13861TIP3    H263075   3.603  -0.036   3.272 -0.5966  0.8183 -0.7802
13862TIP3   OH263076   2.742   5.669  12.100 -0.2864 -0.2725  0.3056
13862TIP3    H163077   2.727   5.611  12.025  0.5801 -2.2881  1.6205
13862TIP3    H263078   2.658   5.674  12.145 -0.0718 -1.5547  0.8713
13863TIP3   OH263079   5.735   3.302   0.483 -0.2445 -0.3178  0.1416
13863TIP3    H163080   5.762   3.392   0.471 -2.6023  0.7385  1.9600
13863TIP3    H263081   5.738   3.288   0.578 -0.1444 -2.0886 -0.0823
13864TIP3   OH263082   1.141   2.171   4.746 -0.3648 -0.7640 -0.6025
13864TIP3    H163083   1.052   2.158   4.778 -0.4037  0.1243 -0.3082
13864TIP3    H263084   1.141   2.132   4.659 -0.9447 -1.0778 -0.4698
13865TIP3   OH263085   3.911   5.162  15.239 -0.2397 -0.0382 -0.3542
13865TIP3    H163086   3.840   5.104  15.213  0.2648 -0.1145 -1.5835
13865TIP3    H263087   3.877   5.250  15.223 -1.8520  0.2826  3.5016
13866TIP3   OH263088   3.013   2.229   5.863 -0.1738  0.1680 -0.0720
13866TIP3    H163089   3.064   2.271   5.794  0.7071  0.4631  0.7553
13866TIP3    H263090   2.941   2.289   5.880  0.6640  0.9979  0.5821
13867TIP3   OH263091   0.829   3.451  15.210  0.6907 -0.1681 -0.2120
13867TIP3    H163092   0.806   3.513  15.141  1.5924  1.0179  0.5217
13867TIP3    H263093   0.807   3.497  15.291  0.1565 -1.3258  0.3195
13868TIP3   OH263094   1.987   5.541   3.300  0.0037 -0.2166  0.0822
13868TIP3    H163095   2.067   5.555   3.249  0.1059 -0.3932  0.1922
13868TIP3    H263096   1.931   5.615   3.278  0.1514 -0.1550 -0.0873
13869TIP3   OH263097   6.105   2.446  16.694  0.1009 -0.1879 -0.1848
13869TIP3    H163098   6.127   2.504  16.766  1.3641  0.6575 -1.2164
13869TIP3    H263099   6.010   2.440  16.696  0.1158 -1.8659  2.8131
13870TIP3   OH263100   3.369   5.573  12.476  0.1391  0.2913  0.3778
13870TIP3    H163101   3.312   5.649  12.463 -0.8552 -0.7902 -2.2952
13870TIP3    H263102   3.335   5.507  12.416  2.8037 -1.2602  0.4282
13871TIP3   OH263103   1.871   3.951  13.461 -0.0755  0.1260 -0.2427
13871TIP3    H163104   1.921   4.006  13.522 -0.8060  0.2332  0.2803
13871TIP3    H263105   1.779   3.974  13.478 -0.4437 -1.5106  0.2816
13872TIP3   OH263106   2.212   0.823   5.308  0.8605 -0.1323  0.0624
13872TIP3    H163107   2.281   0.795   5.247  2.1574  1.5923  0.6751
13872TIP3    H263108   2.246   0.800   5.394 -0.7782 -2.1635  0.2413
13873TIP3   OH263109   6.811   2.297   4.560 -0.0154 -0.7814  0.2125
13873TIP3    H163110   6.866   2.365   4.600  0.2441 -1.5454  1.2040
13873TIP3    H263111   6.724   2.338   4.553  0.4072  0.0482 -0.3187
13874TIP3   OH263112   1.440   0.250   1.305 -0.6655 -0.0467 -0.5833
13874TIP3    H163113   1.509   0.284   1.249 -0.0892  0.7792  0.5844
13874TIP3    H263114   1.359   0.267   1.257 -0.1118 -0.2815 -1.6026
13875TIP3   OH263115   5.989   6.488   5.825  0.2559  0.0396  0.6813
13875TIP3    H163116   5.936   6.471   5.903  1.5509 -0.1894  1.5419
13875TIP3    H263117   5.934   6.458   5.752 -2.2523  3.0317  1.1371
13876TIP3   OH263118   0.050   2.098  11.576 -0.2043  0.3696  0.2917
13876TIP3    H163119   0.136   2.061  11.593 -0.0548  0.0159 -1.1405
13876TIP3    H263120  -0.009   2.050  11.633  0.6761  1.4210  2.1794
13877TIP3   OH263121   3.287   5.715   5.708 -1.0747  0.4110 -0.2911
13877TIP3    H163122   3.229   5.668   5.648  0.5755 -1.7642 -0.3288
13877TIP3    H263123   3.236   5.726   5.788 -2.6480  1.6105 -1.3982
13878TIP3   OH263124   2.887   2.920   3.293 -0.3505 -0.5477  0.3766
13878TIP3    H163125   2.894   3.009   3.328 -0.0662 -0.7273  0.7942
13878TIP3    H263126   2.887   2.930   3.198 -0.0964 -0.1194  0.4236
13879TIP3   OH263127   1.658   5.366  15.339 -0.2084  0.3238  0.4194
13879TIP3    H163128   1.655   5.433  15.271 -0.0601 -0.3878 -0.3055
13879TIP3    H263129   1.567   5.340  15.351 -0.1730  0.0345  0.0685
13880TIP3   OH263130   0.790   5.228  16.363  0.0527  0.3099  0.2250
13880TIP3    H163131   0.796   5.312  16.318  2.2558 -0.8447 -1.8120
13880TIP3    H263132   0.696   5.218  16.382 -0.6465  1.9750 -1.9541
13881TIP3   OH263133   3.285   0.454   3.662 -0.3382  0.5784  0.4609
13881TIP3    H163134   3.247   0.513   3.726  2.0711  2.1275  0.5899
13881TIP3    H263135   3.324   0.384   3.714  0.9641  1.4404  0.6756
13882TIP3   OH263136   4.012   2.775   5.136  0.7442 -0.0334 -0.3837
13882TIP3    H163137   3.988   2.689   5.101  0.1032 -0.2973  0.6494
13882TIP3    H263138   3.994   2.836   5.065 -1.2313 -0.4537 -0.3106
13883TIP3   OH263139   6.163   2.001   6.006  0.2255 -0.0912  0.2061
13883TIP3    H163140   6.144   1.908   5.995 -0.8873 -0.1321  1.9610
13883TIP3    H263141   6.220   2.024   5.933  0.2449 -2.0671 -0.4383
13884TIP3   OH263142   5.648   2.482   0.220  0.4553  0.2452 -0.0549
13884TIP3    H163143   5.632   2.562   0.271 -0.7769 -0.6863  1.0927
13884TIP3    H263144   5.562   2.441   0.213  1.0647 -0.9789 -0.6400
13885TIP3   OH263145   5.761   4.179  14.353 -1.1842 -0.5765 -0.2682
13885TIP3    H163146   5.857   4.171  14.356 -0.8138  2.7661  0.6165
13885TIP3    H263147   5.739   4.170  14.260  0.4017  1.4084 -0.9120
13886TIP3   OH263148   2.460   6.186   1.325  0.2222  0.3353 -0.4507
13886TIP3    H163149   2.549   6.151   1.326  0.0994 -0.0102 -1.0430
13886TIP3    H263150   2.419   6.144   1.250 -0.6367  0.0067  0.1838
13887TIP3   OH263151   3.529   4.579   0.049  0.4771  0.1190 -0.2338
13887TIP3    H163152   3.586   4.637   0.099  1.7129 -0.8484 -0.4795
13887TIP3    H263153   3.530   4.497   0.097 -1.5333  0.3383  0.3050
13888TIP3   OH263154   1.148   5.164   3.691  0.2545  0.0106 -0.2293
13888TIP3    H163155   1.121   5.075   3.668 -0.4316 -0.5416  2.3559
13888TIP3    H263156   1.069   5.205   3.725  1.2593  0.4760  1.6898
13889TIP3   OH263157   3.007   6.003  16.103 -0.0417  0.3633 -0.2780
13889TIP3    H163158   2.935   5.940  16.109  0.2447 -0.0801 -1.3089
13889TIP3    H263159   2.973   6.082  16.144 -0.1560 -0.6583  1.7186
13890TIP3   OH263160   5.363   1.612  11.046 -0.0570 -0.1710  0.1471
13890TIP3    H163161   5.323   1.667  11.113 -0.6464 -1.2434  0.6868
13890TIP3    H263162   5.424   1.671  11.001 -1.7616  1.3570 -0.2983
13891TIP3   OH263163   4.930   1.101   4.567 -0.1571  0.5157  0.3346
13891TIP3    H163164   4.885   1.033   4.516 -0.7072 -0.1668  1.6723
13891TIP3    H263165   5.012   1.060   4.594 -0.6728  0.1947  1.4959
13892TIP3   OH263166   5.015   4.157  16.397 -0.0701 -0.2074 -1.1068
13892TIP3    H163167   5.035   4.249  16.382  0.9096 -0.3260 -0.6137
13892TIP3    H263168   4.991   4.152  16.490  0.3928 -0.5238 -0.9994
13893TIP3   OH263169   5.327   5.077  14.251 -0.1035  0.9902 -0.4983
13893TIP3    H163170   5.302   5.102  14.340  2.5612 -0.6285  0.8322
13893TIP3    H263171   5.422   5.078  14.252  0.2464 -4.0109 -1.6879
13894TIP3   OH263172   5.488   3.669   3.527  0.2831  0.1849  0.4318
13894TIP3    H163173   5.570   3.693   3.484 -0.5470 -0.7360 -1.8346
13894TIP3    H263174   5.513   3.644   3.616  2.0305  2.7831  0.7958
13895TIP3   OH263175   5.038   2.868  12.665 -0.1045 -0.9239 -0.4663
13895TIP3    H163176   4.984   2.947  12.652  2.5943  0.9147 -1.2646
13895TIP3    H263177   5.124   2.893  12.632  1.4526 -3.5004  1.3999
13896TIP3   OH263178   5.077   3.042   0.608 -0.0506  0.3451 -0.4105
13896TIP3    H163179   5.158   3.072   0.567  0.8419 -1.5274 -0.1019
13896TIP3    H263180   5.094   2.951   0.632 -2.8652 -0.7869 -2.1028
13897TIP3   OH263181   1.934   5.341  16.990 -0.3471  0.2675 -0.0664
13897TIP3    H163182   2.010   5.284  16.984 -0.0415  0.6807 -0.1353
13897TIP3    H263183   1.959   5.410  17.051 -1.2531 -0.4940  1.2138
13898TIP3   OH263184   5.386   5.290   2.420 -0.1019  0.5497  0.3397
13898TIP3    H163185   5.426   5.372   2.390 -0.1990  0.4157 -0.1598
13898TIP3    H263186   5.460   5.231   2.432 -0.2027 -0.1272 -1.8788
13899TIP3   OH263187   4.153   4.266   4.789 -0.3067 -0.2373 -0.2525
13899TIP3    H163188   4.231   4.217   4.817  0.5346  1.3215  0.2493
13899TIP3    H263189   4.115   4.214   4.718  0.7860 -1.3767 -0.0261
13900TIP3   OH263190   6.556   6.508  15.287  0.3064  0.4850  0.2350
13900TIP3    H163191   6.574   6.416  15.306 -0.2882  0.7279  2.3023
13900TIP3    H263192   6.621   6.532  15.221 -0.2129 -1.6665 -1.1529
13901TIP3   OH263193   3.981   4.124   3.149 -0.4653 -0.4863 -0.5019
13901TIP3    H163194   3.992   4.188   3.220  0.7982 -0.6879 -0.4872
13901TIP3    H263195   3.900   4.078   3.171 -0.4412 -0.1019  0.4597
13902TIP3   OH263196   5.527   5.123  16.299  0.1264 -0.0599 -0.0627
13902TIP3    H163197   5.496   5.033  16.311  0.7254 -0.6377 -2.2508
13902TIP3    H263198   5.468   5.176  16.352  0.1464 -1.7623  1.7919
13903TIP3   OH263199   5.622   4.404   2.484 -0.2808 -0.2295 -0.0698
13903TIP3    H163200   5.637   4.324   2.433 -0.2246  0.2203 -0.7602
13903TIP3    H263201   5.555   4.451   2.436 -0.4341  0.0694  0.4294
13904TIP3   OH263202   6.406   4.711  12.462  0.4286 -0.0865  0.3902
13904TIP3    H163203   6.416   4.798  12.499 -1.1486  1.4192 -2.3384
13904TIP3    H263204   6.465   4.709  12.387 -1.1879 -0.4027 -0.9599
13905TIP3   OH263205   5.427   1.680   2.312  0.6093  0.5074 -0.3275
13905TIP3    H163206   5.380   1.757   2.346  1.5772  1.2130 -0.5495
13905TIP3    H263207   5.479   1.714   2.239  1.5636 -0.2201 -0.0067
13906TIP3   OH263208   0.547   5.555  14.218 -0.6202  0.1878  0.2730
13906TIP3    H163209   0.629   5.603  14.226 -0.5034  0.1245 -0.5216
13906TIP3    H263210   0.573   5.464  14.205 -0.8393 -0.0748  1.5266
13907TIP3   OH263211   3.297   0.530  16.886 -0.3966 -0.0203  0.0262
13907TIP3    H163212   3.385   0.566  16.875 -0.3241 -0.3897 -0.6386
13907TIP3    H263213   3.264   0.519  16.797 -1.3648  0.7127  0.2716
13908TIP3   OH263214   0.951   2.995  15.024 -0.0194 -0.4134  0.4486
13908TIP3    H163215   0.897   2.975  14.948  2.1980 -0.4145 -1.1931
13908TIP3    H263216   0.894   3.051  15.079 -0.9810  1.4492 -2.2218
13909TIP3   OH263217   3.027   6.188   5.546 -0.2605  0.5698  0.3645
13909TIP3    H163218   2.994   6.188   5.456 -0.0992 -1.2646  0.2581
13909TIP3    H263219   3.111   6.233   5.541  0.6052 -1.0623 -0.7963
13910TIP3   OH263220   1.002   0.853   3.105 -0.1771  0.0258 -0.4831
13910TIP3    H163221   0.965   0.940   3.122 -0.3511 -0.2002  0.3714
13910TIP3    H263222   0.965   0.827   3.021 -0.4881  0.5888 -0.5259
13911TIP3   OH263223   6.175   2.252   4.260 -0.2456  0.0116 -0.4820
13911TIP3    H163224   6.149   2.183   4.322  0.2463  1.8103  1.8771
13911TIP3    H263225   6.093   2.285   4.225 -0.6625  0.1330  0.5813
13912TIP3   OH263226   4.719   0.648  15.968  0.2651  0.7544  0.3937
13912TIP3    H163227   4.794   0.630  16.024 -0.2988  0.5063  1.0817
13912TIP3    H263228   4.756   0.656  15.880  1.2056  1.5063  0.8423
13913TIP3   OH263229   2.586   4.278   2.759  0.0842  0.0028 -0.0496
13913TIP3    H163230   2.638   4.284   2.679 -0.1661 -0.3795 -0.2448
13913TIP3    H263231   2.495   4.283   2.730 -0.0222 -0.6378  0.1556
13914TIP3   OH263232   5.744   6.404  12.886  0.4398  0.1139  0.2978
13914TIP3    H163233   5.797   6.421  12.808 -0.6945 -1.9754 -1.0204
13914TIP3    H263234   5.656   6.386  12.853 -0.3042  0.1215  2.1425
13915TIP3   OH263235   3.511   5.688   4.429 -0.2271 -0.5903 -0.3827
13915TIP3    H163236   3.455   5.714   4.502  0.7941 -0.1996  0.2874
13915TIP3    H263237   3.477   5.737   4.354 -0.4094  0.1131  0.1460
13916TIP3   OH263238   1.565   3.121  10.510  0.2441 -0.4519 -0.5613
13916TIP3    H163239   1.559   3.026  10.516 -0.6939 -0.3359  3.6831
13916TIP3    H263240   1.651   3.142  10.548  0.7193  0.4461 -2.0368
13917TIP3   OH263241   1.987   6.245  15.864  0.2985  0.4175 -0.0282
13917TIP3    H163242   1.990   6.264  15.770 -0.6775  0.0870 -0.1392
13917TIP3    H263243   1.989   6.150  15.870 -3.2953  0.1921  0.0223
13918TIP3   OH263244   5.595   6.610  16.742 -0.2338  0.0458  0.1685
13918TIP3    H163245   5.647   6.587  16.819  0.2888 -0.1024 -0.2192
13918TIP3    H263246   5.658   6.648  16.680 -1.2586  4.1317  1.3273
13919TIP3   OH263247   6.777   6.568  15.711  0.6999  0.1735  0.4468
13919TIP3    H163248   6.719   6.637  15.678 -0.2122 -0.7257  0.1156
13919TIP3    H263249   6.717   6.498  15.738  1.5733 -0.2094  1.4490
13920TIP3   OH263250   1.586   5.412  13.725 -0.4245  0.2386  0.0889
13920TIP3    H163251   1.626   5.470  13.789  1.1548  0.6823 -1.2294
13920TIP3    H263252   1.598   5.324  13.761 -0.0412  0.5145  0.6484
13921TIP3   OH263253   2.689   4.595   6.223  0.1496 -0.5686  0.7993
13921TIP3    H163254   2.755   4.665   6.223  0.7413 -1.0813  2.4422
13921TIP3    H263255   2.669   4.581   6.315 -0.0819 -2.4743  0.4882
13922TIP3   OH263256   1.044   3.681   6.331 -0.4380  0.3630 -0.0008
13922TIP3    H163257   1.128   3.725   6.344 -0.0536 -0.4346  0.2971
13922TIP3    H263258   0.992   3.707   6.407  0.2148 -0.6535  0.8135
13923TIP3   OH263259   1.689   0.614  15.425 -0.5274 -0.4068 -0.6735
13923TIP3    H163260   1.761   0.553  15.436  1.0662  1.3997 -0.4595
13923TIP3    H263261   1.682   0.626  15.330  1.5060  1.6009 -0.6502
13924TIP3   OH263262   2.066   4.295  13.278  0.2186  0.1806 -0.1735
13924TIP3    H163263   2.082   4.227  13.213 -0.2007 -1.5891  1.4619
13924TIP3    H263264   2.096   4.257  13.361 -1.2174  1.4727  1.0200
13925TIP3   OH263265   4.624   5.390  13.971  0.3515  0.3917 -0.0660
13925TIP3    H163266   4.609   5.362  14.061 -2.5586 -0.1378 -0.6241
13925TIP3    H263267   4.641   5.309  13.923  1.6679  0.6495 -0.0685
13926TIP3   OH263268   1.183   0.549   0.183 -0.2693 -0.2639  0.0399
13926TIP3    H163269   1.202   0.487   0.253  0.5466 -1.9231 -1.5416
13926TIP3    H263270   1.256   0.610   0.183  0.2552 -0.8794  0.0128
13927TIP3   OH263271   1.839   3.721  11.461  0.1412  0.0921  0.0523
13927TIP3    H163272   1.927   3.748  11.485 -0.5481  1.9229  0.7314
13927TIP3    H263273   1.829   3.748  11.370  0.4454 -0.6146 -0.1984
13928TIP3   OH263274   6.509   2.352  14.782 -0.0656  0.6696 -0.0160
13928TIP3    H163275   6.467   2.362  14.867 -0.2932 -1.7478  0.2166
13928TIP3    H263276   6.577   2.419  14.781 -0.3509  1.0284  1.8869
13929TIP3   OH263277   6.092   5.705  14.762  0.2724  0.2637  0.1559
13929TIP3    H163278   6.090   5.771  14.694 -1.5941  2.0990  1.8352
13929TIP3    H263279   6.177   5.663  14.753  0.4230  1.0033 -2.6871
13930TIP3   OH263280   6.439   2.471   2.671 -0.1533 -0.1203 -0.5220
13930TIP3    H163281   6.507   2.468   2.604  1.8628 -0.0548  1.3982
13930TIP3    H263282   6.444   2.560   2.707 -0.9083 -0.2754 -0.0094
13931TIP3   OH263283   1.162   0.383   4.421 -0.1700  0.5167 -0.5819
13931TIP3    H163284   1.252   0.409   4.440 -1.2481  2.3034  3.2825
13931TIP3    H263285   1.117   0.466   4.405 -1.1140 -0.3967 -3.0817
13932TIP3   OH263286   6.117   1.109   4.678  0.0750 -0.1964 -0.4906
13932TIP3    H163287   6.036   1.081   4.722  0.2164 -0.8793 -0.6602
13932TIP3    H263288   6.182   1.045   4.705  0.2688 -0.3715 -1.3579
13933TIP3   OH263289   3.769   2.341   2.535  0.2292  0.1611 -0.1760
13933TIP3    H163290   3.858   2.374   2.544  0.1518 -0.0673  2.0665
13933TIP3    H263291   3.733   2.344   2.624 -2.2979  1.0172 -1.1394
13934TIP3   OH263292   5.040   6.173   0.187 -0.5989 -0.1118 -0.1703
13934TIP3    H163293   4.962   6.118   0.181 -0.2412 -0.7192  0.5969
13934TIP3    H263294   5.007   6.262   0.171 -0.9966 -0.6284 -2.6596
13935TIP3   OH263295   6.326   5.722  12.413 -0.1672  0.4238  0.0767
13935TIP3    H163296   6.314   5.634  12.447 -0.1990  0.2876 -0.2790
13935TIP3    H263297   6.312   5.713  12.318 -1.5204  1.0535  0.1957
13936TIP3   OH263298   4.298   4.101   3.648  0.3406  0.3734  0.2904
13936TIP3    H163299   4.298   4.120   3.554  1.3135  0.4744  0.2988
13936TIP3    H263300   4.238   4.027   3.658 -0.2418  0.7540 -0.3224
13937TIP3   OH263301   4.083   2.824   3.869 -0.4104  0.3499  0.2590
13937TIP3    H163302   4.128   2.844   3.951 -0.5301 -1.3511  0.7921
13937TIP3    H263303   4.001   2.873   3.875  0.2557  1.4897  0.4154
13938TIP3   OH263304   2.359   3.942  16.405  0.1534  0.0217 -0.4311
13938TIP3    H163305   2.294   3.968  16.470 -0.8847  0.0649 -1.4572
13938TIP3    H263306   2.440   3.932  16.455  0.1553  3.1321  0.3716
13939TIP3   OH263307   6.639   2.234   6.034 -0.4234 -0.3639 -0.2281
13939TIP3    H163308   6.572   2.194   6.090 -0.2896 -2.0618 -1.2118
13939TIP3    H263309   6.655   2.320   6.073 -1.8495 -0.6549  1.0875
13940TIP3   OH263310   5.323   4.508   1.767  0.1061  0.1830  0.3311
13940TIP3    H163311   5.282   4.539   1.848  0.6320  1.6502  0.0651
13940TIP3    H263312   5.293   4.418   1.758 -3.6626  1.2869 -0.2150
13941TIP3   OH263313   3.132   2.019  11.183 -0.0339 -0.1615 -0.2543
13941TIP3    H163314   3.118   2.020  11.278 -0.0017 -0.4654 -0.2453
13941TIP3    H263315   3.191   1.945  11.169 -0.9903 -0.8530 -0.6487
13942TIP3   OH263316   2.509   5.844  15.038 -0.2047 -0.0605  0.4405
13942TIP3    H163317   2.514   5.819  15.130 -0.5407  1.5953  0.9368
13942TIP3    H263318   2.598   5.830  15.005  0.4538  1.2591  1.5593
13943TIP3   OH263319   0.355   2.600  13.810  0.3470  0.4639  0.4247
13943TIP3    H163320   0.336   2.561  13.725  0.7982  0.7312  0.1908
13943TIP3    H263321   0.432   2.553  13.841 -1.0347 -1.0710  1.6699
13944TIP3   OH263322   0.903   1.343   2.141 -0.0821 -0.2755 -0.2154
13944TIP3    H163323   0.835   1.393   2.096  0.4695 -0.5997 -1.4289
13944TIP3    H263324   0.969   1.326   2.075  0.0898 -1.9899  0.3446
13945TIP3   OH263325   3.684   2.443   3.959 -0.0120  0.0055  0.2757
13945TIP3    H163326   3.726   2.506   3.901  0.8406 -0.1314  0.7242
13945TIP3    H263327   3.605   2.487   3.989  1.0421  1.2603  1.3345
13946TIP3   OH263328   1.648   1.080  15.044 -0.0049  0.3355 -0.0648
13946TIP3    H163329   1.616   1.169  15.062  1.1795  0.7321  0.1732
13946TIP3    H263330   1.707   1.061  15.116  0.8752 -0.0629 -0.8611
13947TIP3   OH263331   1.918   3.108  13.218  0.6132 -0.3072  0.1715
13947TIP3    H163332   1.824   3.112  13.199  0.6595  1.4581  0.1364
13947TIP3    H263333   1.925   3.135  13.310  1.2663  2.8945 -0.6853
13948TIP3   OH263334   5.621   6.667  11.131  0.0758  0.0529 -0.5519
13948TIP3    H163335   5.690   6.614  11.170  0.2381 -0.0881 -1.0305
13948TIP3    H263336   5.634   6.659  11.037 -0.3616  0.3315 -0.6404
13949TIP3   OH263337   0.389   6.786   3.237  0.0479  0.0596 -0.1863
13949TIP3    H163338   0.377   6.767   3.144  1.3377 -1.8308 -0.0230
13949TIP3    H263339   0.448   6.717   3.268  1.9431  2.2300  1.4105
13950TIP3   OH263340   0.332   3.605   1.039  0.0667 -0.9124 -0.0651
13950TIP3    H163341   0.324   3.549   0.962  0.9530  0.8259 -1.5206
13950TIP3    H263342   0.248   3.598   1.083 -0.2332 -2.4661 -0.8134
13951TIP3   OH263343   2.657   4.182   5.002 -0.2438 -0.4219 -0.2713
13951TIP3    H163344   2.583   4.152   5.054  0.5400  1.5468  2.1806
13951TIP3    H263345   2.620   4.244   4.940 -0.8195 -0.5297 -0.0401
13952TIP3   OH263346   2.548   2.464   3.492  0.2007  0.5251  1.0432
13952TIP3    H163347   2.499   2.411   3.430  0.5479  1.4847 -0.1018
13952TIP3    H263348   2.491   2.471   3.568 -0.4474 -0.2805  0.6519
13953TIP3   OH263349   0.378   0.555  12.324 -0.4162 -0.3879  0.1803
13953TIP3    H163350   0.344   0.636  12.361 -1.2882 -0.4952 -0.3565
13953TIP3    H263351   0.306   0.492  12.333  0.0138 -0.9183 -0.0133
13954TIP3   OH263352   2.902   1.152  15.000 -0.1254  0.4009  0.6019
13954TIP3    H163353   2.935   1.165  15.089  0.6903  1.9367  0.1061
13954TIP3    H263354   2.981   1.152  14.945 -0.2475 -3.6555  0.0906
13955TIP3   OH263355   0.669   2.604  12.617  0.0708  0.3901 -0.3005
13955TIP3    H163356   0.686   2.669  12.549 -1.5332 -0.5695 -1.7219
13955TIP3    H263357   0.684   2.520  12.573 -0.7560 -0.2431  0.5815
13956TIP3   OH263358   6.525   5.419   5.801  0.3705 -0.5214  0.2105
13956TIP3    H163359   6.442   5.376   5.820  1.1850 -1.6294  1.4281
13956TIP3    H263360   6.553   5.455   5.886  0.1518  1.6866 -0.5879
13957TIP3   OH263361   1.515   5.082   0.302 -0.2683 -0.1778 -0.1819
13957TIP3    H163362   1.585   5.026   0.267 -1.0454 -1.3758  0.1303
13957TIP3    H263363   1.522   5.074   0.397 -0.6775 -0.0997 -0.1424
13958TIP3   OH263364   1.315   5.822  15.209  0.2252  0.7006 -0.0658
13958TIP3    H163365   1.254   5.797  15.278 -0.3344 -0.0296 -0.8147
13958TIP3    H263366   1.400   5.791  15.240 -0.0399  0.2611  0.2382
13959TIP3   OH263367   3.314   2.171  14.471  0.3182  0.2197  0.3304
13959TIP3    H163368   3.353   2.186  14.385 -0.2910  1.5315  0.2442
13959TIP3    H263369   3.386   2.184  14.533  0.4415  0.7613  0.0813
13960TIP3   OH263370   2.892   1.494  12.321  0.4758  0.1930  0.2106
13960TIP3    H163371   2.935   1.421  12.366 -0.0718 -0.4496 -0.2820
13960TIP3    H263372   2.954   1.520  12.253 -0.0758 -1.0557 -0.8191
13961TIP3   OH263373   5.471   3.944  14.105  0.3711 -0.4394  0.0295
13961TIP3    H163374   5.508   3.932  14.018  0.5913  0.0676  0.0491
13961TIP3    H263375   5.479   4.038  14.122 -0.8999 -0.3176  0.0476
13962TIP3   OH263376   6.811   0.106  12.943  0.6661 -0.1969  0.3071
13962TIP3    H163377   6.777   0.149  12.864  1.6264  0.2260  0.1102
13962TIP3    H263378   6.768   0.020  12.943 -1.9488  1.0036  1.1705
13963TIP3   OH263379   0.964   1.901   4.372 -0.3949 -0.0124 -0.1881
13963TIP3    H163380   0.900   1.961   4.410  1.7071  0.9638  2.0389
13963TIP3    H263381   1.046   1.923   4.415  1.1490 -2.2869 -1.7636
13964TIP3   OH263382   1.092   3.027  11.663  0.2169  0.3271 -0.6810
13964TIP3    H163383   1.045   3.110  11.658  0.0715  0.2889 -0.0284
13964TIP3    H263384   1.068   2.981  11.582  0.7841  1.1659 -1.3380
13965TIP3   OH263385   6.023   0.345  16.840 -0.3366 -0.0722 -0.0012
13965TIP3    H163386   6.096   0.307  16.888 -0.0898 -0.2349 -0.5048
13965TIP3    H263387   6.008   0.429  16.883 -1.5788 -1.1562  1.8050
13966TIP3   OH263388   6.222   6.744  14.022 -0.3029  0.3155 -0.2246
13966TIP3    H163389   6.194   6.799  13.949 -1.4329 -0.1948 -0.2113
13966TIP3    H263390   6.299   6.788  14.058 -0.0595  0.8660 -1.3721
13967TIP3   OH263391   3.020   0.331   4.888 -0.1928  0.2604  0.1151
13967TIP3    H163392   2.961   0.264   4.921 -0.7063 -0.1649 -1.5391
13967TIP3    H263393   3.106   0.308   4.924 -0.8546  0.4309  1.9003
13968TIP3   OH263394   0.489   1.721   6.683 -0.1406 -0.1378 -0.0188
13968TIP3    H163395   0.472   1.697   6.592  2.0198 -2.3266  0.0159
13968TIP3    H263396   0.416   1.682   6.732 -0.1281 -0.9828 -0.6365
13969TIP3   OH263397   6.452   3.028   4.806  0.4922 -0.3062  0.0168
13969TIP3    H163398   6.540   3.064   4.816  0.0707  0.7508  0.1108
13969TIP3    H263399   6.407   3.090   4.748  0.4502 -1.9996 -1.8608
13970TIP3   OH263400   5.090   6.149   2.974 -0.2399  0.6406 -0.0531
13970TIP3    H163401   5.089   6.205   2.896 -1.3838  1.3942  0.4618
13970TIP3    H263402   5.080   6.060   2.941 -1.5043  1.0162 -0.7449
13971TIP3   OH263403   5.978   4.306   2.642  0.1821 -0.4887  0.1527
13971TIP3    H163404   6.037   4.232   2.658  1.8241  0.6000 -0.5569
13971TIP3    H263405   5.944   4.290   2.554  0.5226 -0.4183  0.0060
13972TIP3   OH263406   1.656   6.231  15.805  0.2753  0.4726 -0.0619
13972TIP3    H163407   1.733   6.254  15.858 -0.2088 -0.4421  1.0689
13972TIP3    H263408   1.673   6.273  15.720  2.4407 -0.4006 -0.1363
13973TIP3   OH263409   5.463   5.080  12.443  0.4231  0.6283  0.2101
13973TIP3    H163410   5.520   5.040  12.508 -0.9073 -2.5480 -0.4113
13973TIP3    H263411   5.474   5.027  12.364 -3.5739 -0.4519  0.1608
13974TIP3   OH263412   5.625   1.406   0.790 -0.1889 -0.4198 -0.0648
13974TIP3    H163413   5.714   1.428   0.762  0.4613 -1.8678  0.7329
13974TIP3    H263414   5.589   1.354   0.718 -0.1801 -0.3134 -0.1460
13975TIP3   OH263415   5.057   1.096   3.581  0.4263 -0.5499 -0.4234
13975TIP3    H163416   4.967   1.118   3.606  0.0030 -0.4780 -1.8941
13975TIP3    H263417   5.109   1.171   3.608 -0.4515  0.7773 -2.2010
13976TIP3   OH263418   5.800   1.992   2.864  0.1324  0.0298 -0.4623
13976TIP3    H163419   5.751   1.979   2.783 -0.7760 -0.9218  0.2181
13976TIP3    H263420   5.871   2.051   2.840  0.4994 -1.0704 -2.1854
13977TIP3   OH263421   5.646   4.946  13.880  0.3708 -0.2658 -0.0859
13977TIP3    H163422   5.586   5.017  13.858  1.0634  0.5409  0.5602
13977TIP3    H263423   5.623   4.875  13.819  0.4245  0.9124 -1.5317
13978TIP3   OH263424   2.096   4.944   2.061  0.0642 -0.0919  0.2898
13978TIP3    H163425   2.077   5.037   2.049  2.2562  1.1143  4.3500
13978TIP3    H263426   2.184   4.933   2.025  0.0105 -0.5094  0.2825
13979TIP3   OH263427   2.490   0.156   1.794 -0.7708 -0.0071  0.3304
13979TIP3    H163428   2.537   0.239   1.786 -1.6913  0.5379  0.4821
13979TIP3    H263429   2.556   0.089   1.776 -0.0323  0.7584  0.1583
13980TIP3   OH263430   2.603   3.524   0.587  0.4630 -0.2072 -0.4651
13980TIP3    H163431   2.585   3.488   0.500  0.5743 -0.4911 -0.3729
13980TIP3    H263432   2.588   3.450   0.647  0.2816  0.0162 -0.2342
13981TIP3   OH263433   5.378   6.160  10.782  0.8564 -0.1133 -0.4388
13981TIP3    H163434   5.429   6.241  10.787 -1.0539  1.1400 -0.1814
13981TIP3    H263435   5.334   6.154  10.867  0.8443 -1.3851 -0.5059
13982TIP3   OH263436   4.561   3.594   2.835  0.5058  0.6305  0.2144
13982TIP3    H163437   4.510   3.663   2.792 -1.0700 -0.8166 -0.3564
13982TIP3    H263438   4.582   3.630   2.921  0.2279  2.0393 -0.2797
13983TIP3   OH263439   4.246   1.252  12.926 -0.3544 -0.2276  0.1146
13983TIP3    H163440   4.248   1.284  12.836  0.1330  0.1410  0.2523
13983TIP3    H263441   4.158   1.218  12.938  0.1789 -2.2511 -1.1926
13984TIP3   OH263442   4.914   4.083  16.905 -0.5650 -0.4412 -0.2801
13984TIP3    H163443   4.836   4.139  16.907 -0.2694 -0.0393  0.2598
13984TIP3    H263444   4.987   4.143  16.920 -0.1907 -0.8814 -0.3273
13985TIP3   OH263445   4.878   0.118  12.480 -0.1761  0.2601  0.1113
13985TIP3    H163446   4.857   0.025  12.479 -0.3306  0.2883 -1.1636
13985TIP3    H263447   4.973   0.122  12.468 -0.2313  0.2742 -0.3326
13986TIP3   OH263448   5.963   2.012   1.260 -0.7684  0.2629  0.5131
13986TIP3    H163449   5.983   2.084   1.200  0.5298 -0.0611  0.5386
13986TIP3    H263450   5.971   2.051   1.347 -1.3167  0.3912  0.5119
13987TIP3   OH263451   2.865   2.848  13.166 -0.1195 -0.3145 -0.0978
13987TIP3    H163452   2.786   2.798  13.190 -0.5513  0.7088  0.6745
13987TIP3    H263453   2.936   2.802  13.209 -0.5454 -0.1262  0.8209
13988TIP3   OH263454   3.530   1.015  15.206  0.4661  0.0513  0.3562
13988TIP3    H163455   3.582   1.048  15.279 -0.7813  1.8417  0.5206
13988TIP3    H263456   3.581   1.037  15.128 -0.5505  3.2399  0.4043
13989TIP3   OH263457   0.041   0.445  15.578  1.0752 -0.1006 -0.6690
13989TIP3    H163458   0.071   0.479  15.494  2.8253 -0.3977 -0.2065
13989TIP3    H263459   0.033   0.351  15.564  1.0398 -0.1064 -0.6079
13990TIP3   OH263460   1.439   2.307  14.647  0.3165 -0.0135 -0.2862
13990TIP3    H163461   1.474   2.257  14.573 -1.7363 -0.7772 -0.8017
13990TIP3    H263462   1.461   2.398  14.626  2.3349 -0.4481 -0.3268
13991TIP3   OH263463   2.816   1.539   1.708 -0.4941  0.2311  0.3753
13991TIP3    H163464   2.846   1.605   1.645  0.4467 -0.7175 -0.2229
13991TIP3    H263465   2.891   1.525   1.765 -0.8611  0.0460  0.8173
13992TIP3   OH263466   4.992   5.529  10.613  0.1951 -0.4355 -0.2672
13992TIP3    H163467   5.080   5.557  10.636 -0.3839  0.9988  0.3142
13992TIP3    H263468   5.000   5.434  10.599  1.3819 -0.7456  1.9744
13993TIP3   OH263469   1.542   5.048   3.653 -0.0859  0.6111  0.7552
13993TIP3    H163470   1.606   5.017   3.717 -0.3721 -1.7621 -0.0171
13993TIP3    H263471   1.594   5.066   3.575 -0.1936 -0.2250  0.4812
13994TIP3   OH263472   2.271   1.589  14.753  0.3107  0.1701  0.0264
13994TIP3    H163473   2.214   1.656  14.716  0.9475  0.2152 -0.8984
13994TIP3    H263474   2.359   1.612  14.722  0.4575 -1.4733 -0.8919
13995TIP3   OH263475   1.671   3.690  14.654  0.4731  0.6626  0.1004
13995TIP3    H163476   1.614   3.618  14.683  0.7376  0.4637  0.1375
13995TIP3    H263477   1.614   3.766  14.651  0.3763  0.6368  0.9127
13996TIP3   OH263478   4.195   3.191  17.153 -0.1337  0.4565  0.2501
13996TIP3    H163479   4.170   3.175  17.062 -2.9853  0.9743  0.8469
13996TIP3    H263480   4.207   3.104  17.190 -1.5631  0.1250 -0.0054
13997TIP3   OH263481   6.751   3.357   5.843  0.4290  0.1407 -0.3949
13997TIP3    H163482   6.799   3.318   5.916  0.7760 -0.5804 -1.0064
13997TIP3    H263483   6.680   3.296   5.825 -0.2680  0.8253  0.0009
13998TIP3   OH263484   1.411   1.411  16.821 -0.8516  0.6175  0.2046
13998TIP3    H163485   1.385   1.495  16.858 -2.5219 -0.2549  1.1522
13998TIP3    H263486   1.466   1.371  16.888  1.8198  1.8159 -1.1613
13999TIP3   OH263487   0.668   4.703   1.280  0.2218  0.0685 -0.0627
13999TIP3    H163488   0.573   4.702   1.282  0.2224  0.3104  0.2880
13999TIP3    H263489   0.693   4.617   1.246 -0.1326  0.2468 -0.7842
14000TIP3   OH263490   3.572   1.454   4.477  0.3215  0.3703 -0.2473
14000TIP3    H163491   3.589   1.488   4.389 -1.1714 -1.9074 -1.5159
14000TIP3    H263492   3.631   1.379   4.486 -1.2855 -0.9675 -0.3914
14001TIP3   OH263493   4.100   1.460   2.930  0.2769  0.0456  0.5266
14001TIP3    H163494   4.163   1.531   2.934 -1.6878  1.9198  0.2760
14001TIP3    H263495   4.042   1.475   3.005 -0.2696 -1.2019  0.3776
14002TIP3   OH263496   6.631   3.837   3.923  0.1097  0.1793 -0.0607
14002TIP3    H163497   6.567   3.827   3.853  0.6480 -1.3284 -0.3613
14002TIP3    H263498   6.676   3.920   3.903  0.4637 -0.3725 -1.6837
14003TIP3   OH263499   0.324   5.867   3.904 -0.6921  0.0186  0.3797
14003TIP3    H163500   0.249   5.815   3.875  0.6748 -1.0660 -1.4458
14003TIP3    H263501   0.380   5.804   3.950 -1.2601  1.0071  2.5076
14004TIP3   OH263502   5.593   4.460  12.012 -0.1880  0.0762 -0.1031
14004TIP3    H163503   5.624   4.370  12.002 -0.4257  0.1032 -1.2002
14004TIP3    H263504   5.499   4.455  11.994  0.2049  0.9213 -2.8718
14005TIP3   OH263505   0.064   3.964   5.409  0.8723 -0.4575  0.0385
14005TIP3    H163506   0.115   3.921   5.341  1.0292 -1.0259  0.5120
14005TIP3    H263507  -0.026   3.933   5.395  0.7859 -0.0753 -0.2971
14006TIP3   OH263508   0.757   2.658  17.026 -0.0376 -0.2889  0.4146
14006TIP3    H163509   0.682   2.658  17.086 -0.6571  2.1712 -0.2548
14006TIP3    H263510   0.830   2.693  17.077  0.5192 -1.9704  0.8394
14007TIP3   OH263511   1.979   4.841  13.940  0.1596 -0.0247  0.1212
14007TIP3    H163512   1.965   4.897  14.016  0.4653  0.0802  0.1018
14007TIP3    H263513   1.998   4.902  13.869 -4.2681  0.2883 -1.1084
14008TIP3   OH263514   6.115   1.136  12.354 -0.2331 -0.5257  0.8492
14008TIP3    H163515   6.096   1.056  12.305  0.2814 -0.5635  0.7070
14008TIP3    H263516   6.200   1.120  12.394 -0.4329 -0.3107  1.3811
14009TIP3   OH263517   1.181   2.963   6.549 -0.4765  0.2443 -0.1233
14009TIP3    H163518   1.126   2.902   6.598 -0.2225  0.2235  0.1440
14009TIP3    H263519   1.270   2.946   6.581 -0.2296 -0.1411 -0.9753
14010TIP3   OH263520   5.272   6.141  11.164  0.0080  0.3238  0.7081
14010TIP3    H163521   5.210   6.134  11.091  0.1206  2.2620  0.3793
14010TIP3    H263522   5.234   6.087  11.233 -1.1718  0.1294 -0.0653
14011TIP3   OH263523   4.529   2.271   2.919 -0.0990  0.5661  0.3951
14011TIP3    H163524   4.601   2.280   2.981 -1.5087  0.7402  2.1059
14011TIP3    H263525   4.481   2.194   2.948  0.2062 -0.4774 -1.6501
14012TIP3   OH263526   6.638   3.899   4.189  0.0441 -0.6090 -0.3297
14012TIP3    H163527   6.638   3.870   4.098 -0.2529 -2.1008  0.1201
14012TIP3    H263528   6.569   3.965   4.193 -2.1121 -2.6919 -0.5841
14013TIP3   OH263529   6.176   5.944   4.148  0.1669  0.3321  0.0055
14013TIP3    H163530   6.248   6.003   4.169  1.0403 -0.3017 -1.0790
14013TIP3    H263531   6.104   6.002   4.122  0.6235  0.9470  0.1001
14014TIP3   OH263532   1.840   5.936  12.180 -0.4068  0.0691  0.5366
14014TIP3    H163533   1.821   5.855  12.133  2.5037  0.0052 -0.7214
14014TIP3    H263534   1.786   5.931  12.259 -2.3607 -1.7617 -0.8175
14015TIP3   OH263535   5.686   4.445   4.167  0.4904 -0.5908  0.5592
14015TIP3    H163536   5.619   4.429   4.100  1.4361  2.0123 -1.1596
14015TIP3    H263537   5.636   4.464   4.246 -0.6718 -2.5094  0.3725
14016TIP3   OH263538   3.602   1.817   0.492  0.6039 -0.6380 -0.5272
14016TIP3    H163539   3.568   1.813   0.403  1.3301 -1.2480 -0.7901
14016TIP3    H263540   3.690   1.855   0.483  0.4312 -0.1019  0.0015
14017TIP3   OH263541   6.437   4.389  16.501  0.1774  0.2751  0.4890
14017TIP3    H163542   6.423   4.457  16.436 -0.7979  1.4958  1.9040
14017TIP3    H263543   6.390   4.313  16.466 -1.0334  1.1553  0.1376
14018TIP3   OH263544   3.586   2.538  13.915  0.2041 -0.1066  0.2153
14018TIP3    H163545   3.583   2.470  13.983 -0.2523 -1.0509 -0.7054
14018TIP3    H263546   3.511   2.594  13.934 -0.7998 -1.2184 -0.3216
14019TIP3   OH263547   5.046   2.663  15.562 -0.0464  0.6025 -0.4641
14019TIP3    H163548   5.119   2.601  15.571 -2.0221 -1.7757  0.0719
14019TIP3    H263549   5.071   2.738  15.617  1.8628 -0.2355 -0.1160
14020TIP3   OH263550   1.092   5.050   0.255 -0.4003 -0.0747  0.3388
14020TIP3    H163551   1.165   5.062   0.316 -1.1926 -1.4730  1.6389
14020TIP3    H263552   1.133   5.024   0.173  0.5748 -1.0625  1.1072
14021TIP3   OH263553   3.297   3.076   0.659  0.2377  0.0670 -0.2025
14021TIP3    H163554   3.207   3.080   0.628  0.4579 -0.1675 -0.8867
14021TIP3    H263555   3.304   2.991   0.702  0.5003 -0.5238 -1.3613
14022TIP3   OH263556   1.648   3.661   1.213  1.0632 -0.2342 -0.0487
14022TIP3    H163557   1.695   3.585   1.245  1.1621  0.0150  0.3965
14022TIP3    H263558   1.555   3.636   1.217  0.8616  0.6914  2.8874
14023TIP3   OH263559   2.010   5.662  12.685  0.2922 -0.1731  0.3089
14023TIP3    H163560   2.042   5.573  12.696 -0.0652 -0.3986 -0.4286
14023TIP3    H263561   2.074   5.717  12.731  2.0913 -0.5519 -1.6102
14024TIP3   OH263562   1.467   3.328   6.667  1.0801  0.0516 -0.2514
14024TIP3    H163563   1.537   3.352   6.727 -0.3285  0.4219  1.3184
14024TIP3    H263564   1.403   3.400   6.675 -0.3999 -1.2317 -0.0701
14025TIP3   OH263565   5.765   6.774  11.879 -0.3852 -0.6302  0.1975
14025TIP3    H163566   5.747   6.867  11.865 -0.1584 -0.5804  0.2251
14025TIP3    H263567   5.831   6.752  11.813  1.1091 -0.2564  1.5136
14026TIP3   OH263568   3.856   2.962  12.155 -0.4397 -0.4957  0.3983
14026TIP3    H163569   3.817   2.883  12.195  1.6147 -1.5600  0.4717
14026TIP3    H263570   3.846   3.029  12.222 -1.6843 -0.8385  0.5894
14027TIP3   OH263571   0.826   1.424   5.509 -0.1349 -0.0370 -0.2745
14027TIP3    H163572   0.861   1.493   5.453  0.0490 -0.1193 -0.2617
14027TIP3    H263573   0.875   1.433   5.592 -2.5199  2.0836  1.0144
14028TIP3   OH263574   4.993   4.040   4.329  0.1292  0.1288  0.0191
14028TIP3    H163575   4.921   4.038   4.391 -0.2899  1.4641 -0.3937
14028TIP3    H263576   4.966   3.982   4.258 -0.5520  0.6445 -0.1443
14029TIP3   OH263577   1.660   2.979   5.482 -0.5738  0.1038 -0.5024
14029TIP3    H163578   1.576   3.009   5.447 -0.1302  0.0747 -1.6306
14029TIP3    H263579   1.653   2.883   5.481 -1.0185  0.1078  0.6747
14030TIP3   OH263580   4.917   5.692  12.801  0.2947 -0.1207  0.2643
14030TIP3    H163581   4.883   5.639  12.873  1.4653  0.3577  1.1940
14030TIP3    H263582   4.892   5.782  12.823  1.4204  0.1323  0.5298
14031TIP3   OH263583   6.345   2.901  16.751 -0.2748 -0.2668  0.1300
14031TIP3    H163584   6.252   2.878  16.741 -0.0823 -1.4697  0.9476
14031TIP3    H263585   6.357   2.974  16.691 -1.0933 -1.8552 -2.1276
14032TIP3   OH263586   0.582   5.407   4.540  0.2031  0.2941  0.4943
14032TIP3    H163587   0.635   5.438   4.467 -0.1594 -0.4323 -0.0945
14032TIP3    H263588   0.493   5.429   4.516  0.3257  3.8790  2.6523
14033TIP3   OH263589   6.247   6.305  17.241  0.0849 -0.0373  0.0753
14033TIP3    H163590   6.268   6.324  17.332  0.2587 -0.0583  0.0390
14033TIP3    H263591   6.160   6.265  17.244 -0.1638  0.5159  0.1752
14034TIP3   OH263592   2.881   2.628  13.371 -0.3818  0.2273 -0.8080
14034TIP3    H163593   2.802   2.666  13.409 -0.5075 -0.5013 -0.3236
14034TIP3    H263594   2.863   2.534  13.367  1.3475 -0.3164  1.6104
14035TIP3   OH263595   0.335   3.161  13.610  0.0413 -0.3409 -0.4463
14035TIP3    H163596   0.362   3.225  13.545  3.2172 -0.1192  0.8980
14035TIP3    H263597   0.366   3.077  13.576  3.0626 -0.0480  1.2541
14036TIP3   OH263598   1.804   6.786   4.952 -0.4701  0.6181 -0.4831
14036TIP3    H163599   1.826   6.879   4.950 -2.2939  1.0943 -0.3135
14036TIP3    H263600   1.709   6.784   4.965 -0.7372 -1.2353 -2.2200
14037TIP3   OH263601   4.423   2.707  12.739 -0.0398 -0.0782 -0.5871
14037TIP3    H163602   4.498   2.761  12.766 -0.1007  0.1697 -0.9069
14037TIP3    H263603   4.347   2.765  12.749 -0.4359 -0.8526  1.4076
14038TIP3   OH263604   2.722   1.920  15.096  0.4119  0.0785 -0.3370
14038TIP3    H163605   2.751   1.979  15.166  1.3114 -0.5195 -0.1887
14038TIP3    H263606   2.802   1.876  15.067  0.2030  0.9593 -2.3741
14039TIP3   OH263607   1.716   6.617  14.869  0.2105  0.4836 -0.2448
14039TIP3    H163608   1.719   6.694  14.813 -1.4611  0.2764 -0.6799
14039TIP3    H263609   1.700   6.651  14.957 -1.0200  0.6615 -0.5071
14040TIP3   OH263610   2.081   1.193   6.003  0.4092 -0.2752  0.7005
14040TIP3    H163611   2.142   1.229   6.068  2.8192 -0.2489 -1.4505
14040TIP3    H263612   2.119   1.108   5.979 -0.4622 -0.3221 -0.5981
14041TIP3   OH263613   2.689   3.228  16.425 -0.0511  0.9546 -0.0465
14041TIP3    H163614   2.683   3.319  16.454 -3.5357  1.3464 -1.6077
14041TIP3    H263615   2.615   3.184  16.467  0.7779 -0.8670 -0.3905
14042TIP3   OH263616   2.079   4.333   4.552 -0.2011  0.1823 -0.1370
14042TIP3    H163617   2.070   4.318   4.646  0.7788 -0.6275 -0.1502
14042TIP3    H263618   2.017   4.402   4.533 -1.1271 -0.3182  0.9278
14043TIP3   OH263619   2.352   5.367  12.110 -0.5494  0.0387  0.3533
14043TIP3    H163620   2.269   5.412  12.127 -0.4743  0.3115 -0.0082
14043TIP3    H263621   2.368   5.380  12.017 -1.6973 -2.6502 -0.3099
14044TIP3   OH263622   1.895   4.905  11.297 -0.0682  0.5391  0.4805
14044TIP3    H163623   1.894   4.893  11.202  2.0337  0.0183  0.4881
14044TIP3    H263624   1.823   4.966  11.314  0.7482  2.2126 -1.6620
14045TIP3   OH263625   1.886   1.836   2.045  0.0987  0.1087  0.4945
14045TIP3    H163626   1.846   1.913   2.084  0.4611  0.0010  1.0846
14045TIP3    H263627   1.885   1.854   1.951 -1.8927 -0.1628  0.4354
14046TIP3   OH263628   4.235   3.348  14.393 -0.0596  0.5526 -0.1913
14046TIP3    H163629   4.152   3.321  14.433 -0.8468  1.2420 -1.2979
14046TIP3    H263630   4.222   3.440  14.370  1.3178  0.9060  0.3406
14047TIP3   OH263631   1.702   1.418  11.253  0.1226 -0.6897  0.1677
14047TIP3    H163632   1.664   1.335  11.279  0.0383 -0.7931 -0.2851
14047TIP3    H263633   1.664   1.437  11.168 -1.9160  1.1183  1.3751
14048TIP3   OH263634   4.681   2.257   1.761  0.7635  0.0242  0.5819
14048TIP3    H163635   4.631   2.214   1.692 -1.5918  0.4627  1.9111
14048TIP3    H263636   4.667   2.203   1.839 -0.9065  2.1597  1.8934
14049TIP3   OH263637   4.171   0.378   0.717  0.1034 -0.6006 -0.5678
14049TIP3    H163638   4.103   0.330   0.669 -0.5417  1.2817 -1.6391
14049TIP3    H263639   4.123   0.439   0.773  0.9006 -1.3356  0.9877
14050TIP3   OH263640   6.748   3.701   1.317  0.3731 -0.3088  0.5297
14050TIP3    H163641   6.718   3.788   1.343  0.8419 -0.1082  0.4090
14050TIP3    H263642   6.817   3.679   1.379  0.5621 -0.4043  0.2889
14051TIP3   OH263643   5.656   2.342  14.678  0.8636  0.2075 -0.7035
14051TIP3    H163644   5.612   2.366  14.760  1.5300  1.6342 -0.7324
14051TIP3    H263645   5.586   2.308  14.622  0.3236 -0.3498  0.2809
14052TIP3   OH263646   3.519   4.167   2.751 -0.3560  0.1507  0.2399
14052TIP3    H163647   3.495   4.220   2.675  0.7601 -0.8085 -0.8140
14052TIP3    H263648   3.470   4.086   2.740  1.2928 -0.7923 -0.5672
14053TIP3   OH263649   5.080   0.560  15.267 -0.1535 -0.0268  0.8325
14053TIP3    H163650   5.143   0.500  15.306  0.9929  0.4738 -0.1965
14053TIP3    H263651   5.013   0.573  15.335  0.9617 -0.3894  2.0234
14054TIP3   OH263652   1.070   5.323  12.043 -0.0348 -0.3602  0.3518
14054TIP3    H163653   1.102   5.326  11.953 -3.0825 -0.6693 -0.8771
14054TIP3    H263654   1.105   5.241  12.078  1.6213  0.0145 -0.3258
14055TIP3   OH263655   3.884   1.397  11.811  0.3532  0.3906  0.3287
14055TIP3    H163656   3.898   1.302  11.807 -0.1314  0.3595 -1.9769
14055TIP3    H263657   3.959   1.434  11.765  0.7500  1.1891  1.5658
14056TIP3   OH263658   6.531   0.981   4.007 -0.7964  0.0113  0.5662
14056TIP3    H163659   6.523   0.920   4.080 -1.2030 -0.5897  0.0268
14056TIP3    H263660   6.512   1.067   4.045 -3.6528 -0.5724  0.6832
14057TIP3   OH263661   6.702   3.126  13.889  0.0865 -0.0239  0.3270
14057TIP3    H163662   6.674   3.072  13.963 -0.9741 -0.4113 -0.3320
14057TIP3    H263663   6.639   3.198  13.888 -0.4269 -0.4761 -0.7040
14058TIP3   OH263664   3.964   1.984  16.513 -0.2184 -0.2841  0.0600
14058TIP3    H163665   4.059   1.977  16.512 -0.2624 -1.0278  0.6003
14058TIP3    H263666   3.933   1.896  16.530 -0.9976  0.0427  0.4066
14059TIP3   OH263667   2.545   1.336   6.151  0.2988  0.0900 -0.6254
14059TIP3    H163668   2.550   1.328   6.056  1.8355  1.4753 -0.6939
14059TIP3    H263669   2.636   1.336   6.180 -0.1192  0.5343  0.7742
14060TIP3   OH263670   0.828   2.587   1.422 -0.0232 -0.5460 -0.4481
14060TIP3    H163671   0.813   2.634   1.340  2.4959 -2.2161 -1.9967
14060TIP3    H263672   0.757   2.524   1.427  0.1423 -0.8377 -1.6821
14061TIP3   OH263673   3.020   0.504  14.694 -0.2532 -0.2156 -0.2630
14061TIP3    H163674   3.101   0.466  14.660  1.5076  1.1075  2.1456
14061TIP3    H263675   3.008   0.584  14.643 -1.5658 -1.6335 -2.3539
14062TIP3   OH263676   6.206   3.400   1.078  0.1763  0.0069  0.0787
14062TIP3    H163677   6.161   3.317   1.096  1.0913  0.0361  3.0255
14062TIP3    H263678   6.153   3.466   1.121  0.1319  0.8465 -1.1899
14063TIP3   OH263679   0.949   5.937   1.018  0.6353 -0.3936  0.1402
14063TIP3    H163680   0.933   5.848   1.049 -0.2875 -0.3188 -0.0828
14063TIP3    H263681   0.894   5.992   1.074  0.8865 -0.0015  0.0056
14064TIP3   OH263682   3.559   5.284   1.723  0.3392  0.0586 -0.1267
14064TIP3    H163683   3.569   5.290   1.818 -0.2207 -2.0218  0.1172
14064TIP3    H263684   3.644   5.254   1.692  0.1153 -0.6503 -0.0865
14065TIP3   OH263685   4.132   4.386  14.187  0.2058 -0.0676  0.2617
14065TIP3    H163686   4.121   4.409  14.279 -0.3768  1.1952 -0.1044
14065TIP3    H263687   4.043   4.372  14.155  0.4896 -2.6771  0.3775
14066TIP3   OH263688   1.154   6.078  14.428 -0.7345 -0.0579  0.2227
14066TIP3    H163689   1.199   5.998  14.401  1.0956  0.4426  1.5482
14066TIP3    H263690   1.155   6.075  14.524 -2.1956  0.7433  0.2956
14067TIP3   OH263691   6.505   4.853   1.476 -0.3157 -0.2371 -0.5478
14067TIP3    H163692   6.487   4.783   1.413  0.6490 -0.5620 -0.4826
14067TIP3    H263693   6.591   4.830   1.513  0.1295  1.0983 -0.7025
14068TIP3   OH263694   1.852   5.265   0.996 -0.8241  0.1095  0.1657
14068TIP3    H163695   1.798   5.341   1.019  0.0629  0.5650  0.8345
14068TIP3    H263696   1.861   5.216   1.078 -1.9478 -1.1137 -0.4047
14069TIP3   OH263697   3.095   2.485  12.412  0.3815 -0.5092 -0.2958
14069TIP3    H163698   3.111   2.559  12.470 -0.0474 -0.4205 -0.2851
14069TIP3    H263699   3.182   2.454  12.387  0.5656  0.0001 -0.3013
14070TIP3   OH263700   1.975   2.609   1.819 -0.3214 -0.3391  0.3231
14070TIP3    H163701   2.062   2.640   1.846 -0.2300  0.2418 -0.5844
14070TIP3    H263702   1.939   2.682   1.768 -1.7573 -0.1843  1.5315
14071TIP3   OH263703   4.439   4.735   4.870  0.6295  0.0653 -0.2777
14071TIP3    H163704   4.392   4.817   4.852  3.0770  1.5195 -0.5487
14071TIP3    H263705   4.374   4.667   4.855 -1.5511  1.9344  0.0358
14072TIP3   OH263706   0.567   5.152   4.821  0.1161 -0.1051 -0.7679
14072TIP3    H163707   0.486   5.186   4.859  0.8818  0.6078  0.3054
14072TIP3    H263708   0.602   5.094   4.889  0.9363  0.2888 -0.8469
14073TIP3   OH263709   1.189   4.332  13.951  0.4089  0.0650 -0.3014
14073TIP3    H163710   1.142   4.261  13.994  1.3115 -0.8996 -0.8538
14073TIP3    H263711   1.177   4.407  14.009 -1.0195 -0.3742  0.0221
14074TIP3   OH263712   3.374   4.801   2.940 -0.3082  0.5651 -0.5140
14074TIP3    H163713   3.434   4.734   2.972 -1.8312 -0.8192 -0.4186
14074TIP3    H263714   3.426   4.882   2.940  1.0725 -0.2637  1.0294
14075TIP3   OH263715   2.421   3.579  16.053 -0.2221 -0.5101 -0.1733
14075TIP3    H163716   2.368   3.655  16.077  0.8821  0.8358 -1.7866
14075TIP3    H263717   2.457   3.548  16.136 -0.3606  1.0027  0.4818
14076TIP3   OH263718   0.038   5.004  15.167  0.3695  0.0273  0.3337
14076TIP3    H163719   0.037   5.089  15.210 -0.7609  0.6931 -0.9199
14076TIP3    H263720   0.114   5.006  15.109 -1.7430  1.8435 -2.6650
14077TIP3   OH263721   4.297   2.404   0.158  0.1481 -0.3813  0.0871
14077TIP3    H163722   4.370   2.456   0.192 -1.1692  1.4001  0.3519
14077TIP3    H263723   4.239   2.392   0.234  0.0748 -1.6625 -0.1456
14078TIP3   OH263724   5.175   4.107  12.639  0.2528  0.4593 -0.0936
14078TIP3    H163725   5.131   4.045  12.697  0.0386 -0.6403 -1.3929
14078TIP3    H263726   5.152   4.194  12.674 -0.0971 -0.1543  1.2712
14079TIP3   OH263727   2.051   0.352  11.363 -0.0141 -0.2557 -0.1390
14079TIP3    H163728   2.013   0.271  11.395  0.6865 -0.4476  0.2297
14079TIP3    H263729   2.123   0.371  11.423 -1.4044  1.7417  1.0423
14080TIP3   OH263730   0.600   2.774   0.812  0.1723 -0.1294 -0.0978
14080TIP3    H163731   0.671   2.756   0.750  1.2903  0.4578  0.9651
14080TIP3    H263732   0.640   2.828   0.880 -1.1526 -0.2911  0.8616
14081TIP3   OH263733   6.547   5.327  13.306  0.4671  0.0674 -0.0056
14081TIP3    H163734   6.568   5.278  13.386 -1.1196 -0.1419  0.3092
14081TIP3    H263735   6.574   5.268  13.235 -1.6815 -1.4875  0.3628
14082TIP3   OH263736   1.969   2.384  12.255 -0.0993 -0.6589  0.1918
14082TIP3    H163737   1.920   2.416  12.330  0.0046 -0.3761  0.1390
14082TIP3    H263738   2.030   2.455  12.234 -1.1750 -0.1048 -1.1287
14083TIP3   OH263739   6.624   1.425   5.844 -0.2008 -0.0453 -0.0527
14083TIP3    H163740   6.687   1.436   5.915  1.2219 -0.3220 -1.2426
14083TIP3    H263741   6.589   1.513   5.829 -1.1118 -0.1060  1.4784
14084TIP3   OH263742   3.824   3.962  15.621 -0.0111  0.5753 -0.7070
14084TIP3    H163743   3.903   3.964  15.567 -0.6699 -0.1544 -1.7163
14084TIP3    H263744   3.753   3.986  15.561 -1.0695 -2.3002 -0.7581
14085TIP3   OH263745   6.135   6.771   0.969  0.2458  0.0472 -0.3103
14085TIP3    H163746   6.089   6.688   0.982 -2.4824  1.1118 -2.3752
14085TIP3    H263747   6.163   6.768   0.878 -0.6286  1.7144 -0.6540
14086TIP3   OH263748   3.689   0.169   3.031 -0.4956 -0.1294  0.2549
14086TIP3    H163749   3.617   0.197   3.088  0.5977  0.2474  1.5197
14086TIP3    H263750   3.724   0.092   3.074 -0.0464 -0.2219 -0.2691
14087TIP3   OH263751   4.359   2.568   5.857  0.3576 -0.8172 -0.2464
14087TIP3    H163752   4.330   2.585   5.767 -0.0781 -0.2225  0.0038
14087TIP3    H263753   4.283   2.528   5.900  0.0314  0.3331  0.2831
14088TIP3   OH263754   6.363   0.171  13.913  0.3241  0.6513 -0.4567
14088TIP3    H163755   6.415   0.241  13.952 -2.9181  1.0917  3.7567
14088TIP3    H263756   6.274   0.206  13.908 -0.8345 -2.0950 -1.3158
14089TIP3   OH263757   3.227   3.014  13.467 -0.2777 -0.4090  0.6069
14089TIP3    H163758   3.149   2.961  13.483 -1.4813  0.4904 -1.8059
14089TIP3    H263759   3.253   2.993  13.378  1.1084  0.7270  0.7011
14090TIP3   OH263760   0.068   5.677  17.056  0.1137  0.3867 -0.6269
14090TIP3    H163761   0.025   5.757  17.085  0.2694  0.6195 -1.0318
14090TIP3    H263762   0.067   5.619  17.133 -1.0368  0.3307 -0.6785
14091TIP3   OH263763   0.653   3.341  15.498 -0.3932  0.0064 -0.0194
14091TIP3    H163764   0.742   3.361  15.528 -1.1147  0.6727  1.7879
14091TIP3    H263765   0.655   3.247  15.480  0.5013 -0.1323  0.7112
14092TIP3   OH263766   4.249   3.936   3.921 -0.1613  0.2211 -0.5713
14092TIP3    H163767   4.194   4.010   3.947 -3.3939 -1.8848 -0.8732
14092TIP3    H263768   4.285   3.903   4.004 -2.3559 -0.5183  0.1387
14093TIP3   OH263769   6.742   5.698  15.441 -0.1336 -0.2265 -0.3582
14093TIP3    H163770   6.657   5.654  15.453 -0.3416  0.6127  1.8366
14093TIP3    H263771   6.792   5.674  15.519  0.7402  1.2289 -0.4361
14094TIP3   OH263772   1.309   0.478   2.973 -0.1731 -0.1649 -0.1673
14094TIP3    H163773   1.353   0.515   3.050  1.2068  1.0977 -1.4947
14094TIP3    H263774   1.325   0.384   2.980  2.3025  0.1755 -0.2527
14095TIP3   OH263775   5.943   3.743  11.820  0.3711  0.3150 -0.1398
14095TIP3    H163776   5.986   3.722  11.904 -0.9119  2.2002  1.0689
14095TIP3    H263777   5.884   3.669  11.804  0.0903  0.2702  1.0215
14096TIP3   OH263778   6.319   0.698   5.194  0.6637 -0.0166  0.9658
14096TIP3    H163779   6.285   0.610   5.177  0.8236 -0.0776  0.9645
14096TIP3    H263780   6.241   0.751   5.212  0.5413 -0.0800  0.6151
14097TIP3   OH263781   5.762   0.305  13.564  0.0424 -0.7825 -0.3235
14097TIP3    H163782   5.795   0.395  13.562 -1.4644 -0.2162 -0.4344
14097TIP3    H263783   5.685   0.305  13.507 -1.1704 -1.6475  1.2260
14098TIP3   OH263784   3.657   5.053   2.658  0.0896  0.3291  0.3215
14098TIP3    H163785   3.650   5.126   2.596  1.1336  1.1550  1.1258
14098TIP3    H263786   3.567   5.025   2.673 -0.1949  0.0703 -1.5774
14099TIP3   OH263787   6.031   4.336  11.731  0.4400 -0.1468  0.4176
14099TIP3    H163788   6.084   4.256  11.734  0.2855 -0.2906 -0.4237
14099TIP3    H263789   5.959   4.314  11.672  0.3750  0.6107  0.2180
14100TIP3   OH263790   4.790   5.574   2.005 -0.3531  0.0762 -0.3369
14100TIP3    H163791   4.868   5.540   1.962 -1.1758  0.1766 -1.9984
14100TIP3    H263792   4.726   5.502   1.998  0.5603 -1.5718  4.3489
14101TIP3   OH263793   4.217   3.953   1.373 -0.5085  0.1470  0.2969
14101TIP3    H163794   4.153   4.022   1.356 -0.4269  0.0456 -0.4575
14101TIP3    H263795   4.228   3.909   1.288  0.6283  0.2244  0.3974
14102TIP3   OH263796   4.532   3.984   2.839  0.1718 -0.3185 -0.6535
14102TIP3    H163797   4.489   4.012   2.759  2.0306  2.0224 -0.9454
14102TIP3    H263798   4.624   3.974   2.814  0.3502 -2.4256  0.5673
14103TIP3   OH263799   5.950   5.448  15.649 -0.3641  0.3234  0.9579
14103TIP3    H163800   5.939   5.355  15.629 -1.1626  0.4179  0.9498
14103TIP3    H263801   5.887   5.466  15.718 -0.2706  0.8794  0.9055
14104TIP3   OH263802   0.133   0.071   0.146 -0.3915 -0.0280  0.2611
14104TIP3    H163803   0.102  -0.009   0.190  0.2878 -0.5180 -0.1206
14104TIP3    H263804   0.121   0.053   0.053  1.7918 -0.6209  0.0221
14105TIP3   OH263805   4.439   1.951  10.895  0.0550  0.3939  0.0357
14105TIP3    H163806   4.521   1.988  10.927  0.1074 -1.2834  2.0464
14105TIP3    H263807   4.464   1.867  10.858 -0.7745 -0.3520  1.1050
14106TIP3   OH263808   6.318   1.537   4.331 -0.0828  0.2498 -0.2866
14106TIP3    H163809   6.385   1.556   4.266 -0.1307  1.5147  0.0096
14106TIP3    H263810   6.235   1.546   4.283 -0.0887  0.1079 -0.3045
14107TIP3   OH263811   2.849   2.271   1.708 -0.2185 -0.3750  0.8092
14107TIP3    H163812   2.813   2.188   1.738 -2.2363 -0.0040 -0.3704
14107TIP3    H263813   2.789   2.299   1.638  2.3820  0.3657 -1.2981
14108TIP3   OH263814   0.358   6.468   0.982  0.0840  1.1272  0.9121
14108TIP3    H163815   0.279   6.521   0.991 -0.9346 -0.0279 -0.6711
14108TIP3    H263816   0.365   6.451   0.888  2.6036  1.7067  0.9144
14109TIP3   OH263817   4.515   1.203   0.429  0.7728  0.6641  0.3754
14109TIP3    H163818   4.506   1.253   0.348 -1.7042  0.4662  0.4674
14109TIP3    H263819   4.461   1.126   0.416 -0.6278  1.1725  2.5930
14110TIP3   OH263820   5.930   3.247  15.821  0.2187 -0.1821  0.0571
14110TIP3    H163821   5.957   3.308  15.753 -0.3335  0.1080  0.0947
14110TIP3    H263822   6.010   3.227  15.869  0.9785 -1.7575 -1.7448
14111TIP3   OH263823   1.109   5.707   5.356  0.1089 -0.2198 -0.0052
14111TIP3    H163824   1.021   5.741   5.371 -0.2825  1.0337 -3.9858
14111TIP3    H263825   1.099   5.612   5.360 -0.9198 -0.0906  1.5491
14112TIP3   OH263826   2.101   0.589  14.226  0.8069 -0.2190 -0.1621
14112TIP3    H163827   2.123   0.633  14.144 -0.9036  1.5737  0.2812
14112TIP3    H263828   2.179   0.599  14.280  0.5805  2.1476 -0.1720
14113TIP3   OH263829   1.268   3.995  13.629 -0.9307 -0.3656  0.8931
14113TIP3    H163830   1.302   3.999  13.719 -0.9959 -0.3162  0.9151
14113TIP3    H263831   1.198   3.929  13.634 -1.8671  0.6115  1.1818
14114TIP3   OH263832   6.589   1.616   5.055  0.2795 -0.2649  0.0236
14114TIP3    H163833   6.576   1.659   5.140 -1.3175  1.0419 -0.8250
14114TIP3    H263834   6.528   1.660   4.996 -0.1266 -2.4958 -1.3553
14115TIP3   OH263835   3.121   2.505  16.630  0.3572  0.1546 -0.2975
14115TIP3    H163836   3.045   2.514  16.687  0.8189 -1.2604  0.5960
14115TIP3    H263837   3.193   2.545  16.679  0.4152  0.4649 -0.6362
14116TIP3   OH263838   2.346   1.453   2.020 -0.0256 -0.3303  0.1387
14116TIP3    H163839   2.309   1.540   2.038  1.7154 -0.0544  2.8556
14116TIP3    H263840   2.419   1.470   1.961  0.3255  0.0694  0.6793
14117TIP3   OH263841   5.725   5.078   5.850 -0.0204  0.1198 -0.6018
14117TIP3    H163842   5.722   5.036   5.936 -0.9643  0.2561 -0.5518
14117TIP3    H263843   5.764   5.013   5.792  2.4501  0.6988  0.2769
14118TIP3   OH263844   5.961   0.311   0.480  0.3941  0.1382 -0.5298
14118TIP3    H163845   5.913   0.382   0.521  0.4566  0.9054 -1.7317
14118TIP3    H263846   5.894   0.260   0.434  0.6239  0.8864 -1.7412
14119TIP3   OH263847   6.469   4.935   0.991 -0.2237 -0.3989 -0.0352
14119TIP3    H163848   6.544   4.878   0.976 -0.0473 -0.4064  0.8335
14119TIP3    H263849   6.425   4.898   1.068  0.1193  0.8551  0.7930
14120TIP3   OH263850   2.244   0.067   5.185  1.1036  0.0908  0.3908
14120TIP3    H163851   2.269  -0.024   5.203  1.7400  0.4165  1.1921
14120TIP3    H263852   2.159   0.078   5.229 -0.3026 -0.8658 -1.9085
14121TIP3   OH263853   1.888   1.157  17.233 -0.2790 -0.2203 -1.1732
14121TIP3    H163854   1.888   1.251  17.213 -0.7716  0.1335  0.3708
14121TIP3    H263855   1.826   1.120  17.171 -0.1862  0.4870 -1.7072
14122TIP3   OH263856   1.084   5.994   0.783  0.0692 -0.3104 -0.1208
14122TIP3    H163857   1.059   5.933   0.713  1.9630  0.0195 -1.1514
14122TIP3    H263858   1.032   5.966   0.858 -1.4777 -1.1629 -1.4342
14123TIP3   OH263859   0.356   3.164   4.440 -0.2191 -0.1318 -0.3361
14123TIP3    H163860   0.410   3.238   4.469 -1.1529  1.7216 -2.9377
14123TIP3    H263861   0.397   3.088   4.481  0.6267  1.7835  2.7294
14124TIP3   OH263862   0.483   0.272  11.490  0.2762 -0.5044 -0.4742
14124TIP3    H163863   0.500   0.179  11.504  1.6351 -0.2335 -0.1794
14124TIP3    H263864   0.424   0.298  11.560 -0.8453 -1.3279 -1.0821
14125TIP3   OH263865   4.273   6.346  14.453  0.6582 -0.1074  0.0451
14125TIP3    H163866   4.221   6.270  14.480 -1.9147  1.8229  0.8654
14125TIP3    H263867   4.318   6.374  14.532 -0.2359  0.5794  0.3177
14126TIP3   OH263868   3.106   3.733  16.821  0.0086 -0.3127 -0.2453
14126TIP3    H163869   3.112   3.714  16.727 -1.1270  2.2613 -0.9072
14126TIP3    H263870   3.013   3.748  16.837  0.4427  1.5030  0.8040
14127TIP3   OH263871   0.806   6.328  13.823  0.0414 -0.1782 -0.3007
14127TIP3    H163872   0.777   6.308  13.912 -0.3194  1.1389 -0.0939
14127TIP3    H263873   0.799   6.423  13.817  0.8609 -0.1718 -1.4675
14128TIP3   OH263874   0.073   2.712  13.867 -0.2533  0.1047 -0.6850
14128TIP3    H163875   0.156   2.698  13.913  0.4088 -0.6656 -2.0857
14128TIP3    H263876   0.090   2.787  13.809 -0.1973 -0.7012 -1.7327
14129TIP3   OH263877   6.170   1.686   3.934 -0.1019  0.1250  0.0285
14129TIP3    H163878   6.088   1.725   3.904 -0.0736  1.3184  1.3832
14129TIP3    H263879   6.235   1.717   3.871 -0.5787 -0.3731 -0.7312
14130TIP3   OH263880   2.363   5.033   6.003 -0.3933 -0.2082  0.0163
14130TIP3    H163881   2.279   5.050   5.959  0.0690  0.1847 -0.7300
14130TIP3    H263882   2.349   4.950   6.048 -0.6218 -1.1059 -1.6057
14131TIP3   OH263883   2.077   2.860   6.388  0.4758  0.4343 -0.2115
14131TIP3    H163884   2.117   2.878   6.473  0.6130 -0.9114  0.0270
14131TIP3    H263885   1.985   2.843   6.407  0.5099  0.1130 -0.3204
14132TIP3   OH263886   2.618   2.337   1.539  0.3810  0.0854 -0.2449
14132TIP3    H163887   2.689   2.308   1.481 -0.0680 -0.2871 -0.6145
14132TIP3    H263888   2.565   2.259   1.554  1.0099 -0.0518  1.4527
14133TIP3   OH263889   5.123   2.613  16.729  0.6245 -0.5124 -0.1659
14133TIP3    H163890   5.041   2.568  16.751  0.7328 -0.3946  0.5084
14133TIP3    H263891   5.127   2.687  16.790  0.3692  0.5225 -1.3695
14134TIP3   OH263892   2.670   0.596   5.509 -0.6077 -0.3775  0.0365
14134TIP3    H163893   2.645   0.686   5.530 -0.9232 -0.1778 -1.0860
14134TIP3    H263894   2.720   0.604   5.428 -0.4285 -1.1918  0.0587
14135TIP3   OH263895   3.173   6.544  15.021  0.3132  0.0909 -0.1415
14135TIP3    H163896   3.138   6.633  15.026 -1.4814 -0.4402 -1.8598
14135TIP3    H263897   3.224   6.542  14.941 -0.7152 -0.7209 -0.8089
14136TIP3   OH263898   3.837   2.292   3.720 -0.5863 -0.1239  0.1327
14136TIP3    H163899   3.914   2.240   3.744  1.0696  1.7348 -0.8263
14136TIP3    H263900   3.844   2.371   3.774 -2.8421 -0.6501  1.3084
14137TIP3   OH263901   3.501   6.618   3.610 -0.1310  0.4807  0.1003
14137TIP3    H163902   3.549   6.537   3.624 -2.7045 -0.9172  1.6717
14137TIP3    H263903   3.462   6.638   3.695 -2.8880  1.0352 -1.1807
14138TIP3   OH263904   0.523   3.120  15.315  0.4629  0.2613  0.1407
14138TIP3    H163905   0.609   3.139  15.277  1.4938 -1.3436  1.5581
14138TIP3    H263906   0.505   3.030  15.290  0.9543 -0.6855  2.9135
14139TIP3   OH263907   5.697   0.776   3.324  0.4735 -0.7836 -0.2881
14139TIP3    H163908   5.703   0.809   3.413  1.3022  0.2872 -0.7121
14139TIP3    H263909   5.607   0.795   3.298  0.3388 -0.7523  0.1895
14140TIP3   OH263910   2.772   4.905   3.591 -0.2551  0.0105  0.3623
14140TIP3    H163911   2.824   4.837   3.549  0.6866 -0.1437  1.7035
14140TIP3    H263912   2.771   4.977   3.529  0.1206 -0.6230 -0.3853
14141TIP3   OH263913   4.314   5.933  12.584  0.3174  0.2505 -0.1480
14141TIP3    H163914   4.307   5.943  12.489 -0.9262 -2.0803 -0.3744
14141TIP3    H263915   4.224   5.922  12.613  0.5878  1.9360  1.4905
14142TIP3   OH263916   5.043   2.069   0.232  0.2319 -0.3830 -0.1159
14142TIP3    H163917   5.041   2.000   0.166 -0.8722 -0.6031  0.1378
14142TIP3    H263918   5.079   2.027   0.310 -1.0438 -0.8482  0.2296
14143TIP3   OH263919   4.764   5.018   4.814 -0.1099 -0.5701  0.3032
14143TIP3    H163920   4.712   4.963   4.755  1.9753 -2.2603 -0.1317
14143TIP3    H263921   4.828   5.060   4.756 -2.0243  2.9737  0.5424
14144TIP3   OH263922   5.641   1.365   4.222 -0.4067  0.0519 -0.7177
14144TIP3    H163923   5.581   1.418   4.274 -0.3275  1.9327 -2.4095
14144TIP3    H263924   5.680   1.304   4.284 -1.7689  0.8441  1.0030
14145TIP3   OH263925   4.414   2.035   1.754 -0.0762  0.0558  0.3682
14145TIP3    H163926   4.418   2.016   1.848 -0.1731 -0.7575  0.2157
14145TIP3    H263927   4.345   1.978   1.721  0.8870 -0.6833 -0.4355
14146TIP3   OH263928   2.622   2.361  16.650  0.1447 -0.0525  0.5984
14146TIP3    H163929   2.546   2.404  16.688 -0.0464  0.4297 -0.3043
14146TIP3    H263930   2.690   2.428  16.649  0.1989 -0.1119  0.2525
14147TIP3   OH263931   6.075   2.552   0.228 -0.3816  0.6184  0.0333
14147TIP3    H163932   6.163   2.549   0.190 -0.8867 -0.7874 -1.1071
14147TIP3    H263933   6.024   2.606   0.167 -0.6176  0.3754  0.0162
14148TIP3   OH263934   3.947   2.586  15.406  0.0689  0.0310  0.1298
14148TIP3    H163935   4.022   2.623  15.453 -0.8631  0.5652  1.2533
14148TIP3    H263936   3.896   2.662  15.377  0.5840 -0.2906 -1.7419
14149TIP3   OH263937   3.179   5.833   4.068  0.9109  0.3677 -0.0071
14149TIP3    H163938   3.108   5.772   4.048  0.9884 -0.0009  0.8114
14149TIP3    H263939   3.213   5.859   3.982  1.0937 -0.9976 -0.3812
14150TIP3   OH263940   6.095   3.703  14.028  0.1542  0.7938 -0.0310
14150TIP3    H163941   6.188   3.681  14.033 -0.0971 -0.6828 -1.2361
14150TIP3    H263942   6.073   3.694  13.936 -0.9692  2.1736  0.0708
14151TIP3   OH263943   5.363   1.571  15.908  0.2337  0.3097  0.0463
14151TIP3    H163944   5.426   1.613  15.966 -0.8852  1.0052  0.7879
14151TIP3    H263945   5.285   1.626  15.913 -0.3967 -0.4577 -0.9590
14152TIP3   OH263946   2.856   0.229   4.224  0.2217  0.4081 -0.1321
14152TIP3    H163947   2.823   0.318   4.237 -0.4835  0.1180  0.1363
14152TIP3    H263948   2.781   0.173   4.246  0.7807 -0.2583  0.0984
14153TIP3   OH263949   0.374   6.751   1.804  0.5583 -0.5593 -0.2584
14153TIP3    H163950   0.401   6.663   1.832  1.9891  0.1366  0.6319
14153TIP3    H263951   0.390   6.807   1.880 -1.6393  0.2807 -0.3201
14154TIP3   OH263952   0.897   3.054  10.874 -0.1142  0.1488  0.2618
14154TIP3    H163953   0.942   3.069  10.792  0.8510  0.9465  0.9211
14154TIP3    H263954   0.884   2.959  10.877 -1.9785  0.2530 -1.7136
14155TIP3   OH263955   2.575   3.870   2.379  0.7026 -0.4063 -1.2029
14155TIP3    H163956   2.665   3.837   2.371  0.7562 -0.7383  0.4046
14155TIP3    H263957   2.575   3.921   2.461 -0.1757  0.9839 -2.0304
14156TIP3   OH263958   0.261   5.490  16.638 -0.2214 -0.1266 -0.1877
14156TIP3    H163959   0.251   5.535  16.722  2.0628  1.0061 -0.4384
14156TIP3    H263960   0.307   5.409  16.660  0.0469 -0.0022 -0.2800
14157TIP3   OH263961   1.937   1.078   5.139  0.1406  0.0785  0.5142
14157TIP3    H163962   1.957   0.987   5.115 -0.2259  0.1034  0.1029
14157TIP3    H263963   2.007   1.102   5.200  1.3127  0.1186 -0.7958
14158TIP3   OH263964   2.417   3.384  11.176  0.1006  0.0021 -0.2798
14158TIP3    H163965   2.381   3.307  11.219  0.0977  0.6786  0.9599
14158TIP3    H263966   2.464   3.350  11.100 -0.0615 -1.1924  0.1486
14159TIP3   OH263967   4.710   1.253  17.161 -0.7288  0.5731 -0.3276
14159TIP3    H163968   4.632   1.296  17.128 -1.2336  0.2180  0.3775
14159TIP3    H263969   4.686   1.161  17.167  0.3189  0.1678 -1.7787
14160TIP3   OH263970   3.934   6.028   3.171  0.3368  0.1015  0.3476
14160TIP3    H163971   3.889   6.069   3.097 -0.6176 -0.6273  0.5097
14160TIP3    H263972   3.914   5.935   3.163  3.2013 -0.5635 -0.5435
14161TIP3   OH263973   5.912   3.968   1.246 -0.2136 -0.4536  0.5734
14161TIP3    H163974   5.972   3.908   1.291  0.7087  0.0416  0.0309
14161TIP3    H263975   5.912   4.047   1.301  1.3754  0.3807 -0.5160
14162TIP3   OH263976   1.606   6.361  16.492 -0.0617 -0.2569  0.0172
14162TIP3    H163977   1.629   6.363  16.585 -1.2532 -0.3051  0.3280
14162TIP3    H263978   1.609   6.453  16.465 -2.4927  0.1531  0.8565
14163TIP3   OH263979   5.212   2.140   2.075  0.0961  0.7866  0.0014
14163TIP3    H163980   5.248   2.218   2.033  1.6320  0.6081  0.9052
14163TIP3    H263981   5.268   2.069   2.044 -1.3101 -0.0021 -0.8442
14164TIP3   OH263982   3.416   3.119   4.820 -0.2459  0.1952  0.2605
14164TIP3    H163983   3.379   3.051   4.762 -1.1788  1.6292 -0.8936
14164TIP3    H263984   3.439   3.072   4.900 -1.1879 -1.4318 -0.3685
14165TIP3   OH263985   3.255   4.954   1.790 -0.1904 -0.2089 -0.4069
14165TIP3    H163986   3.247   4.866   1.829 -2.2530 -0.4666 -1.2612
14165TIP3    H263987   3.310   5.002   1.851 -1.3278 -1.2893  1.6012
14166TIP3   OH263988   4.038   5.510   5.134  0.2869 -0.1067 -0.5066
14166TIP3    H163989   4.110   5.561   5.170 -1.1105  1.7126 -0.1559
14166TIP3    H263990   3.989   5.480   5.211 -1.7548  2.3875 -0.6915
14167TIP3   OH263991   5.093   5.348  15.555  0.7202 -0.0172  0.1211
14167TIP3    H163992   5.088   5.283  15.485 -2.0142  0.1822  0.0329
14167TIP3    H263993   5.053   5.306  15.630 -2.0253  1.7497 -0.1938
14168TIP3   OH263994   2.767   5.789  13.550  0.2303  0.6537  0.6929
14168TIP3    H163995   2.792   5.696  13.556 -2.5727 -0.1014  2.3051
14168TIP3    H263996   2.776   5.821  13.640 -0.7930  1.3852  0.5419
14169TIP3   OH263997   6.077   3.611   0.689  0.2906  0.1324 -0.2152
14169TIP3    H163998   6.027   3.529   0.684  0.2118  0.1527  0.1419
14169TIP3    H263999   6.051   3.660   0.612 -0.6628  0.3663  0.2382
14170TIP3   OH264000   1.325   1.907   4.850 -0.0619  0.1673  0.3068
14170TIP3    H164001   1.312   1.897   4.944 -1.2022 -1.1251  0.0438
14170TIP3    H264002   1.244   1.875   4.811 -0.0580  1.7300 -1.0912
14171TIP3   OH264003   0.047   1.838   4.538  0.4732  0.5074  0.2280
14171TIP3    H164004   0.102   1.766   4.568 -0.6825 -0.0383  1.1401
14171TIP3    H264005   0.108   1.905   4.510  1.5841 -0.4754  0.2108
14172TIP3   OH264006   5.947   3.950   5.691  0.9664 -0.6719  0.2593
14172TIP3    H164007   5.884   4.013   5.656 -0.2529 -1.6560  0.6514
14172TIP3    H264008   6.004   4.003   5.747  1.2844  0.4461 -1.0431
14173TIP3   OH264009   3.368   3.260  14.964  0.2584 -0.3612  0.1174
14173TIP3    H164010   3.388   3.262  14.870  0.2136 -0.0003  0.1118
14173TIP3    H264011   3.406   3.179  14.995 -1.1471 -1.3156 -0.5350
14174TIP3   OH264012   5.313   1.962  12.550 -0.7184 -0.7159 -0.2778
14174TIP3    H164013   5.222   1.933  12.552 -0.4896 -1.4225  0.6215
14174TIP3    H264014   5.322   2.005  12.466 -1.7074 -1.2274 -0.6689
14175TIP3   OH264015   0.801   3.752  16.109  0.1686 -0.2668 -0.3338
14175TIP3    H164016   0.843   3.830  16.074  0.2358  0.0210  0.3597
14175TIP3    H264017   0.708   3.774  16.115  0.2590 -0.0296  0.3670
14176TIP3   OH264018   1.540   3.242  16.127  0.5356  0.3682 -0.0879
14176TIP3    H164019   1.533   3.178  16.198  0.2255  0.5227  0.0247
14176TIP3    H264020   1.628   3.230  16.092  1.3746  1.5196  1.4997
14177TIP3   OH264021   6.584   4.107  15.026 -0.2601  0.1411  0.1828
14177TIP3    H164022   6.501   4.154  15.029 -0.7304 -0.4414 -2.0629
14177TIP3    H264023   6.612   4.113  14.935 -0.4796 -4.0512 -0.3325
14178TIP3   OH264024   5.927   4.952   0.275  0.4845 -0.0442 -0.2179
14178TIP3    H164025   5.902   4.981   0.188  1.8834  0.5251 -0.4513
14178TIP3    H264026   5.888   4.865   0.284  1.4695 -0.7102 -1.9584
14179TIP3   OH264027   6.174   3.992  15.679  1.0022  0.0723  0.0968
14179TIP3    H164028   6.124   4.021  15.603  1.4192  0.0855 -0.1764
14179TIP3    H264029   6.264   3.983  15.646  0.9254 -1.3057  0.2337
14180TIP3   OH264030   3.938   4.127   3.692  0.3474  0.4126 -0.0186
14180TIP3    H164031   3.917   4.088   3.777 -0.3259 -0.6260 -0.6487
14180TIP3    H264032   3.892   4.211   3.692 -0.7534 -0.1820  0.1096
14181TIP3   OH264033   1.201   0.584   4.696 -0.1108 -0.7871 -0.0791
14181TIP3    H164034   1.288   0.554   4.671  0.3991 -0.3038  1.0843
14181TIP3    H264035   1.172   0.638   4.622  0.4312 -1.2087 -0.6087
14182TIP3   OH264036   5.944   5.652   2.834  0.8830 -0.5077  0.2825
14182TIP3    H164037   6.018   5.688   2.883  1.8954 -1.4512 -0.4858
14182TIP3    H264038   5.935   5.709   2.758  1.1611 -0.6891  0.1121
14183TIP3   OH264039   6.197   5.217   1.567 -0.4234 -0.3139 -0.1069
14183TIP3    H164040   6.260   5.162   1.615 -1.4732 -0.5469  1.0378
14183TIP3    H264041   6.213   5.306   1.600 -0.4237 -0.3092 -0.1191
14184TIP3   OH264042   3.738   1.888   2.838 -0.9706 -0.2585 -0.3293
14184TIP3    H164043   3.750   1.815   2.900 -2.0496 -0.3229 -0.1775
14184TIP3    H264044   3.806   1.952   2.863 -0.1231 -1.1243 -0.3571
14185TIP3   OH264045   4.434   3.492  13.120 -0.4079  0.3379  0.2878
14185TIP3    H164046   4.447   3.572  13.070 -2.2816 -0.0223 -0.8842
14185TIP3    H264047   4.348   3.460  13.092 -0.8490 -0.7139  2.6346
14186TIP3   OH264048   2.606   0.143  14.421  0.0567 -0.2695 -0.6339
14186TIP3    H164049   2.613   0.190  14.338 -1.1310 -1.4235 -1.4388
14186TIP3    H264050   2.581   0.054  14.395  0.3591 -0.8419  0.9363
14187TIP3   OH264051   4.035   5.309   2.463  0.4982 -0.1759  0.1725
14187TIP3    H164052   3.976   5.367   2.511 -0.1602 -1.2128  0.6577
14187TIP3    H264053   4.106   5.366   2.433 -0.7249  1.0887 -0.3956
14188TIP3   OH264054   3.566   1.043  11.021 -0.0958  0.5927 -0.2097
14188TIP3    H164055   3.583   1.131  10.988  0.9333  0.1557 -0.9001
14188TIP3    H264056   3.505   1.005  10.958  0.0048  0.5678 -0.2912
14189TIP3   OH264057   2.532   4.359   1.930 -0.3316 -0.2296  0.2557
14189TIP3    H164058   2.518   4.320   2.016 -1.0074 -0.8408 -0.1119
14189TIP3    H264059   2.621   4.393   1.933  0.5570 -2.3862  0.4049
14190TIP3   OH264060   4.510   3.271   3.459 -0.2139  0.3255  0.3702
14190TIP3    H164061   4.417   3.249   3.467 -0.6920  1.7002 -0.8726
14190TIP3    H264062   4.538   3.227   3.379 -0.3765  1.5900 -0.4148
14191TIP3   OH264063   1.608   4.935  12.491  0.0491 -1.2427  0.2258
14191TIP3    H164064   1.680   4.872  12.489  1.1717 -0.0393  0.6546
14191TIP3    H264065   1.614   4.976  12.578 -0.7154 -0.6359  0.0086
14192TIP3   OH264066   0.213   3.416   1.274 -0.3481 -0.4551 -0.2119
14192TIP3    H164067   0.192   3.496   1.323  3.1065  1.9375 -2.2451
14192TIP3    H264068   0.291   3.382   1.316  0.7643 -0.2118 -1.9903
14193TIP3   OH264069   1.781   1.854   4.618 -0.3199 -0.7292  0.9263
14193TIP3    H164070   1.803   1.800   4.694  0.4669 -1.2451  0.3465
14193TIP3    H264071   1.772   1.942   4.653 -1.8700 -1.2626  1.9296
14194TIP3   OH264072   2.180   2.968  14.254 -0.1936 -0.3184  0.3203
14194TIP3    H164073   2.111   3.027  14.283  0.1461  0.5623 -0.5832
14194TIP3    H264074   2.256   3.025  14.240  0.8431 -1.2973  1.6170
14195TIP3   OH264075   6.047   6.357  11.609 -0.0152  0.3981  0.3952
14195TIP3    H164076   6.004   6.378  11.692 -0.4282 -2.7042  1.1045
14195TIP3    H264077   6.122   6.303  11.634 -0.8305 -1.6223 -1.2325
14196TIP3   OH264078   5.872   2.649  14.169 -0.3801 -0.0191  0.4796
14196TIP3    H164079   5.957   2.615  14.139  0.3721  1.0022  1.3575
14196TIP3    H264080   5.814   2.636  14.095  0.9520  0.7046 -0.7524
14197TIP3   OH264081   6.746   5.659   5.578 -0.0734  0.1348  0.3524
14197TIP3    H164082   6.771   5.584   5.523  2.8159  2.6155 -2.1300
14197TIP3    H264083   6.819   5.670   5.638 -1.1227  0.1617  1.6519
14198TIP3   OH264084   3.108   2.919  15.969  0.0904  0.3875  0.5836
14198TIP3    H164085   3.121   3.010  15.941  1.2288 -0.2919 -1.3369
14198TIP3    H264086   3.156   2.868  15.904 -0.9752 -1.6266  1.3143
14199TIP3   OH264087   0.839   0.522   4.021 -0.1304  0.3249 -0.1518
14199TIP3    H164088   0.807   0.588   3.960 -1.4054 -0.9398 -0.9234
14199TIP3    H264089   0.885   0.459   3.967 -0.1257 -0.1327  0.3729
14200TIP3   OH264090   3.757   5.088  10.949 -0.2021 -0.3949 -0.1707
14200TIP3    H164091   3.852   5.097  10.955 -0.0947  0.7196 -2.4574
14200TIP3    H264092   3.723   5.175  10.969 -0.7776 -0.8124  0.7443
14201TIP3   OH264093   5.625   6.351  12.567 -0.4068 -0.4602 -0.6594
14201TIP3    H164094   5.711   6.312  12.551 -0.0225 -0.3717  0.9882
14201TIP3    H264095   5.623   6.429  12.512 -0.7204 -2.0893 -3.1129
14202TIP3   OH264096   2.309   0.133   2.741 -0.1176 -0.3011  0.6056
14202TIP3    H164097   2.242   0.068   2.718 -1.5749  0.3153  2.7952
14202TIP3    H264098   2.392   0.086   2.730 -0.8467 -1.1480 -1.9881
14203TIP3   OH264099   2.381   2.951  12.321 -0.2684  0.0504  0.2265
14203TIP3    H164100   2.420   2.994  12.245 -0.2095  0.3656  0.4281
14203TIP3    H264101   2.456   2.927  12.376 -0.3750  2.3843  1.5331
14204TIP3   OH264102   1.696   1.866   3.154 -0.2046  0.2069  0.1816
14204TIP3    H164103   1.724   1.893   3.067 -0.9720  0.2287 -0.0627
14204TIP3    H264104   1.773   1.879   3.209  0.5684 -0.6978 -0.6664
14205TIP3   OH264105   1.642   0.010  12.090 -0.1307  0.5342 -0.0406
14205TIP3    H164106   1.644  -0.032  12.005  0.5156 -0.6991  0.5657
14205TIP3    H264107   1.649  -0.061  12.153 -0.2412  1.4481  1.0443
14206TIP3   OH264108   0.653   6.754   1.710 -0.5481 -0.5364  0.3140
14206TIP3    H164109   0.688   6.841   1.687  0.1712 -0.0334  2.9645
14206TIP3    H264110   0.559   6.763   1.700 -0.5247  0.7266  0.9547
14207TIP3   OH264111   6.334   0.680  13.513 -0.5926 -0.2206 -0.4337
14207TIP3    H164112   6.279   0.607  13.486  0.4835 -0.5972 -1.7506
14207TIP3    H264113   6.423   0.646  13.509 -0.2048  0.4918  1.2361
14208TIP3   OH264114   3.025   3.297   0.743 -0.4691 -0.8860 -0.0913
14208TIP3    H164115   3.062   3.346   0.670 -0.7419 -0.6373 -0.0650
14208TIP3    H264116   3.009   3.364   0.810  1.1437 -1.3133  0.7557
14209TIP3   OH264117   4.517   6.046   0.130  0.7226  0.1394  0.5741
14209TIP3    H164118   4.568   5.991   0.071  1.5312  0.3661  1.0395
14209TIP3    H264119   4.443   5.991   0.156 -1.2149  0.9353 -2.7347
14210TIP3   OH264120   3.802   2.631  11.663 -0.1321 -0.6469  0.0627
14210TIP3    H164121   3.782   2.643  11.570 -1.3792 -1.2067  0.2428
14210TIP3    H264122   3.885   2.582  11.664  0.0329 -0.3920 -0.7417
14211TIP3   OH264123   2.102   1.579  11.946 -0.4596 -0.2990  0.2468
14211TIP3    H164124   2.114   1.490  11.912 -0.6412  0.5240 -2.1590
14211TIP3    H264125   2.007   1.594  11.942 -0.4559 -0.0704  0.8839
14212TIP3   OH264126   1.363   2.655   2.357  0.3036  0.0158  0.2040
14212TIP3    H164127   1.292   2.684   2.415 -1.2557 -1.0401 -1.1105
14212TIP3    H264128   1.388   2.734   2.309 -2.3863 -0.2039 -1.7546
14213TIP3   OH264129   3.265   4.282   4.663  0.2516 -0.4276 -0.4523
14213TIP3    H164130   3.235   4.293   4.753 -2.7516 -1.5639 -1.1880
14213TIP3    H264131   3.266   4.370   4.627  2.1705  0.1306  0.7962
14214TIP3   OH264132   3.956   3.940  10.427  0.3984  0.1928  0.2726
14214TIP3    H164133   3.987   4.016  10.377 -1.2731  0.4403 -0.4691
14214TIP3    H264134   3.891   3.977  10.487 -1.2489 -0.7483 -0.8525
14215TIP3   OH264135   6.041   5.896  14.551  0.5489  0.0797 -0.4993
14215TIP3    H164136   6.035   5.991  14.557 -0.2677  0.0520 -0.8187
14215TIP3    H264137   6.074   5.879  14.462 -2.1107  0.0021 -1.5764
14216TIP3   OH264138   2.365   3.794  13.256  0.1852  0.4134 -0.0364
14216TIP3    H164139   2.413   3.804  13.174  1.0104  0.0133  0.3948
14216TIP3    H264140   2.274   3.780  13.229  0.2249  1.5605 -0.8501
14217TIP3   OH264141   0.974   5.914  13.863  0.4572  0.2919 -0.0643
14217TIP3    H164142   0.935   5.975  13.800  0.6926  1.0465  0.4988
14217TIP3    H264143   0.992   5.835  13.813 -2.7343 -0.5066 -0.1558
14218TIP3   OH264144   1.803   3.455   1.304 -0.0646  0.3635 -0.6068
14218TIP3    H164145   1.828   3.470   1.395  1.5664  0.2595 -1.0051
14218TIP3    H264146   1.784   3.361   1.298  0.2867  0.2846 -0.4747
14219TIP3   OH264147   1.350   3.002  11.595 -0.3082 -0.0216 -0.2862
14219TIP3    H164148   1.265   3.018  11.635 -0.0385  0.7097  0.0282
14219TIP3    H264149   1.384   3.090  11.576  0.8462 -0.2448  0.6070
14220TIP3   OH264150   3.061   2.067  11.443  0.8674  0.1819 -0.6293
14220TIP3    H164151   2.966   2.053  11.450  1.1008 -1.7860 -0.7461
14220TIP3    H264152   3.094   2.053  11.532  0.9380  2.2776 -0.2795
14221TIP3   OH264153   4.121   3.810   1.607 -0.0064 -0.2080 -0.0474
14221TIP3    H164154   4.170   3.858   1.540 -0.1003  0.7550  0.5521
14221TIP3    H264155   4.098   3.877   1.672 -1.0923 -0.8707  0.2731
14222TIP3   OH264156   1.945   3.994  16.517 -0.0032 -0.0678 -0.2403
14222TIP3    H164157   2.021   4.036  16.556  0.2214 -0.0993 -0.6447
14222TIP3    H264158   1.946   4.020  16.425  0.2978 -1.1694 -0.5705
14223TIP3   OH264159   6.575   6.735  15.983  0.0174 -0.0645 -0.2532
14223TIP3    H164160   6.612   6.764  15.900  0.1772 -0.6892 -0.4035
14223TIP3    H264161   6.506   6.673  15.959  1.4148 -1.8607  0.0891
14224TIP3   OH264162   1.141   3.375  16.034 -0.0474 -0.6601  0.0678
14224TIP3    H164163   1.175   3.459  16.004  1.4040 -1.0264  0.6057
14224TIP3    H264164   1.088   3.396  16.111  0.1368 -0.2291  0.0770
14225TIP3   OH264165   3.367   0.894  14.345  0.3629 -0.5742  0.2260
14225TIP3    H164166   3.274   0.872  14.357  0.4180  0.1421  2.4140
14225TIP3    H264167   3.375   0.911  14.251 -1.7680 -0.4340  0.0083
14226TIP3   OH264168   0.156   4.802   0.976  0.3966 -0.0741  0.6969
14226TIP3    H164169   0.233   4.790   1.032  1.6505  0.3633 -0.8772
14226TIP3    H264170   0.124   4.889   0.999  0.7043 -0.0325  0.9829
14227TIP3   OH264171   0.682   5.372  10.312 -0.1711 -0.1074  0.2987
14227TIP3    H164172   0.599   5.382  10.359  0.3098 -0.1612  1.1648
14227TIP3    H264173   0.747   5.412  10.368  0.4092 -0.1132 -0.3561
14228TIP3   OH264174   3.945   1.666  14.376  0.2190 -0.3731 -0.6177
14228TIP3    H164175   3.879   1.605  14.346  0.7818 -0.9234 -0.7607
14228TIP3    H264176   3.978   1.707  14.296  1.1864 -1.2906 -0.7134
14229TIP3   OH264177   4.584   3.083   2.958  0.4952  0.2881  0.2383
14229TIP3    H164178   4.582   3.043   3.045 -0.1434  0.2063  0.1893
14229TIP3    H264179   4.558   3.174   2.973  1.4070  0.5569  0.2731
14230TIP3   OH264180   1.397   5.401  14.128 -0.0761  0.0222 -0.3564
14230TIP3    H164181   1.395   5.478  14.184 -0.5417 -0.5542  0.4463
14230TIP3    H264182   1.383   5.327  14.188  3.3287 -0.9929 -0.5742
14231TIP3   OH264183   6.327   5.348  15.946  0.2636  0.1386  0.0956
14231TIP3    H164184   6.422   5.335  15.947  0.1455 -1.0534 -0.9464
14231TIP3    H264185   6.303   5.350  16.038  1.1598 -0.9219  0.3899
14232TIP3   OH264186   6.293   4.126   4.319 -0.3878  0.0114 -0.2975
14232TIP3    H164187   6.327   4.085   4.399 -0.4663 -0.6092 -0.5789
14232TIP3    H264188   6.353   4.199   4.302  0.6801 -0.9357 -0.6716
14233TIP3   OH264189   0.688   0.054  11.652 -0.5788  0.4302  0.6186
14233TIP3    H164190   0.687   0.140  11.694 -2.7673  1.0116 -0.4996
14233TIP3    H264191   0.605   0.049  11.605 -0.0993 -1.9394 -0.1038
14234TIP3   OH264192   0.973   5.397   4.524  0.0162 -0.0056 -0.3262
14234TIP3    H164193   1.029   5.333   4.480  0.7358 -0.2716  0.9303
14234TIP3    H264194   1.006   5.400   4.614 -0.9741  1.0246  0.0260
14235TIP3   OH264195   6.807   5.039   0.004 -0.5172 -0.7081  0.2247
14235TIP3    H164196   6.846   5.047   0.092 -0.6308 -0.4015  0.2476
14235TIP3    H264197   6.713   5.054   0.018 -0.2846  1.6075 -0.2564
14236TIP3   OH264198   6.253   6.521  12.777  0.0493 -0.3316  0.3257
14236TIP3    H164199   6.208   6.541  12.695  0.1233  1.3218  0.6488
14236TIP3    H264200   6.189   6.473  12.829 -0.7099  0.3627  0.0588
14237TIP3   OH264201   0.897   6.064   6.177 -0.2132  0.6472 -0.2775
14237TIP3    H164202   0.907   6.104   6.263  0.5806  0.9547 -0.5034
14237TIP3    H264203   0.914   5.971   6.192 -0.8750  0.5694  0.0339
14238TIP3   OH264204   3.606   0.702  16.409  0.2067  0.0315  0.2604
14238TIP3    H164205   3.551   0.652  16.349 -0.5455  0.8990  0.1925
14238TIP3    H264206   3.572   0.791  16.404  1.1345  0.4368  0.8124
14239TIP3   OH264207   2.207   5.817   0.865 -0.3059 -0.2367  0.3466
14239TIP3    H164208   2.242   5.732   0.837 -0.9098 -0.6359  0.7652
14239TIP3    H264209   2.162   5.798   0.948 -0.2611  0.5372  0.5566
14240TIP3   OH264210   2.523   3.205  14.485  0.5053  0.2389  0.1593
14240TIP3    H164211   2.567   3.249  14.412  2.3353  1.4042  1.8787
14240TIP3    H264212   2.431   3.233  14.476  0.8693  1.1681 -1.1072
14241TIP3   OH264213   0.929   6.402  12.257 -0.4175  0.0966  0.2440
14241TIP3    H164214   1.013   6.412  12.302 -1.1894  0.9022  1.5427
14241TIP3    H264215   0.943   6.328  12.198  1.4279  0.6660 -0.1037
14242TIP3   OH264216   3.650   1.118  10.388 -0.4585  0.4284 -0.3419
14242TIP3    H164217   3.577   1.161  10.433 -0.7790  0.6303 -1.0454
14242TIP3    H264218   3.661   1.035  10.435  0.9649  1.7313  1.8342
14243TIP3   OH264219   2.632   4.636  13.275  0.0844  0.0982 -0.0599
14243TIP3    H164220   2.721   4.646  13.240 -0.1174  0.9390 -0.3790
14243TIP3    H264221   2.615   4.542  13.270  0.7050  0.0022 -0.6278
14244TIP3   OH264222   0.695   3.812  13.436  0.0454  0.7161  0.1400
14244TIP3    H164223   0.618   3.862  13.410 -0.6069  0.3831  1.3804
14244TIP3    H264224   0.691   3.733  13.382 -0.1108  0.9941 -0.2667
14245TIP3   OH264225   4.245   0.989  11.297  0.0159 -0.4278 -0.0088
14245TIP3    H164226   4.153   1.011  11.312 -0.6132 -2.7341 -0.0697
14245TIP3    H264227   4.282   1.066  11.255 -1.1481  1.6883  2.5271
14246TIP3   OH264228   0.430   4.225  15.219 -0.1900  0.3302 -0.3985
14246TIP3    H164229   0.411   4.220  15.125 -0.5042 -0.1442 -0.3163
14246TIP3    H264230   0.467   4.312  15.231 -0.6135  0.5868 -0.8845
14247TIP3   OH264231   3.331   0.763  12.191 -0.2933 -0.1486 -0.2762
14247TIP3    H164232   3.342   0.823  12.116  1.6450  0.8390  0.7059
14247TIP3    H264233   3.392   0.797  12.257 -1.2685 -1.5451  1.4129
14248TIP3   OH264234   5.288   2.521  15.511  0.2352 -0.1935  0.3045
14248TIP3    H164235   5.318   2.612  15.519  0.8250 -0.1428 -1.9100
14248TIP3    H264236   5.366   2.468  15.526 -0.0182 -0.3395  1.1636
14249TIP3   OH264237   4.539   4.867   0.196  0.3408  0.9447 -0.0521
14249TIP3    H164238   4.577   4.955   0.197  0.9576  0.7280  2.3282
14249TIP3    H264239   4.459   4.875   0.248  0.4914  0.0644  0.3270
14250TIP3   OH264240   0.634   6.035  11.652  0.1205  0.0956  0.3973
14250TIP3    H164241   0.662   6.094  11.723  0.8035 -0.3423  0.5064
14250TIP3    H264242   0.671   6.074  11.573  1.0682 -0.4742  0.5394
14251TIP3   OH264243   5.959   1.312   4.508  0.6896  0.3332  0.3830
14251TIP3    H164244   6.035   1.254   4.523  0.1126 -0.7798 -0.8156
14251TIP3    H264245   5.891   1.277   4.566  0.0291 -0.8487 -1.0581
14252TIP3   OH264246   2.543   5.948   2.869 -0.4946  0.1200 -0.8373
14252TIP3    H164247   2.587   5.864   2.860  0.5801  0.6236 -0.5075
14252TIP3    H264248   2.537   5.981   2.779  1.8429  1.0171 -0.7339
14253TIP3   OH264249   5.865   1.489   3.810 -0.3984  0.0185  0.5231
14253TIP3    H164250   5.906   1.507   3.726 -0.1697 -0.8602  0.4401
14253TIP3    H264251   5.777   1.526   3.802  0.4736  2.3889  0.8844
14254TIP3   OH264252   1.367   3.895  17.123  0.1091  0.3807 -0.2003
14254TIP3    H164253   1.336   3.865  17.038  0.0558  1.7276 -0.6744
14254TIP3    H264254   1.381   3.989  17.112  0.8710  0.4372  1.0530
14255TIP3   OH264255   6.303   3.580  12.418 -0.3475 -0.0082  0.1449
14255TIP3    H164256   6.314   3.520  12.492  0.3803 -0.1558 -0.0738
14255TIP3    H264257   6.345   3.535  12.345  0.5278  0.9236  0.0594
14256TIP3   OH264258   3.464   3.313   4.644 -0.7333  0.0125  0.0297
14256TIP3    H164259   3.544   3.339   4.690 -0.7183  0.6654 -0.3549
14256TIP3    H264260   3.439   3.230   4.684  0.7267 -0.7502 -0.5632
14257TIP3   OH264261   1.265   6.682  11.827 -0.2274  0.1723  0.5408
14257TIP3    H164262   1.225   6.690  11.740  0.3071 -1.4386  0.1127
14257TIP3    H264263   1.359   6.685  11.810 -0.0827 -1.5585  0.8659
14258TIP3   OH264264   2.556   0.929   1.810  0.2085  0.6996 -0.5111
14258TIP3    H164265   2.633   0.986   1.813 -0.4303  1.6236 -1.4143
14258TIP3    H264266   2.557   0.892   1.722 -0.5710  0.9612 -0.6311
14259TIP3   OH264267   0.031   2.977  16.449 -0.2087 -0.1215 -0.0746
14259TIP3    H164268  -0.054   3.021  16.445  0.0151  0.2312 -1.4127
14259TIP3    H264269   0.037   2.929  16.366  1.2156  0.4529 -0.3302
14260TIP3   OH264270   5.125   4.744  11.009 -0.0965  0.7305 -0.1790
14260TIP3    H164271   5.156   4.828  10.975 -0.9539  1.1357  0.0216
14260TIP3    H264272   5.063   4.767  11.078 -0.4583 -0.0693 -0.2280
14261TIP3   OH264273   6.455   3.924   2.286  0.4469  0.1832  0.1211
14261TIP3    H164274   6.546   3.942   2.263  0.1235 -0.9594 -2.3825
14261TIP3    H264275   6.434   3.843   2.240 -1.5938 -0.0821  1.3841
14262TIP3   OH264276   1.892   5.370  10.598 -0.0488 -0.7135  0.1203
14262TIP3    H164277   1.960   5.379  10.665 -0.9186 -0.3682  0.9717
14262TIP3    H264278   1.811   5.358  10.647 -0.8693  0.6561 -0.8246
14263TIP3   OH264279   3.546   4.623  17.090  0.3557 -0.0625  0.3434
14263TIP3    H164280   3.521   4.715  17.103  0.9439 -0.1464  2.4250
14263TIP3    H264281   3.546   4.585  17.178  0.0871 -2.0939 -0.4782
14264TIP3   OH264282   3.395   6.051  11.282 -0.1471  0.0972  0.0658
14264TIP3    H164283   3.332   6.061  11.211  1.3994  0.1782 -1.3469
14264TIP3    H264284   3.438   5.968  11.265 -0.7724 -0.6400  1.8090
14265TIP3   OH264285   3.142   6.753  13.214  0.2292  0.1024 -0.2946
14265TIP3    H164286   3.230   6.745  13.250  0.6255 -3.0447 -1.6761
14265TIP3    H264287   3.088   6.696  13.269 -1.1734  2.3403  0.8382
14266TIP3   OH264288   2.183   2.981  11.573 -0.0188 -0.1596 -0.5258
14266TIP3    H164289   2.091   2.958  11.560  0.1737 -1.0592 -0.3756
14266TIP3    H264290   2.204   2.948  11.661  0.1835  0.9339 -0.1439
14267TIP3   OH264291   5.772   5.683  15.642 -0.2142 -0.0463  0.1926
14267TIP3    H164292   5.846   5.661  15.585 -0.4065  1.7658 -0.8404
14267TIP3    H264293   5.740   5.599  15.674  0.0955 -1.1289 -2.1555
14268TIP3   OH264294   1.391   0.251  16.366  0.2721  0.6609  0.1445
14268TIP3    H164295   1.404   0.317  16.434  1.0583  1.0672 -0.3794
14268TIP3    H264296   1.425   0.292  16.286 -0.4047  0.0976 -0.4417
14269TIP3   OH264297   5.238   1.632  16.749  0.0652  0.0643 -0.0823
14269TIP3    H164298   5.246   1.678  16.665  1.1040 -0.3139 -0.2056
14269TIP3    H264299   5.326   1.635  16.786 -0.6179  1.1980  1.5423
14270TIP3   OH264300   0.170   5.284   1.911 -0.2585 -0.0552  0.0398
14270TIP3    H164301   0.146   5.294   1.819  0.1960 -0.1414 -0.0914
14270TIP3    H264302   0.146   5.194   1.933  1.2007 -0.6035 -0.4845
14271TIP3   OH264303   2.142   6.683   5.981  0.1699 -0.5319 -0.2350
14271TIP3    H164304   2.175   6.638   6.059 -0.3480 -0.1620  0.2055
14271TIP3    H264305   2.209   6.667   5.914 -0.7018 -3.3034 -0.5827
14272TIP3   OH264306   1.772   3.994   5.748  0.3898 -0.2703 -0.7211
14272TIP3    H164307   1.696   3.972   5.803  2.0736 -0.9128  1.5154
14272TIP3    H264308   1.785   4.088   5.762  0.1643 -0.2127 -0.8951
14273TIP3   OH264309   0.770   1.177   4.015  0.0405 -0.1415  0.5044
14273TIP3    H164310   0.863   1.201   4.017  0.2490 -0.7919 -0.5115
14273TIP3    H264311   0.724   1.260   4.004  0.4862  0.2063  1.2125
14274TIP3   OH264312   2.839   6.412   6.621  0.4103  0.2286 -0.0706
14274TIP3    H164313   2.836   6.505   6.597 -0.2163  0.5640  1.2092
14274TIP3    H264314   2.758   6.398   6.670 -0.7221 -1.6036 -2.2572
14275TIP3   OH264315   3.684   6.385   2.695 -0.2068 -0.5737 -0.3628
14275TIP3    H164316   3.619   6.356   2.759  0.3750  1.6645  1.4004
14275TIP3    H264317   3.635   6.439   2.634 -0.3085 -0.2938 -0.0398
14276TIP3   OH264318   3.600   6.109   2.552  0.4723  0.4798  0.3379
14276TIP3    H164319   3.620   6.166   2.477 -2.8045  0.9268 -0.3193
14276TIP3    H264320   3.578   6.170   2.623 -1.4379  0.1069  0.1110
14277TIP3   OH264321   0.373   2.135  16.613  0.7622 -0.4022  0.1934
14277TIP3    H164322   0.339   2.071  16.676  1.6381  0.5383  1.6841
14277TIP3    H264323   0.450   2.092  16.575  2.3419  0.2996  2.3971
14278TIP3   OH264324   0.459   2.903  10.262 -0.2049 -0.1841 -0.1011
14278TIP3    H164325   0.468   2.887  10.356  1.1699 -1.6979 -0.4553
14278TIP3    H264326   0.365   2.922  10.250 -0.2590  0.9669  1.6685
14279TIP3   OH264327   6.227   3.150   2.864  0.4400  0.0593  0.1326
14279TIP3    H164328   6.242   3.212   2.794 -0.0578 -1.6333 -1.5748
14279TIP3    H264329   6.304   3.093   2.863  0.6795  0.3473  1.3399
14280TIP3   OH264330   5.363   1.407  14.691 -0.3158  0.2577  0.2838
14280TIP3    H164331   5.442   1.353  14.683  0.5846  1.7312 -1.6265
14280TIP3    H264332   5.391   1.485  14.738 -0.1745  1.4747 -1.6953
14281TIP3   OH264333   4.100   5.816  12.312  0.0879 -0.1779 -0.0002
14281TIP3    H164334   4.135   5.736  12.351  1.4403  0.1067 -0.5570
14281TIP3    H264335   4.178   5.865  12.285 -0.7374  0.0218 -2.2721
14282TIP3   OH264336   2.154   6.689   4.366 -0.3298 -0.5429  0.0564
14282TIP3    H164337   2.128   6.776   4.394  1.2292  0.9963 -2.8058
14282TIP3    H264338   2.072   6.646   4.341 -1.0903  0.1702  1.2813
14283TIP3   OH264339   1.535   3.881   5.869 -0.0034 -0.0148  0.0074
14283TIP3    H164340   1.444   3.887   5.839  0.3518  1.0089 -0.9312
14283TIP3    H264341   1.529   3.844   5.957 -1.3749  0.5948  0.1884
14284TIP3   OH264342   4.591   1.855   5.243  0.2254 -0.3460  0.4929
14284TIP3    H164343   4.560   1.930   5.294 -0.0253 -0.4670  0.5202
14284TIP3    H264344   4.515   1.797   5.237 -0.3566  0.5420 -1.6803
14285TIP3   OH264345   5.447   3.588   5.205 -0.1720 -0.1500 -0.4377
14285TIP3    H164346   5.381   3.637   5.255 -0.1971  0.8679 -1.4388
14285TIP3    H264347   5.404   3.505   5.184 -0.4704 -0.2368  0.4696
14286TIP3   OH264348   4.451   5.397  14.897 -0.3323 -0.0754 -0.1310
14286TIP3    H164349   4.454   5.479  14.946 -1.2104  0.4648 -0.9515
14286TIP3    H264350   4.477   5.330  14.960  0.2770  0.8128  0.5872
14287TIP3   OH264351   5.184   4.024  13.992 -0.0938  0.5633  0.7622
14287TIP3    H164352   5.275   4.010  14.020  0.1005 -0.8011 -0.4435
14287TIP3    H264353   5.141   3.940  14.006 -1.6018  1.5458  2.6183
14288TIP3   OH264354   2.968   4.984  14.805  0.2582  0.2055 -0.1225
14288TIP3    H164355   2.883   5.024  14.791  0.2494  1.2552  2.3581
14288TIP3    H264356   2.954   4.923  14.877  1.7486  1.1349  1.0194
14289TIP3   OH264357   1.619   0.196   2.787 -0.3201 -0.2064 -0.7606
14289TIP3    H164358   1.670   0.137   2.842 -2.2751  0.2127  1.6532
14289TIP3    H264359   1.682   0.263   2.760  1.0216 -1.2262 -0.3122
14290TIP3   OH264360   2.889   4.854   2.736  0.4078 -0.1010  1.0889
14290TIP3    H164361   2.929   4.904   2.665 -0.0405 -2.6234 -1.0935
14290TIP3    H264362   2.961   4.803   2.773  0.0267 -1.7999 -0.3388
14291TIP3   OH264363   5.088   2.747   6.075  0.3742  0.2882 -0.5370
14291TIP3    H164364   5.081   2.687   6.000  0.8125  0.4359 -0.7008
14291TIP3    H264365   5.081   2.690   6.151 -1.2937  0.2690 -0.6611
14292TIP3   OH264366   2.794   5.345  16.493  0.1746 -0.0746 -0.2825
14292TIP3    H164367   2.801   5.291  16.414  1.7408  1.1124 -0.9888
14292TIP3    H264368   2.850   5.301  16.557  1.5098  0.7272 -0.8824
14293TIP3   OH264369   5.976   6.207  17.292 -0.5449 -0.3128 -0.2918
14293TIP3    H164370   5.971   6.215  17.387 -1.5568  2.4096 -0.4658
14293TIP3    H264371   5.932   6.124  17.272  1.0966 -1.7389  1.6405
14294TIP3   OH264372   6.260   4.167   2.689 -0.1672 -0.3625  0.0368
14294TIP3    H164373   6.194   4.100   2.673 -1.6124  1.2560 -1.1622
14294TIP3    H264374   6.282   4.157   2.782 -2.5281 -0.6016  0.6360
14295TIP3   OH264375   3.303   5.690   5.107 -0.1993  0.0289 -0.1266
14295TIP3    H164376   3.263   5.778   5.110  1.0512  0.7229 -1.9742
14295TIP3    H264377   3.246   5.636   5.162 -1.4792  1.8107  0.3980
14296TIP3   OH264378   0.392   6.213  15.898  0.1202 -0.4782 -0.1803
14296TIP3    H164379   0.407   6.204  15.804  0.9554  0.9771 -0.2160
14296TIP3    H264380   0.343   6.295  15.907  3.7316  1.8076  0.8854
14297TIP3   OH264381   3.368   4.838   1.189  0.0646  0.3341  0.1716
14297TIP3    H164382   3.313   4.912   1.165 -1.4678 -0.6923  0.3503
14297TIP3    H264383   3.418   4.869   1.265 -0.6560  1.1300  0.3356
14298TIP3   OH264384   5.926   0.700  14.116 -0.1728 -0.4082 -0.0445
14298TIP3    H164385   6.000   0.694  14.055  0.2036 -1.4973  0.5073
14298TIP3    H264386   5.926   0.791  14.145 -0.8537  0.3710 -2.2636
14299TIP3   OH264387   2.993   6.477  11.983 -0.1127 -0.2773 -0.6038
14299TIP3    H164388   3.011   6.522  11.900  2.3049  0.2674  0.1207
14299TIP3    H264389   3.050   6.400  11.981  1.1862  0.5669  1.1430
14300TIP3   OH264390   4.125   6.719  12.039  0.4258  0.1076 -0.2429
14300TIP3    H164391   4.180   6.765  11.975  0.4961  1.8733  1.0392
14300TIP3    H264392   4.079   6.653  11.987  1.2635  0.7894 -1.9250
14301TIP3   OH264393   0.370   4.059   0.766  0.4809 -0.2907  0.2624
14301TIP3    H164394   0.277   4.071   0.786  0.9123  0.6735  1.9238
14301TIP3    H264395   0.388   3.969   0.791 -0.1851 -0.7806 -0.9412
14302TIP3   OH264396   3.054   3.049   4.771  0.5724 -0.0350  0.4422
14302TIP3    H164397   2.972   3.029   4.727  1.5826 -1.1948 -1.0292
14302TIP3    H264398   3.072   3.140   4.748 -0.4670  0.3607  1.1136
14303TIP3   OH264399   2.185   6.109  17.136 -0.5574  1.0040 -0.0564
14303TIP3    H164400   2.126   6.076  17.204 -0.2475  1.3631  0.4008
14303TIP3    H264401   2.267   6.064  17.152 -0.7728  0.3233 -0.8474
14304TIP3   OH264402   2.445   6.353   0.526 -0.1574 -0.1785  0.0938
14304TIP3    H164403   2.390   6.369   0.450 -0.3413  0.2959  0.3225
14304TIP3    H264404   2.409   6.410   0.594  1.0476  0.6674  0.0450
14305TIP3   OH264405   4.991   3.627   1.164 -0.1557  0.3355 -0.4242
14305TIP3    H164406   5.044   3.680   1.223 -0.5734  1.9316 -1.4209
14305TIP3    H264407   4.927   3.688   1.128 -2.2923 -1.3789  0.2568
14306TIP3   OH264408   3.867   4.945  14.972 -0.4817 -0.5593 -0.7330
14306TIP3    H164409   3.801   4.968  15.037  0.7191 -0.7021  0.5910
14306TIP3    H264410   3.826   4.964  14.888 -2.2936 -0.9048  0.0287
14307TIP3   OH264411   2.283   6.629  11.100  0.0935 -0.0457  0.3015
14307TIP3    H164412   2.373   6.618  11.131 -0.6411 -1.2163  2.1848
14307TIP3    H264413   2.230   6.583  11.164 -1.8906  0.7439 -0.6952
14308TIP3   OH264414   3.148   5.527  14.552 -0.2921  0.6083  0.2991
14308TIP3    H164415   3.209   5.594  14.581 -0.1202  0.6928 -0.2406
14308TIP3    H264416   3.184   5.445  14.587 -0.0943  0.7095  0.3333
14309TIP3   OH264417   2.523   0.972  13.276  0.6090 -0.8768  0.6363
14309TIP3    H164418   2.513   0.934  13.364  0.5936 -1.5158  0.3625
14309TIP3    H264419   2.609   0.942  13.247  1.5728  1.0943  1.2705
14310TIP3   OH264420   2.087   3.852  11.280  0.0959 -0.5636  0.7958
14310TIP3    H164421   2.070   3.822  11.190 -0.5621  0.1284  0.6708
14310TIP3    H264422   2.176   3.888  11.277 -1.0949  2.7228 -0.5508
14311TIP3   OH264423   6.183   1.102  13.811  0.4037 -0.5478 -0.1962
14311TIP3    H164424   6.184   1.192  13.781 -0.4829 -0.9974 -1.6398
14311TIP3    H264425   6.263   1.064  13.774 -0.0832 -0.7880 -1.0180
14312TIP3   OH264426   3.656   0.625  15.902 -0.1009  0.0253  0.5068
14312TIP3    H164427   3.682   0.681  15.976  0.1474 -1.5430  1.6546
14312TIP3    H264428   3.721   0.555  15.901  0.4131  0.4858 -1.7947
14313TIP3   OH264429   4.138   0.831   1.846 -0.2932  0.6032 -0.0154
14313TIP3    H164430   4.208   0.772   1.875 -0.2848  0.1276 -0.9857
14313TIP3    H264431   4.149   0.838   1.751 -1.6733  0.3829 -0.2093
14314TIP3   OH264432   1.751   5.090  11.819  0.3335 -0.0158 -0.7195
14314TIP3    H164433   1.745   5.186  11.810 -0.2925 -0.1465 -2.0032
14314TIP3    H264434   1.727   5.073  11.910  1.5244  1.1211 -0.1614
14315TIP3   OH264435   0.406   2.823   1.606 -0.0662  0.1477 -0.2715
14315TIP3    H164436   0.473   2.771   1.650  1.1475  0.5875 -1.5352
14315TIP3    H264437   0.451   2.864   1.532 -2.0244 -0.6817 -2.0513
14316TIP3   OH264438   5.129   6.669  11.765 -0.1303 -0.1022  0.1461
14316TIP3    H164439   5.181   6.589  11.759  0.5568  0.3548 -0.2723
14316TIP3    H264440   5.190   6.734  11.800 -0.5506  0.3354  0.0727
14317TIP3   OH264441   2.142   0.926  14.864 -0.6242 -0.0724  0.0627
14317TIP3    H164442   2.071   0.988  14.847 -0.4109 -0.2521 -1.5889
14317TIP3    H264443   2.211   0.979  14.904 -0.8085  0.5601 -0.4497
14318TIP3   OH264444   5.034   4.940  14.650  0.2537  0.7665  0.3294
14318TIP3    H164445   5.013   4.847  14.638  1.5416  0.1097  2.4918
14318TIP3    H264446   4.962   4.973  14.705  0.5858  0.6244  0.8604
14319TIP3   OH264447   3.094   5.690   0.224  0.1882 -0.3098  0.3779
14319TIP3    H164448   3.114   5.623   0.289 -0.8406  0.2051  1.2546
14319TIP3    H264449   3.180   5.716   0.189  0.6647 -1.4129  0.6793
14320TIP3   OH264450   4.132   5.568   6.753 -0.2359 -0.6324  0.7464
14320TIP3    H164451   4.071   5.623   6.704  1.0842  0.6670  0.4733
14320TIP3    H264452   4.077   5.523   6.817 -1.8132 -1.4450 -1.0971
14321TIP3   OH264453   1.092   5.674   0.919  0.1586  0.7253  0.1468
14321TIP3    H164454   1.142   5.603   0.879  0.1013  0.8146 -0.0848
14321TIP3    H264455   1.014   5.681   0.864 -1.4522 -1.2035  1.9919
14322TIP3   OH264456   1.130   4.128   1.553 -0.0489 -0.6447 -0.0625
14322TIP3    H164457   1.070   4.070   1.600 -1.0317  0.3431 -0.0788
14322TIP3    H264458   1.142   4.085   1.468 -1.2700 -0.5248 -0.3129
14323TIP3   OH264459   0.754   1.685  13.325  0.1398  0.0554  0.6588
14323TIP3    H164460   0.834   1.679  13.376  0.9059  2.3937 -0.1488
14323TIP3    H264461   0.773   1.635  13.245  0.3860 -0.3192  0.9507
14324TIP3   OH264462   0.875   2.752  15.175  0.6541 -0.6125  0.2272
14324TIP3    H164463   0.831   2.691  15.116  0.9679 -1.4010  0.7798
14324TIP3    H264464   0.896   2.828  15.121 -2.0855  0.1616  0.1185
14325TIP3   OH264465   4.057   2.436   0.340 -0.6884 -0.2596  0.3421
14325TIP3    H164466   4.004   2.365   0.377  0.3112  0.0297  2.4857
14325TIP3    H264467   3.995   2.489   0.289 -2.4826 -0.0225  2.6258
14326TIP3   OH264468   2.754   6.104   5.955  0.3056  0.6607  0.0245
14326TIP3    H164469   2.676   6.145   5.993  1.0858  0.1394  2.3460
14326TIP3    H264470   2.778   6.161   5.881 -1.8083  1.2283 -0.2800
14327TIP3   OH264471   4.100   0.721   0.206 -0.6304  0.0455  0.0984
14327TIP3    H164472   4.083   0.660   0.278 -3.2192  2.0806  1.3790
14327TIP3    H264473   4.020   0.718   0.153 -0.3693  1.4905 -0.4201
14328TIP3   OH264474   2.608   1.695   0.958 -0.5436 -0.3265 -0.3758
14328TIP3    H164475   2.557   1.638   0.901  1.6690 -1.8896 -0.9121
14328TIP3    H264476   2.644   1.636   1.024  0.4534  0.7293  0.0538
14329TIP3   OH264477   1.197   5.410  17.219 -0.0929  0.1123  0.1745
14329TIP3    H164478   1.172   5.461  17.142 -1.4124 -1.3914 -0.4730
14329TIP3    H264479   1.278   5.365  17.193 -0.7941 -0.7708 -0.5669
14330TIP3   OH264480   4.489   3.108   0.146  0.1063  0.5421  0.5871
14330TIP3    H164481   4.491   3.202   0.163  2.4039  0.2366  2.4001
14330TIP3    H264482   4.485   3.067   0.232  1.7469 -1.0123  0.0028
14331TIP3   OH264483   3.923   1.440   1.932 -0.1588 -0.4298 -0.2247
14331TIP3    H164484   3.976   1.480   1.863  1.2182 -0.1721  0.9546
14331TIP3    H264485   3.905   1.352   1.900  1.5083 -0.7383 -0.3984
14332TIP3   OH264486   1.314   3.398   4.424 -0.5747 -0.3996 -0.3885
14332TIP3    H164487   1.346   3.381   4.336 -0.8631  0.1360 -0.6009
14332TIP3    H264488   1.330   3.491   4.439 -0.5158 -0.4854  0.1318
14333TIP3   OH264489   3.811   4.520  13.531 -0.1050 -0.3660 -0.2288
14333TIP3    H164490   3.858   4.448  13.490 -1.3737 -0.8718 -0.8534
14333TIP3    H264491   3.816   4.501  13.625  0.7889 -0.4942 -0.2993
14334TIP3   OH264492   6.162   0.497   6.257 -0.6821 -0.3165  0.0174
14334TIP3    H164493   6.252   0.466   6.268 -0.5271 -0.4932 -1.4327
14334TIP3    H264494   6.145   0.553   6.332  0.2995 -1.0683  0.8166
14335TIP3   OH264495   0.999   3.820   0.302 -0.4458  0.2729  0.2951
14335TIP3    H164496   1.085   3.781   0.289 -1.3091 -1.7101  0.2027
14335TIP3    H264497   0.999   3.850   0.393 -0.2055 -1.1889  0.7884
14336TIP3   OH264498   4.199   6.332   4.565  0.2351 -0.4768 -0.1198
14336TIP3    H164499   4.114   6.325   4.609 -0.1000  0.2425 -0.6493
14336TIP3    H264500   4.192   6.410   4.511  1.3507 -0.2357  0.0719
14337TIP3   OH264501   1.692   4.285  17.232  0.3638 -0.7014 -0.5684
14337TIP3    H164502   1.725   4.231  17.160 -0.4793 -0.0470 -1.4827
14337TIP3    H264503   1.603   4.307  17.205 -0.2661 -1.1041  1.0716
14338TIP3   OH264504   6.031   4.961  10.483  0.1272 -0.1743 -0.4676
14338TIP3    H164505   6.095   5.012  10.532 -1.4644  1.4918  0.0182
14338TIP3    H264506   6.045   4.987  10.392  0.2538  0.0563 -0.3840
14339TIP3   OH264507   2.344   3.148  16.307 -0.1160  0.4115 -0.0671
14339TIP3    H164508   2.298   3.186  16.382  0.4100  0.1788  0.3837
14339TIP3    H264509   2.394   3.076  16.344 -0.5166 -0.2503 -0.7909
14340TIP3   OH264510   5.738   6.300   4.618 -0.3710 -0.7604  0.5612
14340TIP3    H164511   5.644   6.300   4.636 -0.1823  0.2090  1.6323
14340TIP3    H264512   5.778   6.335   4.697  0.8088  0.0600 -0.3626
14341TIP3   OH264513   5.159   4.498  16.810  0.0708  0.0780 -0.4535
14341TIP3    H164514   5.181   4.579  16.764  0.9692  2.0066  3.0173
14341TIP3    H264515   5.063   4.495  16.809  0.0164  1.2879 -0.5217
14342TIP3   OH264516   6.334   3.349  15.665 -0.2408  0.3329 -0.0088
14342TIP3    H164517   6.367   3.302  15.741 -0.5780  0.7862  0.4262
14342TIP3    H264518   6.259   3.297  15.635  0.2344 -0.1483 -0.3811
14343TIP3   OH264519   4.180   5.075  12.126  0.2512 -0.6771 -0.2393
14343TIP3    H164520   4.168   5.028  12.209  2.6021  0.4521  0.8429
14343TIP3    H264521   4.269   5.053  12.098  0.0697  0.2148 -1.6207
14344TIP3   OH264522   6.337   2.236   1.974 -0.1608 -0.1767 -0.2978
14344TIP3    H164523   6.373   2.150   1.995 -0.9533 -0.1599  1.2776
14344TIP3    H264524   6.296   2.266   2.056  0.1771  1.7361 -0.7677
14345TIP3   OH264525   6.493   1.473  12.748  0.4427 -0.3961  0.0380
14345TIP3    H164526   6.554   1.401  12.764 -0.3580 -0.9513  0.6829
14345TIP3    H264527   6.497   1.527  12.827 -0.1753 -0.6568  0.2588
14346TIP3   OH264528   0.327   3.926   1.731 -0.5015  0.3503 -0.2415
14346TIP3    H164529   0.306   3.832   1.733 -0.0366  0.2161  2.3513
14346TIP3    H264530   0.422   3.929   1.745 -0.4426  1.2013 -0.7796
14347TIP3   OH264531   5.478   2.784   3.768  0.2864  0.0293  0.1362
14347TIP3    H164532   5.395   2.739   3.781  1.4086 -2.4105 -0.4264
14347TIP3    H264533   5.512   2.798   3.856  0.9769 -2.5582  0.3701
14348TIP3   OH264534   0.595   6.158   4.676 -0.3562  0.1602 -0.4264
14348TIP3    H164535   0.632   6.246   4.681  0.8790 -0.0325 -3.6777
14348TIP3    H264536   0.671   6.101   4.663 -1.0467 -1.5844  2.4335
14349TIP3   OH264537   1.109   3.208  15.791 -0.1607  0.0833  0.1990
14349TIP3    H164538   1.062   3.128  15.814 -0.1917  0.1390  0.3301
14349TIP3    H264539   1.096   3.265  15.866  1.2528 -0.3967  0.8360
14350TIP3   OH264540   2.584   6.671  15.704 -0.1509 -0.5090 -0.1529
14350TIP3    H164541   2.678   6.672  15.684  0.1748 -0.1813  1.2737
14350TIP3    H264542   2.564   6.760  15.731 -0.2309 -1.1597  2.1524
14351TIP3   OH264543   5.004   6.028   2.192 -0.4192 -0.5024 -0.8364
14351TIP3    H164544   4.994   5.961   2.260 -1.4106 -2.9232 -3.1864
14351TIP3    H264545   5.066   6.090   2.229  0.3489 -2.5439  1.6237
14352TIP3   OH264546   0.780   5.672  14.286  0.1627  0.1410  0.4251
14352TIP3    H164547   0.859   5.619  14.274 -0.3336 -0.4847 -0.1764
14352TIP3    H264548   0.792   5.747  14.228 -0.6366 -1.0667 -1.3747
14353TIP3   OH264549   4.430   6.694   2.328 -0.0376  0.1867  0.4287
14353TIP3    H164550   4.422   6.736   2.414  0.4583  1.3868 -0.0945
14353TIP3    H264551   4.354   6.725   2.279  0.0244  0.0058  0.2154
14354TIP3   OH264552   5.462   5.784  17.227  0.2062 -0.0890 -0.6049
14354TIP3    H164553   5.475   5.837  17.148 -0.3880  0.4565 -0.3476
14354TIP3    H264554   5.439   5.697  17.194  0.0569  0.1109 -1.0328
14355TIP3   OH264555   0.057   5.570  14.339 -0.0359 -0.2234  0.1177
14355TIP3    H164556   0.131   5.586  14.281  0.5590  1.0793  1.1702
14355TIP3    H264557   0.022   5.486  14.311  1.1882 -0.3629 -1.0935
14356TIP3   OH264558   0.420   6.345  16.793  0.0473  0.3303 -0.2176
14356TIP3    H164559   0.421   6.319  16.701  0.1742  1.1919 -0.4676
14356TIP3    H264560   0.507   6.321  16.826 -0.6268 -1.7381  0.2041
14357TIP3   OH264561   2.852   6.207   0.833 -0.4384 -0.6640 -0.1893
14357TIP3    H164562   2.763   6.212   0.799 -1.2863  1.5433  2.0739
14357TIP3    H264563   2.857   6.121   0.876 -0.8313 -1.5443 -1.8421
14358TIP3   OH264564   5.407   5.927   3.680 -0.0000  0.4559 -0.5243
14358TIP3    H164565   5.311   5.930   3.690 -0.0586 -1.6926  0.2123
14358TIP3    H264566   5.421   5.865   3.608  0.8197 -1.5215  1.2255
14359TIP3   OH264567   4.371   2.452  13.608  0.0337 -0.2810  0.6986
14359TIP3    H164568   4.354   2.436  13.515  0.1835  0.3549  0.5516
14359TIP3    H264569   4.341   2.542  13.622  0.3961 -0.2300  1.1665
14360TIP3   OH264570   4.084   1.702  17.130 -0.1826 -0.4633  0.0759
14360TIP3    H164571   4.038   1.765  17.185  0.0544  0.4206 -0.7183
14360TIP3    H264572   4.051   1.617  17.159 -0.8629  0.0420  0.8354
14361TIP3   OH264573   3.974   2.162   6.309  0.3362 -0.2240 -0.0960
14361TIP3    H164574   3.904   2.118   6.358  0.5821  0.1413  0.6095
14361TIP3    H264575   3.935   2.245   6.282 -0.0954 -0.8114 -1.3392
14362TIP3   OH264576   1.364   5.816  12.760 -0.4150 -0.0352  0.0973
14362TIP3    H164577   1.350   5.818  12.854  0.6636 -0.6977  0.2920
14362TIP3    H264578   1.416   5.895  12.741  0.6737 -0.6736  0.3146
14363TIP3   OH264579   0.194   0.632  15.711  0.3739  0.2008  0.2395
14363TIP3    H164580   0.125   0.572  15.682  0.3903  0.6083 -0.6801
14363TIP3    H264581   0.223   0.597  15.795  0.1920 -0.9206 -0.1541
14364TIP3   OH264582   2.248   3.783   3.274 -0.6753  0.0330  0.4820
14364TIP3    H164583   2.175   3.729   3.243 -0.7282 -0.0621  0.7734
14364TIP3    H264584   2.322   3.722   3.276  0.4975  0.9672 -3.8052
14365TIP3   OH264585   3.268   2.978  12.305  0.2927  0.1895  0.0618
14365TIP3    H164586   3.293   2.900  12.255  0.6034  0.6614 -0.5318
14365TIP3    H264587   3.183   3.002  12.270  0.4554  0.4490 -0.1588
14366TIP3   OH264588   4.912   1.063  16.482  0.1978 -0.3626  0.3435
14366TIP3    H164589   4.990   1.060  16.427 -0.3044  0.4173 -0.4550
14366TIP3    H264590   4.853   0.998  16.443 -0.1387  0.1544 -0.0317
14367TIP3   OH264591   5.987   0.146   2.166 -0.1702 -0.4353 -0.2515
14367TIP3    H164592   5.999   0.235   2.198 -1.1857  0.1542 -1.4265
14367TIP3    H264593   6.062   0.098   2.200 -1.1694  0.0755  3.0480
14368TIP3   OH264594   0.851   6.410   0.079 -0.2786 -0.3307  0.8448
14368TIP3    H164595   0.758   6.424   0.061  0.0840  1.5116  0.1430
14368TIP3    H264596   0.866   6.451   0.164  0.1674  0.7687  0.2608
14369TIP3   OH264597   5.727   3.281  12.311  0.1610  0.2905  0.1096
14369TIP3    H164598   5.698   3.219  12.378 -0.1702  1.2345  0.8547
14369TIP3    H264599   5.647   3.306  12.265  0.5159 -1.2415 -1.4626
14370TIP3   OH264600   2.338   2.297   5.698  0.0638 -0.0657 -0.3648
14370TIP3    H164601   2.422   2.343   5.691  1.7764 -2.7978  0.6232
14370TIP3    H264602   2.339   2.259   5.786 -0.6971 -2.8269 -1.4549
14371TIP3   OH264603   6.020   2.329  13.255 -0.3836 -0.2323  0.2096
14371TIP3    H164604   6.014   2.242  13.295 -2.7079 -1.0638 -1.7130
14371TIP3    H264605   5.986   2.389  13.323  0.4563 -0.9132  1.2508
14372TIP3   OH264606   1.527   3.842  11.147 -0.1647  0.2564 -0.9304
14372TIP3    H164607   1.535   3.747  11.155 -0.5034  0.3193  0.2581
14372TIP3    H264608   1.511   3.856  11.053  0.1803 -0.8301 -1.1689
14373TIP3   OH264609   0.123   1.896  16.946  0.6264  0.3682 -0.2197
14373TIP3    H164610   0.093   1.896  16.855  0.2809  0.3407 -0.1095
14373TIP3    H264611   0.120   1.988  16.973 -0.2388  0.2747  0.0642
14374TIP3   OH264612   0.528   2.195  14.778 -0.2084  0.0179 -0.0670
14374TIP3    H164613   0.528   2.190  14.873 -0.3321 -2.3062 -0.1187
14374TIP3    H264614   0.439   2.222  14.755 -0.4451 -0.2904  0.4679
14375TIP3   OH264615   4.941   2.236   1.615 -0.0718 -0.2545  0.3026
14375TIP3    H164616   4.991   2.161   1.648  0.2368  0.3611  1.2992
14375TIP3    H264617   4.857   2.229   1.661 -1.1759 -1.6023 -1.7819
14376TIP3   OH264618   0.725   3.352  16.740 -0.2712 -0.5606  0.1016
14376TIP3    H164619   0.810   3.315  16.762 -0.6353 -1.4816  0.0249
14376TIP3    H264620   0.730   3.370  16.646 -0.3628 -1.1950 -0.0299
14377TIP3   OH264621   2.056   5.977  13.766  0.5199  0.0887 -0.2937
14377TIP3    H164622   1.974   6.019  13.740 -2.2081 -4.2982  0.1844
14377TIP3    H264623   2.092   5.942  13.684 -0.5551 -1.7257 -0.0440
14378TIP3   OH264624   2.855   2.453   5.943 -0.3177  0.0424  0.1914
14378TIP3    H164625   2.763   2.473   5.959  0.1371  2.9006 -0.1658
14378TIP3    H264626   2.873   2.493   5.857  1.2970 -0.3244  0.3271
14379TIP3   OH264627   4.246   5.324  11.708 -0.7031  0.0321  0.6598
14379TIP3    H164628   4.315   5.339  11.772 -0.4117 -0.5277  0.4800
14379TIP3    H264629   4.212   5.237  11.728 -1.4445  0.3522  0.8272
14380TIP3   OH264630   5.123   0.441  12.196 -0.2029 -0.6444 -0.3492
14380TIP3    H164631   5.120   0.348  12.173 -0.1054 -0.7107 -0.1098
14380TIP3    H264632   5.062   0.484  12.137  0.3795 -0.7386 -1.0374
14381TIP3   OH264633   2.809   6.184  14.656 -0.5284 -0.7282  0.2360
14381TIP3    H164634   2.853   6.185  14.571  1.1281  0.1855  1.0515
14381TIP3    H264635   2.778   6.094  14.667  0.8731 -1.3279 -0.5246
14382TIP3   OH264636   5.459   6.262   4.633 -0.3780  0.3153 -0.3657
14382TIP3    H164637   5.375   6.217   4.623 -1.0150  1.3073  0.3697
14382TIP3    H264638   5.436   6.354   4.643  0.6509  0.4020  1.7496
14383TIP3   OH264639   2.151   4.175  16.100  0.0050  0.1202  0.0408
14383TIP3    H164640   2.171   4.111  16.032 -0.7200  0.4670 -0.5076
14383TIP3    H264641   2.234   4.187  16.146  0.1124 -1.3571  0.2848
14384TIP3   OH264642   0.177   3.971   6.063  1.0144  0.3638  1.0172
14384TIP3    H164643   0.214   4.057   6.080  0.3968  0.5534  1.4094
14384TIP3    H264644   0.193   3.922   6.144  2.5927 -0.3361  0.3174
14385TIP3   OH264645   1.518   3.103   4.187  0.5286  0.3245  0.1477
14385TIP3    H164646   1.565   3.111   4.270  0.5389  1.0210  0.0805
14385TIP3    H264647   1.587   3.096   4.121  0.5543  1.2998  0.0542
14386TIP3   OH264648   5.174   1.785  15.898 -0.3726 -0.0467  0.2327
14386TIP3    H164649   5.087   1.826  15.894 -0.4936 -0.3737 -0.5641
14386TIP3    H264650   5.230   1.854  15.934 -0.9674  0.1478  0.8255
14387TIP3   OH264651   0.034   6.754  13.334 -0.3689  0.0334 -0.3783
14387TIP3    H164652   0.085   6.803  13.269  0.6173  0.8156  0.9306
14387TIP3    H264653  -0.021   6.695  13.282 -0.5920  1.5447 -1.9760
14388TIP3   OH264654   2.957   3.061  12.349  0.3667  0.6146  0.1317
14388TIP3    H164655   3.023   3.127  12.329  0.8158  0.2451  0.3983
14388TIP3    H264656   2.913   3.046  12.265  0.1929  1.3200  0.0898
14389TIP3   OH264657   4.614   4.910   3.484  0.1177  0.3419 -0.3218
14389TIP3    H164658   4.533   4.962   3.487 -1.4795 -1.9896 -0.5895
14389TIP3    H264659   4.638   4.910   3.391  1.4000  2.3375 -0.0508
14390TIP3   OH264660   3.089   5.960  15.795 -0.5809 -0.2112  0.6055
14390TIP3    H164661   3.117   5.986  15.883  0.0546 -0.4635  0.4786
14390TIP3    H264662   3.131   5.875  15.780 -1.4299 -0.6139  0.4197
14391TIP3   OH264663   5.804   0.416   1.997  0.3149  0.5374 -0.5077
14391TIP3    H164664   5.745   0.342   1.980  0.3384  0.2995  0.4209
14391TIP3    H264665   5.840   0.438   1.910  1.3928 -1.4522 -0.6344
14392TIP3   OH264666   6.349   4.636  12.197 -0.1507 -0.2877  0.3918
14392TIP3    H164667   6.325   4.652  12.106  0.5653 -1.9408 -0.1422
14392TIP3    H264668   6.267   4.608  12.239 -0.3389 -0.2224  0.0700
14393TIP3   OH264669   6.707   6.611  14.648  0.1724  0.1733  0.2241
14393TIP3    H164670   6.633   6.625  14.707  0.6100 -1.0125  1.0981
14393TIP3    H264671   6.694   6.522  14.614  0.2249  0.6403 -1.0431
14394TIP3   OH264672   3.769   1.006   6.258  0.4232 -0.2852 -0.3338
14394TIP3    H164673   3.862   0.999   6.235  0.8209  0.0007  1.0950
14394TIP3    H264674   3.769   1.042   6.347 -1.0736  0.0672 -0.4535
14395TIP3   OH264675   5.746   5.925  13.104 -0.0523 -0.7756 -0.2286
14395TIP3    H164676   5.807   5.954  13.173 -0.8795  0.3233  0.0611
14395TIP3    H264677   5.775   5.972  13.026 -0.2502 -0.6008 -0.1963
14396TIP3   OH264678   2.456   2.181   0.664  0.2877 -0.1752 -0.1881
14396TIP3    H164679   2.387   2.235   0.704  0.3178 -0.3780  0.1475
14396TIP3    H264680   2.536   2.207   0.710  0.5540  0.5382 -1.0375
14397TIP3   OH264681   0.658   5.870  13.932 -0.3572 -0.3222  0.3633
14397TIP3    H164682   0.653   5.960  13.900  1.3793 -0.5150 -0.5599
14397TIP3    H264683   0.735   5.868  13.988 -0.7059 -1.1164  0.8370
14398TIP3   OH264684   3.669   4.868  10.801 -0.5224 -0.2174  0.3925
14398TIP3    H164685   3.682   4.785  10.847 -0.0425 -1.0172 -1.1197
14398TIP3    H264686   3.715   4.932  10.854  0.9880 -1.3020  0.4719
14399TIP3   OH264687   4.994   5.053  10.452 -0.1904 -0.4175  0.2609
14399TIP3    H164688   5.047   5.056  10.372 -2.0745  0.5390 -1.0104
14399TIP3    H264689   5.028   5.123  10.506  1.0673 -1.0325  0.3065
14400TIP3   OH264690   5.891   6.032   4.498  0.2000 -0.2113 -0.0436
14400TIP3    H164691   5.976   6.072   4.515  0.7679 -1.1113 -0.7125
14400TIP3    H264692   5.829   6.085   4.550  1.0156  1.0721 -0.3273
14401TIP3   OH264693   3.017   5.653  16.514  0.1350 -0.1872  0.1844
14401TIP3    H164694   3.055   5.567  16.499  1.7882  0.3152  1.1862
14401TIP3    H264695   2.982   5.649  16.603  0.2166  0.1820  0.2355
14402TIP3   OH264696   2.139   6.690  12.332 -0.1438 -0.4951 -0.8523
14402TIP3    H164697   2.232   6.702  12.312 -0.1512 -1.3626 -1.4824
14402TIP3    H264698   2.133   6.698  12.427  1.2195 -3.9738 -0.3075
14403TIP3   OH264699   4.897   5.652  13.142 -1.0796 -0.1444  0.0963
14403TIP3    H164700   4.875   5.591  13.072 -1.9953 -0.2748  0.4788
14403TIP3    H264701   4.860   5.735  13.114 -2.1991 -0.3836  0.7813
14404TIP3   OH264702   4.032   0.783  13.270  0.2344 -0.9868 -0.0719
14404TIP3    H164703   4.104   0.731  13.304  0.0373 -1.2363 -0.0297
14404TIP3    H264704   4.015   0.748  13.182 -0.2367 -1.3457  0.1558
14405TIP3   OH264705   1.275   2.397   2.121  0.1291 -0.2070 -0.0180
14405TIP3    H164706   1.246   2.443   2.200  0.6578  1.1331 -0.5816
14405TIP3    H264707   1.338   2.456   2.080  0.5189 -1.2575 -1.0020
14406TIP3   OH264708   6.561   5.041  15.895  0.7174  0.0138  0.4209
14406TIP3    H164709   6.518   5.031  15.980 -0.9569 -1.2318 -0.5143
14406TIP3    H264710   6.636   4.981  15.899  2.1165  1.7299  1.8313
14407TIP3   OH264711   3.039   5.067   0.987 -0.6035  0.1091  0.0938
14407TIP3    H164712   3.113   5.036   1.038 -0.0423  1.9262  0.4421
14407TIP3    H264713   2.965   5.014   1.017  0.5814 -2.0608 -0.5872
14408TIP3   OH264714   5.500   3.346  13.496  0.6855 -0.5239  0.5506
14408TIP3    H164715   5.572   3.306  13.544  0.4309 -2.9245 -0.8964
14408TIP3    H264716   5.525   3.339  13.404 -0.4888  0.5276  0.1109
14409TIP3   OH264717   6.013   5.198   2.543  0.1733 -0.2551 -0.1319
14409TIP3    H164718   6.042   5.262   2.607 -1.6867  0.3245  0.1873
14409TIP3    H264719   6.075   5.207   2.471  0.2159  1.6130  0.0819
14410TIP3   OH264720   2.126   3.004   4.603 -0.4185 -0.3134 -0.1696
14410TIP3    H164721   2.217   3.027   4.623  0.0859 -1.5509 -0.9213
14410TIP3    H264722   2.078   3.024   4.683  0.4695  0.5713  0.1629
14411TIP3   OH264723   2.772   1.004  17.176  0.0146 -0.2268 -0.9709
14411TIP3    H164724   2.834   1.075  17.189  0.2321 -0.6503  0.3660
14411TIP3    H264725   2.756   0.968  17.263 -2.2146 -0.0473 -1.2342
14412TIP3   OH264726   1.048   3.279   5.428  0.2415  0.4551 -0.2503
14412TIP3    H164727   1.016   3.343   5.491  0.6675  0.2804  0.1448
14412TIP3    H264728   0.993   3.292   5.350  2.0846  3.1815 -1.2191
14413TIP3   OH264729   4.655   1.713   2.044 -0.8489 -0.7897  0.8107
14413TIP3    H164730   4.599   1.790   2.027 -2.2892 -1.3753  2.5554
14413TIP3    H264731   4.594   1.646   2.074  0.4783 -2.4162  0.0328
14414TIP3   OH264732   2.281   1.250   6.182 -0.1811  0.0782  0.3393
14414TIP3    H164733   2.351   1.311   6.202 -0.5325  0.7437 -0.3852
14414TIP3    H264734   2.236   1.236   6.265 -0.9847  1.9639  0.2740
14415TIP3   OH264735   2.050   2.172  13.784 -0.8028 -1.0106  0.0044
14415TIP3    H164736   1.982   2.112  13.813  0.6814 -2.7297  0.0650
14415TIP3    H264737   2.097   2.125  13.715  0.1197  0.2671 -0.2841
14416TIP3   OH264738   0.555   2.781  13.614  0.2201  0.3896  0.3767
14416TIP3    H164739   0.586   2.699  13.576 -0.0589  0.0508  0.8642
14416TIP3    H264740   0.621   2.846  13.588  0.5712 -0.0345  0.1894
14417TIP3   OH264741   3.738   5.715  12.080 -0.7094 -0.3374 -0.1688
14417TIP3    H164742   3.700   5.778  12.019 -1.5390 -1.4570 -0.8528
14417TIP3    H264743   3.774   5.646  12.024  0.8759 -0.1259  0.5319
14418TIP3   OH264744   0.751   2.504   5.049 -0.3650  0.7037 -0.0605
14418TIP3    H164745   0.727   2.564   5.119  1.8011  0.7560  0.7033
14418TIP3    H264746   0.804   2.557   4.989 -0.2357  0.0726 -0.5154
14419TIP3   OH264747   2.246   4.473  10.717 -0.0949  0.4277  0.3735
14419TIP3    H164748   2.278   4.562  10.699 -0.6791  0.4708 -0.4614
14419TIP3    H264749   2.151   4.480  10.714 -0.1603 -0.6350 -1.8605
14420TIP3   OH264750   4.106   6.123  14.556 -0.2285  0.4402 -0.3526
14420TIP3    H164751   4.013   6.099  14.549  0.3997 -2.0357 -1.0898
14420TIP3    H264752   4.119   6.138  14.650 -0.9201 -1.4331  0.0872
14421TIP3   OH264753   5.774   6.140  15.171  0.0941 -0.6292  0.4071
14421TIP3    H164754   5.744   6.050  15.183  1.4806 -1.3196 -0.9413
14421TIP3    H264755   5.769   6.155  15.077  0.8234  0.3463  0.5026
14422TIP3   OH264756   2.022   0.733  16.157  0.2187 -0.1565  0.0619
14422TIP3    H164757   1.982   0.810  16.199  0.1729  0.8439 -1.7221
14422TIP3    H264758   1.995   0.659  16.211  0.2488  1.0669  1.8328
14423TIP3   OH264759   2.536   1.894  13.026 -0.3388 -0.2873  0.0795
14423TIP3    H164760   2.519   1.868  13.116 -0.5914  0.1304  0.1596
14423TIP3    H264761   2.625   1.928  13.027 -0.2583 -0.5023  0.1245
14424TIP3   OH264762   1.206   6.579   3.104 -0.1762  0.7176  0.4502
14424TIP3    H164763   1.184   6.513   3.169  2.5862 -1.0249 -0.1744
14424TIP3    H264764   1.260   6.642   3.151  0.0817  0.5918  0.3294
14425TIP3   OH264765   0.989   3.515   3.189  0.3735  0.1755  0.0509
14425TIP3    H164766   1.075   3.558   3.191  0.9785 -0.3289 -4.4011
14425TIP3    H264767   0.928   3.587   3.170  0.7287 -0.1539 -2.6373
14426TIP3   OH264768   4.112   3.211   5.054 -0.4350  0.1265 -0.3048
14426TIP3    H164769   4.197   3.198   5.011 -0.3005  0.3251 -0.1022
14426TIP3    H264770   4.131   3.198   5.147 -0.8030 -0.6970 -0.3362
14427TIP3   OH264771   1.070   1.015   0.801 -0.1584  0.2257 -0.0335
14427TIP3    H164772   1.099   1.096   0.760 -0.4532 -0.7444 -2.3103
14427TIP3    H264773   1.013   1.043   0.873 -0.2433  2.0283 -0.7592
14428TIP3   OH264774   6.259   5.778  17.068 -0.1574  0.1646  0.1406
14428TIP3    H164775   6.205   5.707  17.033 -1.9042 -0.3505  3.4711
14428TIP3    H264776   6.209   5.857  17.050 -0.0261  0.1300 -0.3676
14429TIP3   OH264777   0.173   1.721  15.154  0.0575 -0.3068 -0.7182
14429TIP3    H164778   0.103   1.712  15.219  0.6412  0.8816  0.1291
14429TIP3    H264779   0.164   1.811  15.122  0.8668 -0.3036 -0.9633
14430TIP3   OH264780   6.422   1.528   2.725 -0.1872  0.4524  0.3151
14430TIP3    H164781   6.328   1.537   2.745 -0.4251  0.4164 -0.7116
14430TIP3    H264782   6.449   1.451   2.774 -0.9212 -0.0627 -0.0614
14431TIP3   OH264783   6.020   1.626  15.660  0.0353 -0.0250 -0.4253
14431TIP3    H164784   6.017   1.576  15.741  0.9493  0.0169 -0.3562
14431TIP3    H264785   5.955   1.584  15.603 -0.4855 -0.1578  0.2609
14432TIP3   OH264786   2.797   5.271   4.979 -0.8810 -0.1118 -0.0545
14432TIP3    H164787   2.774   5.219   5.056  0.1857  0.8807  0.9628
14432TIP3    H264788   2.891   5.256   4.967 -0.7539  0.8290 -0.3123
14433TIP3   OH264789   2.407   2.879   5.087  0.2119 -0.0475  0.5992
14433TIP3    H164790   2.435   2.969   5.070 -1.5168  0.6915  1.4083
14433TIP3    H264791   2.322   2.888   5.130  0.7876 -2.0189  2.3202
14434TIP3   OH264792   1.536   5.989  13.536  0.3088  0.4516  0.0408
14434TIP3    H164793   1.506   6.071  13.577  1.6203  0.5049  0.9442
14434TIP3    H264794   1.503   5.920  13.594  0.1348  0.3905 -0.1295
14435TIP3   OH264795   3.863   5.597   6.003  0.4831 -0.3484 -0.0144
14435TIP3    H164796   3.930   5.664   5.996 -2.1333  2.4502 -0.3670
14435TIP3    H264797   3.856   5.580   6.098  2.5686 -1.7992 -0.0562
14436TIP3   OH264798   2.055   4.049  11.045  0.7389 -0.9672  0.1099
14436TIP3    H164799   2.111   3.996  10.989  1.7554 -0.1350  0.3200
14436TIP3    H264800   2.090   4.036  11.134  0.6532 -0.3685  0.2314
14437TIP3   OH264801   1.996   0.655   5.393  0.2658  0.0225  0.1666
14437TIP3    H164802   2.037   0.724   5.340 -0.5198 -0.5868 -1.2797
14437TIP3    H264803   2.056   0.581   5.387 -0.2680 -0.3602 -0.6915
14438TIP3   OH264804   1.032   1.270   4.027  0.1317  0.4421 -0.3162
14438TIP3    H164805   1.004   1.338   4.088 -1.5152  0.2694 -0.8305
14438TIP3    H264806   1.100   1.222   4.074 -0.5180  0.8275  1.0597
14439TIP3   OH264807   5.671   5.629  13.867 -0.1658 -0.5208  0.2369
14439TIP3    H164808   5.734   5.699  13.881  0.0812 -0.6727 -0.1210
14439TIP3    H264809   5.628   5.619  13.952  0.9824 -1.0898  0.7709
14440TIP3   OH264810   6.334   6.142  13.208  0.2401  0.2293 -0.1004
14440TIP3    H164811   6.295   6.153  13.295  0.4941  0.1558  0.0225
14440TIP3    H264812   6.262   6.162  13.147  0.1077  0.4427  0.1245
14441TIP3   OH264813   4.291   6.513  15.057  0.2416  0.3393  0.4254
14441TIP3    H164814   4.265   6.593  15.102 -0.9049 -0.0227  0.4357
14441TIP3    H264815   4.341   6.543  14.981 -2.5185  1.2530 -1.1480
14442TIP3   OH264816   3.198   0.656   4.566  0.0334 -0.3949 -0.4083
14442TIP3    H164817   3.206   0.731   4.507  1.5045 -1.9564 -2.3273
14442TIP3    H264818   3.287   0.643   4.599  0.4283 -2.8080 -2.1643
14443TIP3   OH264819   6.191   1.241   3.375  0.4284  0.3564 -0.5215
14443TIP3    H164820   6.281   1.268   3.358  0.2782  1.7862  0.6555
14443TIP3    H264821   6.138   1.304   3.326  0.0551 -0.5921 -1.3580
14444TIP3   OH264822   2.777   1.070  15.670 -0.3803 -0.4808 -0.3237
14444TIP3    H164823   2.776   1.004  15.600  0.2796 -0.2945 -0.5131
14444TIP3    H264824   2.690   1.063  15.709 -1.1924  0.2233 -1.9091
14445TIP3   OH264825   3.941   3.361  12.608 -0.5901  0.1132  0.3240
14445TIP3    H164826   3.916   3.444  12.649 -0.0022 -0.7595  2.5705
14445TIP3    H264827   4.000   3.387  12.537 -1.1589  1.6477  0.3595
14446TIP3   OH264828   3.907   3.171  13.008  0.1729  0.3096 -0.4379
14446TIP3    H164829   3.962   3.176  13.086  0.3576 -0.9470 -0.4784
14446TIP3    H264830   3.907   3.079  12.984  1.3279  0.8426 -2.7964
14447TIP3   OH264831   2.253   3.166   2.965 -0.6034  0.1334 -0.0910
14447TIP3    H164832   2.222   3.252   2.996 -0.9480 -0.8664  2.6809
14447TIP3    H264833   2.262   3.176   2.871  0.8942  3.7013  0.2698
14448TIP3   OH264834   0.919   4.436   1.678 -0.2643  0.0420 -0.0560
14448TIP3    H164835   0.830   4.459   1.706 -0.1201 -0.2369  0.6500
14448TIP3    H264836   0.942   4.504   1.615 -2.6056 -2.2070 -3.6970
14449TIP3   OH264837   1.645   5.888  12.833  0.5268  0.5852  0.3965
14449TIP3    H164838   1.735   5.885  12.865 -0.1956 -0.8545  2.5358
14449TIP3    H264839   1.595   5.924  12.906 -0.6933  0.9973 -0.6136
14450TIP3   OH264840   2.597   4.946   5.328 -0.2227 -1.1194 -0.5847
14450TIP3    H164841   2.551   4.862   5.330 -0.6812 -0.8544  0.6065
14450TIP3    H264842   2.689   4.922   5.317 -0.2155 -1.8567  0.8262
14451TIP3   OH264843   4.699   1.280  10.699 -0.0465  0.0225  0.1694
14451TIP3    H164844   4.649   1.361  10.707 -3.0187 -1.6564 -0.2038
14451TIP3    H264845   4.725   1.277  10.607 -1.1419 -0.1184 -0.1387
14452TIP3   OH264846   3.553   4.795   5.646 -0.0565 -0.3636 -0.2621
14452TIP3    H164847   3.572   4.702   5.654  1.0116 -0.4069 -2.4647
14452TIP3    H264848   3.600   4.836   5.719 -0.6418 -1.5261  0.7961
14453TIP3   OH264849   2.105   1.863  16.400 -0.1998  0.4952 -0.0161
14453TIP3    H164850   2.075   1.815  16.477  0.6753  3.9212  2.7195
14453TIP3    H264851   2.198   1.881  16.417 -0.5239  3.2679 -0.6839
14454TIP3   OH264852   2.038   0.340  15.102 -0.8001  0.6142  0.1129
14454TIP3    H164853   2.129   0.341  15.073 -0.5099  1.8638  1.0139
14454TIP3    H264854   1.989   0.313  15.024  0.4133 -1.2649 -0.0704
14455TIP3   OH264855   3.291   0.690  13.915  0.4366  0.0988  0.4352
14455TIP3    H164856   3.341   0.714  13.993  3.0210 -1.6173 -0.5333
14455TIP3    H264857   3.326   0.604  13.890 -0.6345  0.3579 -2.3210
14456TIP3   OH264858   0.774   2.084   1.672  0.5573 -0.3345  0.3645
14456TIP3    H164859   0.865   2.109   1.659  1.0729 -2.5608 -0.8563
14456TIP3    H264860   0.737   2.153   1.727  2.6563  1.2164 -0.0732
14457TIP3   OH264861   3.937   3.354  13.266  0.2774 -0.5423 -0.2911
14457TIP3    H164862   3.886   3.366  13.186 -0.8547 -0.0896  0.4783
14457TIP3    H264863   4.008   3.419  13.259 -1.0184  0.9763 -0.0025
14458TIP3   OH264864   0.031   2.440  15.603 -0.2524  0.1166 -0.1975
14458TIP3    H164865   0.105   2.476  15.555  0.1815  0.8743  0.9797
14458TIP3    H264866   0.042   2.474  15.692 -0.2660 -2.2868  0.8120
14459TIP3   OH264867   0.721   2.520   1.929  0.2493 -0.0195  0.5398
14459TIP3    H164868   0.664   2.596   1.937  0.4424  0.3645 -1.3237
14459TIP3    H264869   0.809   2.554   1.943  0.2632 -0.0775  0.5956
14460TIP3   OH264870   0.831   2.695   0.698  0.2967  0.3088  0.5335
14460TIP3    H164871   0.855   2.689   0.605 -0.6737  0.3677  0.2662
14460TIP3    H264872   0.911   2.722   0.742  0.6317  0.8176 -0.3662
14461TIP3   OH264873   1.973   4.105  11.997  0.1834  0.2519  0.3727
14461TIP3    H164874   1.997   4.134  12.085 -0.1865  2.2272 -0.1124
14461TIP3    H264875   2.052   4.117  11.945  0.2793 -0.4926  0.3457
14462TIP3   OH264876   2.826   5.081   3.803 -0.1970  0.0938 -0.4478
14462TIP3    H164877   2.805   5.020   3.732 -1.7134 -0.3900  0.3566
14462TIP3    H264878   2.741   5.119   3.827  0.4954  1.2664  0.1886
14463TIP3   OH264879   3.195   2.565  15.897  0.0433  0.4669 -0.3896
14463TIP3    H164880   3.238   2.562  15.811  0.9306  1.2785  0.0094
14463TIP3    H264881   3.261   2.531  15.958 -1.2348 -1.9723 -0.2368
14464TIP3   OH264882   5.093   1.358   3.689  0.1671  0.3169  0.0745
14464TIP3    H164883   5.158   1.329   3.754  0.0514  0.2554  0.1620
14464TIP3    H264884   5.146   1.396   3.618  0.2964  0.3333  0.1789
14465TIP3   OH264885   3.442   2.644  16.156 -0.1977  0.0228 -0.1165
14465TIP3    H164886   3.415   2.555  16.134  2.1335 -0.7634 -0.0213
14465TIP3    H264887   3.382   2.669  16.226 -1.1209 -1.3352 -0.3659
14466TIP3   OH264888   4.678   4.864   5.481 -0.5644 -0.7587  0.1548
14466TIP3    H164889   4.765   4.886   5.448 -1.0128 -0.7855 -1.1367
14466TIP3    H264890   4.688   4.776   5.519 -0.0110 -0.7192  0.1118
14467TIP3   OH264891   1.272   5.837   1.933  0.2271 -0.3938 -0.4829
14467TIP3    H164892   1.349   5.818   1.986 -1.0491 -2.4522  0.7641
14467TIP3    H264893   1.283   5.782   1.856  0.5424  0.2236 -0.8944
14468TIP3   OH264894   4.117   6.248  14.813  0.1708  0.0308 -0.2571
14468TIP3    H164895   4.079   6.177  14.866 -1.7766  2.3091  1.6820
14468TIP3    H264896   4.085   6.328  14.855  2.8964  2.1202 -1.8346
14469TIP3   OH264897   6.056   5.352   0.995  0.0385  0.1548  0.1519
14469TIP3    H164898   6.098   5.267   1.006 -0.7638 -0.1018  1.4827
14469TIP3    H264899   6.127   5.411   0.971  0.8244 -0.6289  0.4836
14470TIP3   OH264900   5.834   6.698   1.619 -0.6096 -0.3958  0.3807
14470TIP3    H164901   5.797   6.786   1.627 -0.4530 -0.2040 -0.7072
14470TIP3    H264902   5.770   6.650   1.566 -0.1428 -0.5727 -0.0332
14471TIP3   OH264903   4.795   0.063   6.707  0.2180 -0.4455 -0.0983
14471TIP3    H164904   4.872   0.020   6.672  0.2684  0.0950 -0.6620
14471TIP3    H264905   4.770   0.010   6.783  0.9167 -0.8334 -0.1369
14472TIP3   OH264906   2.013   1.135  14.472  0.0199  0.4218 -0.7438
14472TIP3    H164907   1.939   1.101  14.422  1.0110 -0.9377 -1.3754
14472TIP3    H264908   2.088   1.087  14.437  1.4119  2.7262 -1.0668
14473TIP3   OH264909   1.792   5.341  15.875  0.7956  0.1252 -0.0867
14473TIP3    H164910   1.797   5.299  15.789  1.6435 -2.7802  1.2501
14473TIP3    H264911   1.699   5.339  15.898  0.7479 -0.4374 -0.3273
14474TIP3   OH264912   3.524   3.790   4.529  0.1693 -0.4971 -0.4582
14474TIP3    H164913   3.551   3.853   4.597 -1.6829  1.5564 -1.4783
14474TIP3    H264914   3.473   3.724   4.577 -0.0437  0.2133  0.3256
14475TIP3   OH264915   2.473   5.927  14.627  0.0421  0.3812 -0.1073
14475TIP3    H164916   2.486   5.971  14.542 -0.8758  0.5563 -0.1755
14475TIP3    H264917   2.449   5.837  14.604  1.7498 -0.1321  0.0284
14476TIP3   OH264918   0.417   5.107   6.220  0.1774 -0.4124 -0.2822
14476TIP3    H164919   0.383   5.167   6.286 -1.0868 -0.2281 -1.0686
14476TIP3    H264920   0.403   5.020   6.259  2.0492 -0.2568  0.8725
14477TIP3   OH264921   1.209   2.804   1.642  0.0925 -0.0729 -0.7606
14477TIP3    H164922   1.228   2.769   1.730  1.6686  0.0047 -1.0298
14477TIP3    H264923   1.139   2.867   1.656  0.6178  0.2702  0.5274
14478TIP3   OH264924   5.076   1.277  12.522  0.0569  0.0148 -0.2640
14478TIP3    H164925   5.157   1.256  12.475 -1.0120 -0.5676 -1.9748
14478TIP3    H264926   5.105   1.321  12.602  2.0213  0.4107 -1.1251
14479TIP3   OH264927   2.271   4.403  13.657  0.1371 -0.5485  0.0959
14479TIP3    H164928   2.354   4.448  13.643  0.1698 -0.6917 -0.1673
14479TIP3    H264929   2.287   4.346  13.733  0.8544 -1.9929 -1.1007
14480TIP3   OH264930   4.095   6.702   1.143 -0.6084 -0.1326  0.1312
14480TIP3    H164931   4.162   6.636   1.160 -0.3471  0.5855  2.2373
14480TIP3    H264932   4.017   6.652   1.119  0.1848 -1.0677 -0.5839
14481TIP3   OH264933   3.314   2.424   2.892  0.6572 -0.6119 -0.5767
14481TIP3    H164934   3.230   2.410   2.850 -0.2477 -1.4793  1.3719
14481TIP3    H264935   3.362   2.342   2.879  0.2158 -1.0362  0.3607
14482TIP3   OH264936   0.206   6.744   5.852 -0.7061 -0.4847  0.2185
14482TIP3    H164937   0.298   6.717   5.862 -0.2338  1.0927  0.3870
14482TIP3    H264938   0.194   6.811   5.919 -1.8107 -0.2472 -0.2046
14483TIP3   OH264939   0.649   5.560  10.895  0.5383 -0.1081  0.0872
14483TIP3    H164940   0.694   5.502  10.833  0.4738  0.6076 -0.6592
14483TIP3    H264941   0.675   5.648  10.867 -2.1761  0.4149 -1.0917
14484TIP3   OH264942   3.875   4.063  16.645 -0.7048 -0.3308 -0.3895
14484TIP3    H164943   3.851   4.119  16.719  0.2754  0.1509 -0.4240
14484TIP3    H264944   3.880   3.975  16.683  1.7567  0.1733  0.6102
14485TIP3   OH264945   3.293   3.259   1.693  0.0830  0.2768  0.4863
14485TIP3    H164946   3.355   3.217   1.752 -0.0570  1.1518  1.2842
14485TIP3    H264947   3.348   3.307   1.631  0.2131  0.9021  1.0797
14486TIP3   OH264948   2.994   2.009  17.062  0.4688  0.0180  0.0177
14486TIP3    H164949   2.940   1.998  16.984  0.4923  0.4423 -0.0616
14486TIP3    H264950   2.934   1.998  17.135  0.3703  0.0063 -0.0654
14487TIP3   OH264951   6.364   6.358  11.327 -0.4849  0.0340  0.0916
14487TIP3    H164952   6.356   6.297  11.253  0.1681 -0.7561  0.6527
14487TIP3    H264953   6.358   6.445  11.287 -1.5502 -0.3793 -0.7136
14488TIP3   OH264954   0.213   1.993  14.187 -0.0984  0.0083 -0.0962
14488TIP3    H164955   0.219   2.049  14.110  0.4220  0.2185  0.0938
14488TIP3    H264956   0.169   1.914  14.156 -0.8017  0.4977 -0.3770
14489TIP3   OH264957   0.467   4.049  17.221 -0.4031 -0.2598  0.6162
14489TIP3    H164958   0.450   3.983  17.288  1.4413 -1.8985 -0.4288
14489TIP3    H264959   0.400   4.033  17.155  0.6617 -1.9140 -0.1429
14490TIP3   OH264960   3.389   5.601  13.509  0.2614  0.1133 -0.2106
14490TIP3    H164961   3.385   5.658  13.433 -1.1312 -1.1380 -1.1453
14490TIP3    H264962   3.346   5.650  13.579 -3.3687 -0.6350 -1.6824
14491TIP3   OH264963   5.865   3.860   1.805  0.0740  0.2131  0.3359
14491TIP3    H164964   5.846   3.771   1.776  0.9712  0.4488 -1.0861
14491TIP3    H264965   5.781   3.905   1.803 -0.4768 -0.7060  1.5355
14492TIP3   OH264966   4.135   1.253  14.432 -0.1013  0.4505  0.2653
14492TIP3    H164967   4.166   1.282  14.518  0.7992 -0.3884  0.2335
14492TIP3    H264968   4.175   1.315  14.371  1.5021 -0.5563  0.2338
14493TIP3   OH264969   0.333   4.611   2.909  0.0054 -0.0581 -0.2719
14493TIP3    H164970   0.240   4.587   2.909  0.1892 -0.9258  0.9551
14493TIP3    H264971   0.376   4.539   2.862  0.0531  0.4005 -0.9384
14494TIP3   OH264972   1.955   0.325  13.174 -0.0139 -0.0831 -0.1659
14494TIP3    H164973   1.932   0.302  13.084 -1.5595 -0.1424  0.2103
14494TIP3    H264974   1.947   0.243  13.222 -1.4621  0.3624  0.4196
14495TIP3   OH264975   2.787   4.451  12.276 -0.2810 -0.2684 -0.4340
14495TIP3    H164976   2.722   4.404  12.223  0.4583 -1.6062 -0.2105
14495TIP3    H264977   2.834   4.505  12.212 -0.4022 -0.7052 -0.9043
14496TIP3   OH264978   6.414   2.394  10.924 -0.5096  0.4091  0.6269
14496TIP3    H164979   6.486   2.456  10.938  0.1011  0.0463 -0.6898
14496TIP3    H264980   6.443   2.342  10.849 -1.0366 -1.4256  1.6379
14497TIP3   OH264981   2.170   3.384   3.678  0.0547 -0.5008  0.0146
14497TIP3    H164982   2.134   3.447   3.741  1.1077 -0.4985  0.6421
14497TIP3    H264983   2.161   3.299   3.721  0.9517 -0.4774  0.2741
14498TIP3   OH264984   2.456   5.393  13.311  0.2926 -0.3679  0.1837
14498TIP3    H164985   2.395   5.406  13.384  0.2598  1.1364 -0.0671
14498TIP3    H264986   2.437   5.466  13.252  0.2122 -1.6371 -1.4197
14499TIP3   OH264987   5.998   6.210   4.205 -0.0257 -0.1384  0.2529
14499TIP3    H164988   6.017   6.288   4.257  3.2155 -1.3520  1.1425
14499TIP3    H264989   6.056   6.217   4.129 -0.5898 -1.0976 -0.2829
14500TIP3   OH264990   0.739   0.104  14.494  0.3147 -0.8247 -0.3348
14500TIP3    H164991   0.690   0.021  14.499 -0.4930 -0.4239 -1.3945
14500TIP3    H264992   0.830   0.077  14.477  0.1015 -1.5037 -0.4245
14501TIP3   OH264993   2.436   0.516   5.385 -0.1645  0.2538 -0.3607
14501TIP3    H164994   2.360   0.567   5.416 -1.0461 -1.3545  0.2278
14501TIP3    H264995   2.496   0.515   5.459 -0.3863 -0.0087 -0.1819
14502TIP3   OH264996   5.932   4.652  13.865  0.1406  0.0802  0.7958
14502TIP3    H164997   5.880   4.599  13.806 -1.2166  2.5036 -0.3429
14502TIP3    H264998   5.868   4.692  13.925  0.9659  1.0817  1.0534
14503TIP3   OH264999   0.496   4.216   0.274  0.6842 -0.8705  0.2136
14503TIP3    H165000   0.477   4.134   0.230  1.5681 -1.5328  1.0129
14503TIP3    H265001   0.515   4.191   0.364  0.3554  0.2872  0.6318
14504TIP3   OH265002   6.156   4.404   3.233 -0.2182 -0.4979  0.4540
14504TIP3    H165003   6.189   4.352   3.160  0.1213  1.0497 -0.5480
14504TIP3    H265004   6.062   4.411   3.217  0.2081  2.2201 -1.5361
14505TIP3   OH265005   4.025   0.248  15.838 -0.1080 -0.1044 -0.5556
14505TIP3    H165006   4.061   0.247  15.749  1.0721  0.5537 -0.1111
14505TIP3    H265007   4.093   0.289  15.891 -0.9433 -0.1520  0.5981
14506TIP3   OH265008   4.224   2.112  17.256  0.6195  0.1845 -0.1393
14506TIP3    H165009   4.177   2.136  17.336 -0.3615 -0.2127 -0.5794
14506TIP3    H265010   4.317   2.116  17.280  0.3428  0.2273  0.9649
14507TIP3   OH265011   5.337   0.986   4.582  0.0426  0.0208  0.0272
14507TIP3    H165012   5.277   0.986   4.657  0.2449 -1.1395  0.1977
14507TIP3    H265013   5.303   0.918   4.524  0.3201  0.4068 -0.6040
14508TIP3   OH265014   0.833   4.708  17.061 -0.4252  0.2272 -0.2980
14508TIP3    H165015   0.855   4.743  17.147  1.5908 -1.4635 -0.0326
14508TIP3    H265016   0.772   4.636  17.079  1.5709 -1.4920  0.0368
14509TIP3   OH265017   5.188   5.171   1.656 -0.1615 -0.9144 -0.0092
14509TIP3    H165018   5.100   5.184   1.621  0.0497 -0.8486 -0.5317
14509TIP3    H265019   5.199   5.240   1.721 -0.3245 -0.6256 -0.2844
14510TIP3   OH265020   2.230   2.935   0.935  0.2150 -0.0309  0.3968
14510TIP3    H165021   2.139   2.948   0.964 -0.0352  1.0693 -0.7887
14510TIP3    H265022   2.239   2.840   0.929 -1.8350 -0.1888 -2.2471
14511TIP3   OH265023   4.205   4.778   1.685  0.5190 -0.2108  0.5468
14511TIP3    H165024   4.269   4.712   1.661 -0.2332 -0.2726 -1.4410
14511TIP3    H265025   4.198   4.772   1.780  0.3490 -3.1050  0.4133
14512TIP3   OH265026   0.037   6.158  15.915  0.1299 -0.3009  0.3250
14512TIP3    H165027   0.058   6.088  15.853  1.1283  1.2178 -1.1244
14512TIP3    H265028   0.089   6.233  15.886 -1.8129  1.4372  1.0681
14513TIP3   OH265029   4.163   4.660   6.265 -0.4750 -0.5556 -0.4129
14513TIP3    H165030   4.121   4.688   6.346  1.5125 -1.4411  0.9887
14513TIP3    H265031   4.228   4.728   6.247 -0.8660 -0.3878 -1.2850
14514TIP3   OH265032   0.195   1.045   1.344  0.9370 -0.1747 -0.0624
14514TIP3    H165033   0.170   1.078   1.257  1.8804  0.1549 -0.2205
14514TIP3    H265034   0.121   1.068   1.400  0.1151 -0.7949 -0.8709
14515TIP3   OH265035   6.011   3.031   4.380  0.7104 -0.1662 -0.6220
14515TIP3    H165036   6.051   3.110   4.344  0.9297  0.4446  0.8811
14515TIP3    H265037   6.084   2.968   4.385  1.4463  0.7649  1.5868
14516TIP3   OH265038   1.441   0.956   5.755 -0.2998 -0.0144 -0.0307
14516TIP3    H165039   1.425   1.048   5.733 -0.9105 -0.2067 -0.3829
14516TIP3    H265040   1.510   0.929   5.695  2.2468  1.1088  2.1696
14517TIP3   OH265041   1.974   2.386   4.495 -0.6068  0.1518  0.6479
14517TIP3    H165042   1.962   2.364   4.587  2.2103  0.6476  1.2248
14517TIP3    H265043   2.067   2.368   4.477 -0.6948  1.5002 -1.6796
14518TIP3   OH265044   4.370   3.558  10.374 -0.3869  0.1990 -0.0767
14518TIP3    H165045   4.434   3.518  10.315 -0.3856  2.6466 -1.8627
14518TIP3    H265046   4.287   3.551  10.328 -0.3929  2.1197 -0.4081
14519TIP3   OH265047   0.670   6.731  12.558  0.5372 -0.0638 -0.3000
14519TIP3    H165048   0.684   6.673  12.633 -0.8155 -0.4697 -0.3425
14519TIP3    H265049   0.718   6.811  12.580  0.1006 -0.1508  1.0398
14520TIP3   OH265050   2.856   3.315  16.860 -0.0824 -0.0418 -0.1070
14520TIP3    H165051   2.826   3.404  16.844 -0.2347 -0.1958 -0.6936
14520TIP3    H265052   2.776   3.266  16.880  0.0202 -0.0143  0.3867
14521TIP3   OH265053   4.377   3.016  14.623  0.1169  0.3924  0.0805
14521TIP3    H165054   4.282   3.024  14.636  0.0392  2.4380 -1.2850
14521TIP3    H265055   4.415   3.075  14.689  0.5040 -0.7789  0.9396
14522TIP3   OH265056   6.297   0.560  15.900  0.0580  0.3817 -0.3619
14522TIP3    H165057   6.244   0.525  15.972 -0.9774  0.5028 -1.0404
14522TIP3    H265058   6.387   0.546  15.928 -0.3259 -0.3658  0.5741
14523TIP3   OH265059   3.141   4.546   3.363 -0.4438 -0.0159 -0.4691
14523TIP3    H165060   3.162   4.543   3.456 -0.7125  0.0429 -0.4058
14523TIP3    H265061   3.120   4.637   3.345 -1.1013 -0.1481 -0.4237
14524TIP3   OH265062   2.230   2.362   6.124  0.3921 -0.2769  0.2424
14524TIP3    H165063   2.266   2.440   6.081  0.0654 -0.2232  0.0600
14524TIP3    H265064   2.198   2.395   6.209  0.7177 -0.3136  0.3795
14525TIP3   OH265065   0.433   4.401   0.847 -0.2108 -0.2697 -0.3136
14525TIP3    H165066   0.457   4.315   0.882  0.0411  0.2158  0.7175
14525TIP3    H265067   0.419   4.456   0.924  0.2780  0.7959 -0.9636
14526TIP3   OH265068   6.009   5.846  16.918  0.8732  0.1226 -0.6775
14526TIP3    H165069   6.097   5.852  16.880  2.1944  0.0339  2.1580
14526TIP3    H265070   6.004   5.758  16.954  0.9299  1.1236  1.9758
14527TIP3   OH265071   3.095   0.776   3.098  0.3310  0.2770  0.0629
14527TIP3    H165072   3.043   0.749   3.023  1.0764 -1.2398  0.0505
14527TIP3    H265073   3.045   0.746   3.174  0.3960  0.2871  0.1096
14528TIP3   OH265074   0.531   0.539  12.104 -0.0496  0.3739 -0.5164
14528TIP3    H165075   0.477   0.550  12.182  1.6252 -1.2895  0.9298
14528TIP3    H265076   0.610   0.590  12.122  0.1849  0.2997 -1.3035
14529TIP3   OH265077   5.153   3.386   1.796 -0.4411 -0.1347 -0.0644
14529TIP3    H165078   5.117   3.402   1.709 -1.6911  0.6849  0.5729
14529TIP3    H265079   5.248   3.393   1.784 -0.6141  0.4685 -1.2687
14530TIP3   OH265080   6.192   3.959   5.057  0.0053  0.1984 -0.4008
14530TIP3    H165081   6.168   4.038   5.106  0.5829 -0.4269  0.9637
14530TIP3    H265082   6.266   3.984   5.003  0.0231  0.6540 -0.1639
14531TIP3   OH265083   2.236   2.080  14.146 -0.1615 -0.6088 -0.1679
14531TIP3    H165084   2.317   2.110  14.187 -0.0671  0.7708 -1.2870
14531TIP3    H265085   2.263   2.041  14.063 -0.5652 -0.9255 -0.1546
14532TIP3   OH265086   0.015   6.432  16.613 -0.1071  0.0703  0.4216
14532TIP3    H165087   0.054   6.462  16.694  0.8091  0.2126 -0.0606
14532TIP3    H265088   0.042   6.497  16.548  0.5958 -0.9311 -0.3247
14533TIP3   OH265089   0.844   3.925  11.479 -0.1106  0.0248 -0.1836
14533TIP3    H165090   0.917   3.934  11.540  0.2730 -0.3621 -0.5755
14533TIP3    H265091   0.814   3.834  11.490 -0.9625  0.3709  0.4455
14534TIP3   OH265092   3.504   2.536   5.198 -1.0297  0.7012 -0.3797
14534TIP3    H165093   3.450   2.532   5.277 -0.5842 -0.9158 -0.1144
14534TIP3    H265094   3.525   2.444   5.179  1.9818  1.2604 -0.1926
14535TIP3   OH265095   3.700   3.395  11.745 -0.0669 -0.1412  0.4717
14535TIP3    H165096   3.774   3.403  11.684  0.1872 -2.5575  0.3762
14535TIP3    H265097   3.669   3.485  11.756 -0.2726  0.4249 -3.3748
14536TIP3   OH265098   4.293   1.744  11.428 -0.1457  0.1835  0.4259
14536TIP3    H165099   4.346   1.765  11.505  1.4602  0.2540 -0.6578
14536TIP3    H265100   4.296   1.823  11.374 -1.2768  0.1444  0.2800
14537TIP3   OH265101   4.177   2.056  10.870 -0.3647 -0.0269 -0.0033
14537TIP3    H165102   4.255   2.004  10.851 -1.3266 -1.4351 -0.2002
14537TIP3    H265103   4.211   2.145  10.884  1.3553 -0.7432  0.6658
14538TIP3   OH265104   3.074   4.207   5.768  0.3426 -0.0058  0.2230
14538TIP3    H165105   3.114   4.226   5.683  0.5674 -0.5015  0.2165
14538TIP3    H265106   3.142   4.228   5.832 -0.7428  3.2109  0.5188
14539TIP3   OH265107   1.338   1.964  14.754  0.3782  0.5873 -0.0866
14539TIP3    H165108   1.342   1.954  14.659  1.0289 -0.7520  0.0659
14539TIP3    H265109   1.247   1.989  14.772 -0.4902 -1.8394 -0.8386
14540TIP3   OH265110   6.246   6.283   6.666 -0.0133  0.2612  0.3951
14540TIP3    H165111   6.185   6.297   6.738  1.4448  0.0864  1.7141
14540TIP3    H265112   6.330   6.265   6.708  1.0723  0.9408 -1.3476
14541TIP3   OH265113   2.460   6.803   3.892  0.1406  0.1887 -0.0381
14541TIP3    H165114   2.427   6.854   3.966  0.4934 -1.1507  1.0922
14541TIP3    H265115   2.421   6.716   3.904 -0.2533  0.0941 -1.7615
14542TIP3   OH265116   2.155   0.612  16.729 -0.3323  0.1085 -0.7248
14542TIP3    H165117   2.079   0.654  16.691 -1.7821 -1.9142 -0.2341
14542TIP3    H265118   2.119   0.545  16.788  1.8220 -0.5329 -0.0306
14543TIP3   OH265119   1.572   4.251   4.077  0.3933 -0.1103  0.2526
14543TIP3    H165120   1.595   4.164   4.109 -1.6215 -0.3536  1.1697
14543TIP3    H265121   1.480   4.244   4.051  0.2303  1.7104  0.1918
14544TIP3   OH265122   0.183   3.893   3.225 -0.5342 -0.0971 -0.0547
14544TIP3    H165123   0.224   3.819   3.270 -1.1889 -0.3523  0.1373
14544TIP3    H265124   0.221   3.970   3.265  0.7667 -0.3168 -0.8110
14545TIP3   OH265125   0.196   4.999  11.162 -0.5616 -0.7088 -0.1326
14545TIP3    H165126   0.178   4.908  11.186 -1.3226 -0.6751 -0.5450
14545TIP3    H265127   0.177   5.003  11.068  0.6668 -0.4158 -0.3856
14546TIP3   OH265128   1.439   4.698   4.979  0.0775  0.2121 -0.7787
14546TIP3    H165129   1.458   4.616   5.025 -1.7561  0.7390  1.0609
14546TIP3    H265130   1.503   4.760   5.015  0.0785  0.0873 -0.5580
14547TIP3   OH265131   0.376   2.362   3.785 -0.0301  0.0076  0.7876
14547TIP3    H165132   0.293   2.333   3.823  0.2155  0.7987  1.9749
14547TIP3    H265133   0.366   2.456   3.774 -0.4948 -0.2989 -2.2058
14548TIP3   OH265134   0.935   6.540  15.168 -0.4871  0.1414 -0.0628
14548TIP3    H165135   0.966   6.607  15.107  1.0191 -1.2504 -0.9128
14548TIP3    H265136   0.843   6.560  15.182 -0.9118  0.4993 -2.8470
14549TIP3   OH265137   6.393   2.597  10.690  0.3477 -0.0553  0.1556
14549TIP3    H165138   6.378   2.535  10.619  0.1473  0.6190 -0.4024
14549TIP3    H265139   6.487   2.615  10.686  0.2293  0.4612 -0.3457
14550TIP3   OH265140   3.416   6.473  10.775  0.2727 -0.2968 -0.1437
14550TIP3    H165141   3.492   6.426  10.807  0.7749 -1.3597 -2.6370
14550TIP3    H265142   3.341   6.425  10.810  0.7866 -1.3550 -0.4700
14551TIP3   OH265143   5.039   0.198  14.025 -0.7154 -0.2552  0.0607
14551TIP3    H165144   5.102   0.246  14.078 -0.2597 -0.7993  0.0164
14551TIP3    H265145   5.090   0.163  13.952 -1.5152  1.4056 -1.3749
14552TIP3   OH265146   3.761   5.994  17.157 -0.1912 -0.5160  0.0814
14552TIP3    H165147   3.720   5.919  17.200 -0.5298 -0.6145 -0.4053
14552TIP3    H265148   3.698   6.021  17.091  0.1317 -0.0887 -0.0556
14553TIP3   OH265149   5.622   4.728   2.037  0.1779  0.3307  0.1907
14553TIP3    H165150   5.713   4.757   2.043  0.2742 -0.1036  1.0631
14553TIP3    H265151   5.612   4.695   1.948  0.4507  1.7243 -0.3871
14554TIP3   OH265152   0.796   3.896   0.695 -0.7173  0.8896 -0.0126
14554TIP3    H165153   0.803   3.988   0.669  0.0500  0.8572  0.0672
14554TIP3    H265154   0.828   3.894   0.785 -1.0660  0.5983  0.1066
14555TIP3   OH265155   3.091   3.496   0.561  0.5043  0.7462  0.1821
14555TIP3    H165156   3.064   3.574   0.513 -0.2699 -0.8806 -2.2045
14555TIP3    H265157   3.133   3.440   0.495  0.8045 -0.9635  1.7446
14556TIP3   OH265158   6.679   3.202  16.410  0.5233  0.6514 -0.5344
14556TIP3    H165159   6.639   3.213  16.324 -0.9830  0.5700  0.1075
14556TIP3    H265160   6.612   3.234  16.471  1.7089  1.0773  0.5868
14557TIP3   OH265161   1.696   6.671   1.894 -0.3869  0.1613  0.0225
14557TIP3    H165162   1.734   6.728   1.961  1.9788  0.1750 -1.2411
14557TIP3    H265163   1.771   6.630   1.851 -1.8990 -1.3449 -1.3471
14558TIP3   OH265164   6.551   6.242   2.161 -0.5052 -0.0604 -0.0873
14558TIP3    H165165   6.459   6.222   2.176 -0.5184 -0.3849 -0.5682
14558TIP3    H265166   6.567   6.215   2.070  0.9037 -3.0805  0.9448
14559TIP3   OH265167   1.174   0.491  13.911 -0.2824 -0.6055  0.4828
14559TIP3    H165168   1.192   0.411  13.961 -1.5988 -2.1578 -1.3843
14559TIP3    H265169   1.080   0.504  13.920 -0.5924 -1.0463 -1.6767
14560TIP3   OH265170   5.107   2.670   3.170 -0.3481  0.2061 -0.4095
14560TIP3    H165171   5.125   2.637   3.081 -2.1000 -0.4789 -0.5529
14560TIP3    H265172   5.017   2.641   3.188  1.0087 -2.7038  2.9261
14561TIP3   OH265173   4.600   3.415   2.133 -0.1013  0.4095 -0.2174
14561TIP3    H165174   4.553   3.433   2.051  1.6891 -0.9536 -1.6377
14561TIP3    H265175   4.679   3.469   2.127  1.0591 -1.2327 -0.4235
14562TIP3   OH265176   1.243   0.912  12.123 -0.0067 -0.7983 -0.0751
14562TIP3    H165177   1.315   0.951  12.072 -0.5709 -0.3524 -0.5444
14562TIP3    H265178   1.286   0.872  12.198  0.8123 -1.1198 -0.6943
14563TIP3   OH265179   3.784   6.028  12.644 -0.0667 -0.0871 -0.0610
14563TIP3    H165180   3.808   6.113  12.680 -0.2422 -0.9523  2.2321
14563TIP3    H265181   3.691   6.020  12.662 -0.4166 -0.1588 -1.6814
14564TIP3   OH265182   2.252   0.146   4.894  0.6607 -0.4957 -0.9916
14564TIP3    H165183   2.260   0.107   4.981  0.3307 -0.9396 -1.1602
14564TIP3    H265184   2.314   0.098   4.839 -0.2867 -1.3024 -1.3768
14565TIP3   OH265185   1.720   4.116  15.786  0.5279  0.2635  0.3563
14565TIP3    H165186   1.647   4.149  15.838 -1.2155 -1.8874 -0.5641
14565TIP3    H265187   1.679   4.070  15.713  2.7809 -1.5144  0.1024
14566TIP3   OH265188   1.391   4.831   4.173  0.6119  0.5210  0.5401
14566TIP3    H165189   1.416   4.814   4.082 -0.8698  0.5981  0.0811
14566TIP3    H265190   1.437   4.912   4.196  0.5672  0.8157 -0.3479
14567TIP3   OH265191   2.634   1.240  12.125  0.3948  0.4148 -0.2384
14567TIP3    H165192   2.644   1.255  12.219  1.3025  1.8366 -0.5266
14567TIP3    H265193   2.584   1.316  12.094  2.4485  1.4146 -1.2938
14568TIP3   OH265194   5.782   0.479   6.256 -0.2491  0.1363  0.2377
14568TIP3    H165195   5.794   0.549   6.321 -1.2895 -0.4440  1.0859
14568TIP3    H265196   5.689   0.481   6.235  0.1511  0.6059 -1.6141
14569TIP3   OH265197   1.725   2.054  10.778 -0.0184 -0.0910 -0.0638
14569TIP3    H165198   1.788   2.001  10.729 -0.1097  0.3674 -0.6899
14569TIP3    H265199   1.760   2.143  10.775  1.3030 -0.3967  2.8788
14570TIP3   OH265200   5.964   2.974  14.658  0.3013 -0.1585  0.7083
14570TIP3    H165201   5.997   2.929  14.580  0.1898  0.4068  0.3322
14570TIP3    H265202   5.881   2.930  14.677  0.6389 -0.7273  0.8960
14571TIP3   OH265203   3.142   1.107  13.721  0.3539  0.1760  0.7129
14571TIP3    H165204   3.200   1.183  13.728  0.3305  0.7395 -3.0801
14571TIP3    H265205   3.201   1.032  13.712  0.4334  0.2410  0.6992
14572TIP3   OH265206   6.403   3.144  12.864 -0.1321  0.0206  0.1912
14572TIP3    H165207   6.344   3.185  12.927  0.0796  1.0823 -0.2798
14572TIP3    H265208   6.406   3.051  12.890 -1.3581  0.1110  0.7007
14573TIP3   OH265209   1.768   6.033  11.483  0.1437  0.5188 -0.0160
14573TIP3    H165210   1.814   5.949  11.481 -2.5304 -1.1464  1.4775
14573TIP3    H265211   1.761   6.054  11.577 -1.7759  0.8189 -0.1758
14574TIP3   OH265212   6.011   0.948   2.550 -0.2896  0.1647 -0.0277
14574TIP3    H165213   5.929   0.979   2.512  0.1613  1.9761  0.3777
14574TIP3    H265214   5.985   0.880   2.611 -1.3144 -0.5352 -1.2005
14575TIP3   OH265215   1.981   3.623   3.201  0.0277  0.3603 -0.4569
14575TIP3    H165216   1.999   3.580   3.117  0.9752 -1.7273  0.7273
14575TIP3    H265217   1.900   3.582   3.232  0.3691  0.1497  0.2007
14576TIP3   OH265218   1.183   6.357   3.244 -0.1326  0.1626  0.2965
14576TIP3    H165219   1.202   6.264   3.228 -3.2041 -0.4350 -0.4769
14576TIP3    H265220   1.132   6.357   3.325  2.2267  1.5697  1.9041
14577TIP3   OH265221   0.890   4.917   4.744  0.0524 -0.2494 -0.3477
14577TIP3    H165222   0.894   4.935   4.838  1.4452 -0.3692 -0.3695
14577TIP3    H265223   0.857   4.827   4.738 -2.9612  0.7005 -0.1206
14578TIP3   OH265224   1.650   2.286  16.766 -0.5014  0.1981 -0.8276
14578TIP3    H165225   1.703   2.230  16.709 -0.8917 -0.4608 -0.5520
14578TIP3    H265226   1.593   2.334  16.706  0.4068  0.9315 -1.1296
14579TIP3   OH265227   1.054   0.097   0.604  0.0998  0.1615  0.4981
14579TIP3    H165228   0.977   0.107   0.659  0.9194 -0.9998  1.9348
14579TIP3    H265229   1.119   0.055   0.661  0.4046 -2.9314 -1.8428
14580TIP3   OH265230   6.630   0.279  13.568  0.5437  0.2532 -0.0310
14580TIP3    H165231   6.633   0.200  13.622  0.4893  0.4950  0.3362
14580TIP3    H265232   6.719   0.288  13.533  0.8812  0.6780  0.8899
14581TIP3   OH265233   5.261   5.129  11.249  0.0536  0.4836 -0.0032
14581TIP3    H165234   5.168   5.112  11.234  0.1099 -0.0239  0.2019
14581TIP3    H265235   5.283   5.200  11.189 -0.4410  0.5278 -0.1312
14582TIP3   OH265236   3.723   5.443   3.546  0.1290  0.4977 -0.0731
14582TIP3    H165237   3.666   5.509   3.506  0.0156  1.6243  1.8192
14582TIP3    H265238   3.812   5.471   3.524  0.0578  0.7622 -0.0236
14583TIP3   OH265239   3.717   6.203  15.260  0.2158  0.0016  0.1557
14583TIP3    H165240   3.713   6.298  15.253 -0.0605  0.0000  0.2846
14583TIP3    H265241   3.804   6.185  15.295  0.6130  0.1555 -0.7236
14584TIP3   OH265242   2.232   2.051   3.004  0.3663 -0.7318 -0.0562
14584TIP3    H165243   2.229   2.059   3.099 -1.5453 -0.7409 -0.0795
14584TIP3    H265244   2.141   2.036   2.978  0.5767  0.9886 -2.0446
14585TIP3   OH265245   4.698   5.927  16.206 -0.0902  0.1335  0.0346
14585TIP3    H165246   4.749   5.880  16.271 -0.4715 -0.2446  0.0635
14585TIP3    H265247   4.691   5.868  16.132  1.0871  0.8982 -0.7140
14586TIP3   OH265248   6.533   5.402   3.834  0.4104  0.3895  0.6629
14586TIP3    H165249   6.521   5.479   3.779  1.0576  1.4513  1.9369
14586TIP3    H265250   6.623   5.373   3.815 -0.2403 -0.8503 -0.7313
14587TIP3   OH265251   1.298   2.545   6.146 -0.5216  0.6801 -0.4473
14587TIP3    H165252   1.358   2.509   6.082 -0.2030  0.7382 -0.1816
14587TIP3    H265253   1.215   2.499   6.130  0.2216 -1.1789  0.7641
14588TIP3   OH265254   5.474   6.718   6.044  0.1373 -1.1181 -0.8695
14588TIP3    H165255   5.434   6.729   5.958  0.1312  0.6298 -0.6883
14588TIP3    H265256   5.563   6.752   6.034 -0.4984  1.1448  0.2565
14589TIP3   OH265257   4.849   5.931  12.928 -0.4202  0.3959 -0.2929
14589TIP3    H165258   4.771   5.883  12.955  0.5569  0.2574  2.7074
14589TIP3    H265259   4.828   6.022  12.944  0.3656  0.2734  1.8491
14590TIP3   OH265260   6.756   0.077   0.695 -0.4543 -0.2771  0.3959
14590TIP3    H165261   6.663   0.100   0.696 -0.2851  0.6622 -1.3671
14590TIP3    H265262   6.781   0.081   0.603  0.8336 -2.7206  0.5450
14591TIP3   OH265263   6.379   4.035  12.082  0.3541 -0.3031  0.3998
14591TIP3    H165264   6.367   4.014  12.175 -0.3467  1.4718  0.7596
14591TIP3    H265265   6.301   4.001  12.039 -1.1963  2.1290  1.1072
14592TIP3   OH265266   4.155   3.905  13.689 -0.3648 -0.0463 -0.6186
14592TIP3    H165267   4.081   3.901  13.629  1.8138  2.8703 -3.8879
14592TIP3    H265268   4.226   3.858  13.644  0.6597 -0.0759  0.9313
14593TIP3   OH265269   1.696   2.483   4.429  0.1103 -0.1796 -0.1356
14593TIP3    H165270   1.781   2.439   4.415  0.0390 -0.0123 -1.1856
14593TIP3    H265271   1.662   2.443   4.509  0.7565 -0.9298 -0.2157
14594TIP3   OH265272   3.954   3.553   6.827  0.1453  0.9265  0.3343
14594TIP3    H165273   4.036   3.556   6.777  0.8112 -2.5109  1.0203
14594TIP3    H265274   3.978   3.582   6.915  0.9450 -1.0631  0.8158
14595TIP3   OH265275   1.599   4.557  12.722 -0.0565 -0.4077 -0.2324
14595TIP3    H165276   1.572   4.635  12.771 -1.9311 -1.4206  0.4410
14595TIP3    H265277   1.552   4.562  12.639 -0.0690 -0.7481 -0.2494
14596TIP3   OH265278   4.951   2.538   3.836 -0.4493  0.0940  0.2683
14596TIP3    H165279   4.926   2.546   3.744  1.5832  2.3765 -0.2020
14596TIP3    H265280   4.869   2.525   3.882 -1.6906  0.3038 -1.7502
14597TIP3   OH265281   4.579   1.330  13.572  0.1971 -0.3319 -0.0888
14597TIP3    H165282   4.545   1.296  13.490  0.9368  0.0895 -0.5796
14597TIP3    H265283   4.501   1.359  13.620 -0.0866  3.6006 -2.5085
14598TIP3   OH265284   2.582   0.393   1.488 -0.3454  0.1089  0.7291
14598TIP3    H165285   2.622   0.386   1.575 -0.3869 -2.1332  0.6254
14598TIP3    H265286   2.569   0.302   1.460  0.3941  0.7607 -1.9798
14599TIP3   OH265287   4.245   2.461   2.096  0.1519 -0.0105 -0.1025
14599TIP3    H165288   4.165   2.504   2.125  0.8074  0.3133  1.3036
14599TIP3    H265289   4.315   2.503   2.145  1.0236 -1.3410 -0.1417
14600TIP3   OH265290   4.438   3.681   5.246  0.2582  0.3390 -0.8442
14600TIP3    H165291   4.488   3.606   5.211  0.9873  0.5201 -0.2248
14600TIP3    H265292   4.399   3.647   5.327 -0.5858  0.2215 -1.2882
14601TIP3   OH265293   3.526   1.218  17.228 -0.0353  0.0999 -0.0760
14601TIP3    H165294   3.610   1.246  17.191 -0.8394  1.9572 -0.5622
14601TIP3    H265295   3.465   1.220  17.155 -0.7789 -0.0572  0.5285
14602TIP3   OH265296   0.259   0.707  16.721 -0.0653 -0.4104  0.0551
14602TIP3    H165297   0.271   0.678  16.811 -0.3895  0.7554  0.4987
14602TIP3    H265298   0.241   0.801  16.728  0.5899 -0.1558 -1.2767
14603TIP3   OH265299   2.849   0.122  15.383  0.1683 -0.1737 -0.4699
14603TIP3    H165300   2.780   0.156  15.439  0.3664  0.2393 -0.4739
14603TIP3    H265301   2.930   0.158  15.419  0.2255  0.8486 -1.5458
14604TIP3   OH265302   2.067   6.001  16.488  0.6248  0.0820 -0.2976
14604TIP3    H165303   1.997   6.063  16.506  0.3684 -0.3544  0.2308
14604TIP3    H265304   2.083   6.011  16.394  1.6383  2.0212  0.0370
14605TIP3   OH265305   1.734   0.618  12.138  0.7331 -0.7271  0.7191
14605TIP3    H165306   1.746   0.700  12.090  1.1669 -1.2095 -0.0087
14605TIP3    H265307   1.698   0.645  12.223  0.6662  0.1943  0.4066
14606TIP3   OH265308   1.438   4.141  14.525 -0.7016  0.9356  0.5237
14606TIP3    H165309   1.478   4.070  14.575 -0.0423  1.5422  0.8764
14606TIP3    H265310   1.386   4.096  14.458  2.0494  0.0320 -1.2120
14607TIP3   OH265311   4.514   0.527   2.453 -0.3500 -0.7081  0.0311
14607TIP3    H165312   4.514   0.564   2.364  0.2535 -0.3934  0.1572
14607TIP3    H265313   4.428   0.552   2.489 -0.8707 -1.4103 -0.6902
14608TIP3   OH265314   4.853   2.377   1.097  0.5898  0.0127  0.1829
14608TIP3    H165315   4.898   2.299   1.129  1.6631  0.5580  0.0215
14608TIP3    H265316   4.791   2.399   1.167  0.7119 -0.6234  0.4965
14609TIP3   OH265317   4.117   5.093  11.843 -0.0707  0.9112 -0.2334
14609TIP3    H165318   4.102   5.112  11.936  1.3238  0.0445  0.2074
14609TIP3    H265319   4.030   5.080  11.807 -0.7276  2.5416  0.6468
14610TIP3   OH265320   5.883   1.386  10.986 -0.1140  0.1928  0.2771
14610TIP3    H165321   5.836   1.467  10.965  1.4934  0.9696 -0.4280
14610TIP3    H265322   5.967   1.394  10.943  0.4246 -1.4986  0.9102
14611TIP3   OH265323   0.323   5.981  11.914  0.1696 -0.0021 -0.4026
14611TIP3    H165324   0.273   6.063  11.924  0.9557  0.2790  1.7127
14611TIP3    H265325   0.414   6.007  11.925  0.4750 -1.0974 -0.2584
14612TIP3   OH265326   2.215   1.085  17.056 -0.0325  0.8189  0.0754
14612TIP3    H165327   2.310   1.093  17.066  0.0228  0.3780 -0.0691
14612TIP3    H265328   2.180   1.107  17.142  0.1382  1.8977 -0.1039
14613TIP3   OH265329   3.527   5.416   4.366  0.5437 -0.4124 -0.7457
14613TIP3    H165330   3.552   5.505   4.391  3.4260 -0.9158 -1.4325
14613TIP3    H265331   3.513   5.420   4.272 -0.3174 -0.5150 -0.6330
14614TIP3   OH265332   4.024   3.852   2.717 -0.0521  0.3193 -0.6648
14614TIP3    H165333   4.007   3.879   2.626 -1.2290  0.6661 -0.3604
14614TIP3    H265334   4.030   3.934   2.765  1.5377  0.1726 -0.5619
14615TIP3   OH265335   2.460   2.815  11.661  0.1347  0.3498  0.1856
14615TIP3    H165336   2.530   2.785  11.719 -0.8904  0.1056  1.3393
14615TIP3    H265337   2.455   2.909  11.677 -0.2863  0.2503  0.6704
14616TIP3   OH265338   1.343   4.524  16.260  0.1606  0.1818 -0.4590
14616TIP3    H165339   1.409   4.455  16.257  0.7442  0.5684  1.7313
14616TIP3    H265340   1.340   4.550  16.352 -2.4515  0.7681 -0.6336
14617TIP3   OH265341   2.667   0.430   1.185 -0.4637 -0.1693  0.3255
14617TIP3    H165342   2.749   0.396   1.147 -1.6098 -1.3907 -1.2358
14617TIP3    H265343   2.668   0.399   1.275  0.5671 -0.6234  0.1805
14618TIP3   OH265344   0.743   1.818  14.445 -0.2732  0.7853 -0.9182
14618TIP3    H165345   0.781   1.749  14.500 -0.1040  1.2398 -0.4552
14618TIP3    H265346   0.649   1.800  14.445 -0.1399 -0.0076 -1.5946
14619TIP3   OH265347   3.524   1.287  14.510  0.4542  0.2069 -0.7889
14619TIP3    H165348   3.619   1.280  14.502  0.6191  2.3716 -1.3412
14619TIP3    H265349   3.509   1.376  14.541 -1.3481 -0.6769  1.1202
14620TIP3   OH265350   6.547   5.708   4.160  0.4964 -0.0539  0.1645
14620TIP3    H165351   6.523   5.615   4.161 -1.1488  0.2747  3.2648
14620TIP3    H265352   6.479   5.750   4.109 -0.0080 -0.3225  0.6064
14621TIP3   OH265353   5.016   5.147  14.913 -0.6153  0.1155 -0.1221
14621TIP3    H165354   4.985   5.184  14.830 -1.1144  0.6922  0.3175
14621TIP3    H265355   4.943   5.094  14.945 -0.0487 -0.9543 -0.5501
14622TIP3   OH265356   5.080   4.038  14.912  0.7445 -0.4357 -0.0100
14622TIP3    H165357   5.165   3.996  14.928  0.9602 -0.0078 -0.0328
14622TIP3    H265358   5.024   3.967  14.881  1.3814 -0.5241 -0.9777
14623TIP3   OH265359   0.837   5.848  14.594  0.2372  0.4125 -0.5258
14623TIP3    H165360   0.922   5.829  14.554 -0.5261  1.6994 -2.9922
14623TIP3    H265361   0.843   5.940  14.619 -0.0618  0.1997  0.3497
14624TIP3   OH265362   4.903   0.623  17.176 -0.0858  0.6110  0.5353
14624TIP3    H165363   4.909   0.545  17.120 -1.8096  2.2101 -2.1406
14624TIP3    H265364   4.929   0.593  17.263 -0.8755 -2.9781 -0.3132
14625TIP3   OH265365   0.483   3.599   4.373  0.0697  0.3729 -0.3759
14625TIP3    H165366   0.480   3.601   4.278 -0.0926  1.0210 -0.3609
14625TIP3    H265367   0.519   3.685   4.398 -1.5861  0.9342  0.2030
14626TIP3   OH265368   5.968   2.797   3.035 -0.4938  0.0191  0.0471
14626TIP3    H165369   5.954   2.849   2.955  1.2559  1.3111  0.5179
14626TIP3    H265370   6.027   2.726   3.007 -0.6169 -0.0621 -0.0051
14627TIP3   OH265371   2.641   4.477   3.125 -0.0430 -0.1589  0.5295
14627TIP3    H165372   2.619   4.558   3.080 -0.6160 -0.5487  0.0926
14627TIP3    H265373   2.621   4.494   3.217 -0.4417  0.1035  0.3974
14628TIP3   OH265374   4.174   3.388  13.758 -0.3218  0.4747 -0.5462
14628TIP3    H165375   4.123   3.325  13.809 -1.4882  1.7426 -0.1095
14628TIP3    H265376   4.111   3.426  13.697 -0.0739  2.5253  0.4191
14629TIP3   OH265377   6.135   4.441  11.342  0.0002 -0.5739  0.6407
14629TIP3    H165378   6.152   4.389  11.420 -1.9129 -2.4879 -0.0997
14629TIP3    H265379   6.043   4.466  11.349  0.1591  0.4036 -0.3681
14630TIP3   OH265380   4.132   5.805   4.117 -0.7187 -0.1271 -0.3354
14630TIP3    H165381   4.222   5.837   4.117  0.1664 -2.2562 -2.7295
14630TIP3    H265382   4.096   5.833   4.033 -1.7111 -0.6776 -0.1075
14631TIP3   OH265383   2.815   3.135   3.108  0.0278  0.4439  0.7106
14631TIP3    H165384   2.889   3.175   3.154 -0.3256 -1.5000  3.2209
14631TIP3    H265385   2.745   3.133   3.173 -1.5937  0.3697 -0.9604
14632TIP3   OH265386   6.664   1.716  16.391  0.1236 -0.5136  0.2761
14632TIP3    H165387   6.747   1.751  16.358 -0.5695  1.7217  0.7641
14632TIP3    H265388   6.600   1.784  16.373 -1.2430 -1.3818  1.6402
14633TIP3   OH265389   6.064   6.130  15.526 -0.2492 -0.0857  0.2816
14633TIP3    H165390   6.089   6.147  15.435 -0.3161  1.9579  0.5853
14633TIP3    H265391   5.988   6.072  15.520 -1.0653  1.0405 -1.0601
14634TIP3   OH265392   4.484   1.027  13.738  0.1731 -0.2271 -0.4562
14634TIP3    H165393   4.511   0.979  13.659  1.3860  1.4790 -1.1353
14634TIP3    H265394   4.395   1.056  13.719  0.2976 -0.2026 -1.0364
14635TIP3   OH265395   1.374   5.312  16.777  0.2973  0.2781 -0.3569
14635TIP3    H165396   1.324   5.304  16.696  1.0584  0.0888 -0.8122
14635TIP3    H265397   1.425   5.393  16.767 -0.3094  0.7626  0.3301
14636TIP3   OH265398   0.731   4.693   5.157  0.1490 -0.0392 -0.4905
14636TIP3    H165399   0.646   4.712   5.196  0.0376 -1.1008 -0.2103
14636TIP3    H265400   0.795   4.728   5.220 -0.0592  0.0152 -0.3091
14637TIP3   OH265401   0.112   6.378   5.252 -0.2617  0.4413 -0.1753
14637TIP3    H165402   0.039   6.435   5.230 -1.6256 -1.1296  0.0238
14637TIP3    H265403   0.083   6.331   5.331 -0.2336 -2.1298 -1.5623
14638TIP3   OH265404   2.891   1.459  12.704 -0.1573  0.1014 -0.3981
14638TIP3    H165405   2.962   1.395  12.707  0.7736  1.1439  1.0193
14638TIP3    H265406   2.842   1.436  12.625  2.9324  0.5652 -2.6372
14639TIP3   OH265407   3.057   2.417  14.528 -0.0687  0.0218 -0.4126
14639TIP3    H165408   3.046   2.498  14.478  2.4822  0.4383 -0.4575
14639TIP3    H265409   3.042   2.443  14.619  1.2103  0.7087 -0.3714
14640TIP3   OH265410   6.379   6.504  16.275  0.1896 -0.2517 -0.3836
14640TIP3    H165411   6.377   6.501  16.179  1.5335  0.6919 -0.4569
14640TIP3    H265412   6.448   6.442  16.299  0.0144 -0.3106 -0.0360
14641TIP3   OH265413   3.167   1.700  11.270 -0.4062  0.6502  0.2949
14641TIP3    H165414   3.208   1.653  11.343 -0.3053 -0.4564 -0.4466
14641TIP3    H265415   3.228   1.688  11.197 -0.3172  2.0765  0.1148
14642TIP3   OH265416   5.569   3.600   3.772  0.5879  0.1046 -0.6499
14642TIP3    H165417   5.537   3.518   3.810  1.3268  0.1502  0.0734
14642TIP3    H265418   5.537   3.668   3.831 -0.0833  0.3682 -1.2870
14643TIP3   OH265419   4.662   6.716  14.387 -0.3816  0.1803  0.8558
14643TIP3    H165420   4.606   6.778  14.432  1.6392  1.5556  1.5743
14643TIP3    H265421   4.701   6.766  14.315 -1.3057 -1.2040 -0.6816
14644TIP3   OH265422   1.408   0.744   0.139 -0.0963 -0.1801  0.0782
14644TIP3    H165423   1.439   0.818   0.190 -1.2307  0.7989 -0.6115
14644TIP3    H265424   1.421   0.770   0.048  2.8685 -2.3075 -0.2491
14645TIP3   OH265425   4.871   2.705   5.712 -0.0945  0.1237  1.1448
14645TIP3    H165426   4.778   2.698   5.735 -0.9098 -3.5608 -2.1298
14645TIP3    H265427   4.890   2.624   5.665  4.2111  1.7081 -0.3235
14646TIP3   OH265428   3.922   3.179  11.278 -0.2031  0.3339  0.1805
14646TIP3    H165429   3.958   3.197  11.365  0.0265  1.2787 -0.1063
14646TIP3    H265430   3.990   3.207  11.217 -0.8424  0.7920 -0.3277
14647TIP3   OH265431   6.227   6.204   3.687  0.5432 -0.0065 -0.5148
14647TIP3    H165432   6.222   6.114   3.653 -2.3262 -0.0783 -0.1770
14647TIP3    H265433   6.301   6.243   3.641  0.5316 -1.9108 -2.2984
14648TIP3   OH265434   1.605   4.660  16.727  0.9368  0.0004  0.1660
14648TIP3    H165435   1.672   4.728  16.736  1.0505 -0.1031  0.0937
14648TIP3    H265436   1.566   4.653  16.815  0.2101  0.8949 -0.0664
14649TIP3   OH265437   5.708   1.976  16.719 -0.0348  0.6095 -1.0826
14649TIP3    H165438   5.656   1.946  16.794  1.0658  0.3116 -0.4137
14649TIP3    H265439   5.656   2.045  16.679 -0.3203  1.2981  0.4123
14650TIP3   OH265440   6.074   1.409  14.102 -0.7742  0.0508  0.3301
14650TIP3    H165441   6.080   1.446  14.015 -2.3027 -0.9614 -0.2403
14650TIP3    H265442   6.009   1.462  14.147  0.4697  0.9818  1.1243
14651TIP3   OH265443   4.774   6.134   0.153  0.3669 -0.4159  0.3315
14651TIP3    H165444   4.778   6.120   0.247  1.6148 -2.7460  0.0053
14651TIP3    H265445   4.680   6.138   0.133  0.0824 -0.7471  1.5530
14652TIP3   OH265446   3.140   0.294  15.401 -0.3811  0.1848 -0.0987
14652TIP3    H165447   3.223   0.286  15.447 -0.3542 -0.3988 -0.2357
14652TIP3    H265448   3.091   0.360  15.450 -0.3872 -0.4776  0.8240
14653TIP3   OH265449   3.602   5.919  15.413 -0.1439 -0.5145 -0.4328
14653TIP3    H165450   3.558   5.838  15.440 -1.7080  0.8258  1.2678
14653TIP3    H265451   3.691   5.892  15.389  0.4136 -2.3519  3.0856
14654TIP3   OH265452   2.892   3.855  16.461 -0.4395  0.3065 -0.4014
14654TIP3    H165453   2.963   3.916  16.478  0.1150  0.1833 -2.1521
14654TIP3    H265454   2.890   3.799  16.539  1.8053 -0.0761 -0.5555
14655TIP3   OH265455   0.225   4.898   2.928  0.1150 -0.1663 -0.0206
14655TIP3    H165456   0.258   4.811   2.910 -1.5852 -0.7687 -0.3821
14655TIP3    H265457   0.150   4.908   2.870 -0.1603  1.2532  0.5360
14656TIP3   OH265458   1.815   4.109  11.597  0.3826 -0.1003 -0.0603
14656TIP3    H165459   1.758   4.106  11.520  1.5882  1.5423 -1.0707
14656TIP3    H265460   1.894   4.154  11.567  2.1508 -2.0352  1.3652
14657TIP3   OH265461   5.946   3.565   4.952  0.5195  0.8091  0.3818
14657TIP3    H165462   5.944   3.540   5.044  0.4717 -0.5244  0.0384
14657TIP3    H265463   6.037   3.590   4.936  1.8528 -3.6448 -0.3248
14658TIP3   OH265464   6.412   2.334  11.944  1.3312  0.0907 -0.5010
14658TIP3    H165465   6.332   2.285  11.963 -0.9026  3.4404 -0.3471
14658TIP3    H265466   6.449   2.354  12.030  2.0305 -0.9147 -0.5511
14659TIP3   OH265467   1.045   5.315   0.116  0.2878  0.1683  0.3726
14659TIP3    H165468   1.104   5.339   0.045  0.5593  0.2570  0.6281
14659TIP3    H265469   1.102   5.279   0.184 -0.0938 -1.1292  0.0405
14660TIP3   OH265470   3.730   2.870   5.693 -0.2346  0.0624  0.2837
14660TIP3    H165471   3.800   2.934   5.685 -0.4373  0.0310 -2.4030
14660TIP3    H265472   3.673   2.886   5.618 -1.4519 -1.8920  0.7140
14661TIP3   OH265473   5.225   3.343  15.917  0.1303 -0.3174 -0.0522
14661TIP3    H165474   5.291   3.348  15.847 -0.6441  0.2702 -0.7617
14661TIP3    H265475   5.199   3.434  15.932 -0.1877 -0.5023  0.5499
14662TIP3   OH265476   2.835   1.691   4.353  0.0144 -0.0655 -0.1599
14662TIP3    H165477   2.835   1.688   4.449  0.4369 -2.0677 -0.1679
14662TIP3    H265478   2.744   1.679   4.328 -0.3944  2.3203 -0.0535
14663TIP3   OH265479   4.432   4.508  12.874 -0.5703  0.0413 -0.2814
14663TIP3    H165480   4.481   4.556  12.807  0.7330 -1.2534 -0.2980
14663TIP3    H265481   4.475   4.533  12.956 -1.0887  0.3170 -0.0867
14664TIP3   OH265482   0.861   4.448  15.134 -0.5104  0.0574 -0.1130
14664TIP3    H165483   0.828   4.480  15.050 -2.2955  0.4295  0.6845
14664TIP3    H265484   0.790   4.394  15.169 -1.0248  2.1504  2.4050
14665TIP3   OH265485   6.134   6.221   5.595 -0.1575  0.4703 -0.1675
14665TIP3    H165486   6.102   6.285   5.531 -1.0499  0.6425  0.4351
14665TIP3    H265487   6.090   6.245   5.676 -1.4521 -1.6384 -0.1743
14666TIP3   OH265488   0.473   1.675   2.451 -0.4143 -0.0865  0.0773
14666TIP3    H165489   0.414   1.637   2.387  0.3017 -0.8420 -0.1476
14666TIP3    H265490   0.481   1.608   2.519  2.5505 -1.3680 -1.3477
14667TIP3   OH265491   5.115   2.387  12.211  0.1342 -0.4628  0.5203
14667TIP3    H165492   5.048   2.455  12.215  0.1946 -0.4458  1.6261
14667TIP3    H265493   5.095   2.329  12.285  1.9175  0.1154  1.5085
14668TIP3   OH265494   0.033   2.068  16.424  0.6033  0.1839  0.1079
14668TIP3    H165495   0.097   2.007  16.387 -1.2390 -2.6940  1.3757
14668TIP3    H265496   0.003   2.119  16.348  0.4229 -2.2225 -1.5490
14669TIP3   OH265497   3.277   5.293  13.004 -0.2270  0.8369 -0.6621
14669TIP3    H165498   3.251   5.243  12.927  0.0122  2.6488 -1.9693
14669TIP3    H265499   3.357   5.250  13.034 -1.3753 -1.0850 -0.2015
14670TIP3   OH265500   3.107   1.792   0.843 -0.2535 -0.1462 -0.2268
14670TIP3    H165501   3.178   1.814   0.903 -0.5951 -0.1786  0.2000
14670TIP3    H265502   3.138   1.715   0.795 -0.5838 -1.1140  1.0319
14671TIP3   OH265503   4.591   2.924   0.714 -0.0992  0.0103 -0.1032
14671TIP3    H165504   4.539   3.004   0.708 -0.7914 -0.5037 -1.2631
14671TIP3    H265505   4.537   2.857   0.672  1.0984 -0.7400 -0.5009
14672TIP3   OH265506   0.093   0.692   1.825 -0.4612  0.2871 -0.5871
14672TIP3    H165507   0.135   0.766   1.781 -0.1031 -0.1210 -0.9439
14672TIP3    H265508   0.040   0.651   1.758  3.8345 -3.3222 -2.2637
14673TIP3   OH265509   2.981   2.693  16.037  0.5555  0.5560  0.8449
14673TIP3    H165510   3.043   2.645  15.982  1.4042  0.5057  1.8059
14673TIP3    H265511   3.014   2.782  16.038 -0.3394  0.9096  0.0357
14674TIP3   OH265512   1.586   3.648   1.846 -0.7046  0.2534 -0.6608
14674TIP3    H165513   1.543   3.726   1.811 -2.3541 -0.4541 -0.3061
14674TIP3    H265514   1.543   3.633   1.930  0.3646 -0.4194 -0.2099
14675TIP3   OH265515   6.670   3.585  14.907  0.1156 -0.6102 -0.0286
14675TIP3    H165516   6.680   3.603  15.001 -0.7760 -0.5581  0.0654
14675TIP3    H265517   6.604   3.648  14.878  0.3684 -0.6471 -0.6890
14676TIP3   OH265518   3.381   3.485   3.981  0.2872 -0.6947  0.0732
14676TIP3    H165519   3.402   3.550   4.048 -1.0946  0.3163 -0.4052
14676TIP3    H265520   3.463   3.471   3.933  0.9855 -0.5098  1.1974
14677TIP3   OH265521   2.777   0.810  13.166 -0.7525 -0.2060  0.0541
14677TIP3    H165522   2.832   0.814  13.244  0.7755 -1.7304 -0.8672
14677TIP3    H265523   2.777   0.717  13.141 -4.1321 -0.3642  0.2110
14678TIP3   OH265524   0.356   2.330   2.576  0.4319 -0.1446  0.0947
14678TIP3    H165525   0.270   2.361   2.550  0.7280 -0.0960 -0.8754
14678TIP3    H265526   0.349   2.235   2.575  0.1551 -0.1432  0.8813
14679TIP3   OH265527   1.130   5.642  12.916 -0.4333  0.0437 -0.2492
14679TIP3    H165528   1.054   5.698  12.934  0.1089  0.4866  0.7328
14679TIP3    H265529   1.188   5.654  12.991  0.9238  0.2370 -1.2750
14680TIP3   OH265530   6.389   3.053  11.569  0.0962  0.2945  0.1188
14680TIP3    H165531   6.412   2.987  11.504 -0.8108  0.9928 -0.9533
14680TIP3    H265532   6.378   3.134  11.518 -0.3905  0.9170  1.1728
14681TIP3   OH265533   1.497   3.259   5.139 -0.3611 -0.0191  0.1975
14681TIP3    H165534   1.489   3.309   5.220  0.4082 -1.6115  1.3097
14681TIP3    H265535   1.581   3.214   5.147 -0.4457 -0.5022 -1.3344
14682TIP3   OH265536   3.707   3.861   3.951  0.4394 -0.0663 -0.3891
14682TIP3    H165537   3.726   3.926   4.019  1.6539 -1.8342  1.0702
14682TIP3    H265538   3.756   3.890   3.875  0.1114  1.2731 -0.1041
14683TIP3   OH265539   4.046   4.681   0.811 -0.0880  0.6127 -0.4276
14683TIP3    H165540   4.111   4.660   0.745 -1.1371 -0.7992 -1.0787
14683TIP3    H265541   3.990   4.747   0.771 -0.3627  0.2043 -0.7186
14684TIP3   OH265542   5.441   2.798   5.861 -0.3121  0.7021  0.8199
14684TIP3    H165543   5.453   2.851   5.940 -0.3391  0.8560  0.7227
14684TIP3    H265544   5.395   2.856   5.800  1.1808  1.1659  0.0774
14685TIP3   OH265545   3.111   5.069   5.163  0.0324  0.7243 -0.0642
14685TIP3    H165546   3.130   5.083   5.070  2.7414 -1.6738 -0.0016
14685TIP3    H265547   3.073   5.152   5.192 -0.9036  1.5816 -3.2464
14686TIP3   OH265548   0.559   4.228  12.959 -0.1136 -0.0165  0.1125
14686TIP3    H165549   0.588   4.285  12.888 -1.1540  1.5303  0.8909
14686TIP3    H265550   0.638   4.208  13.008  0.1927  1.2451  0.1584
14687TIP3   OH265551   1.684   2.558  16.352  0.6507 -0.4299  0.6578
14687TIP3    H165552   1.588   2.550  16.349  0.7328 -1.2183 -1.3911
14687TIP3    H265553   1.700   2.627  16.417 -1.3230  0.0817  0.6780
14688TIP3   OH265554   0.825   5.112  14.676 -0.1509  0.5766  0.4142
14688TIP3    H165555   0.895   5.047  14.664 -0.5376 -0.1495  1.8902
14688TIP3    H265556   0.758   5.066  14.727 -1.8686  1.1513 -1.2112
14689TIP3   OH265557   3.754   4.288   1.036 -0.3203  0.1161  0.0356
14689TIP3    H165558   3.763   4.194   1.023 -1.2893  0.0928 -0.5824
14689TIP3    H265559   3.670   4.298   1.080 -0.9382  0.7796 -1.2439
14690TIP3   OH265560   4.607   5.430  10.604  0.0018  0.2334 -0.1781
14690TIP3    H165561   4.659   5.460  10.530  0.0673  0.1414 -0.1691
14690TIP3    H265562   4.638   5.341  10.621 -2.2905 -1.0734 -2.1829
14691TIP3   OH265563   3.922   6.115   3.994 -0.1820 -0.0802  0.6551
14691TIP3    H165564   3.926   6.126   3.899 -0.2962  0.1561  0.6772
14691TIP3    H265565   3.887   6.198   4.026  0.3984  0.0587  0.9475
14692TIP3   OH265566   6.547   3.755  16.671  0.5307 -0.2710  0.3214
14692TIP3    H165567   6.590   3.821  16.726  0.1014 -0.6412  1.1180
14692TIP3    H265568   6.473   3.725  16.724 -0.8855  0.5360 -1.1103
14693TIP3   OH265569   6.715   4.741  14.480  0.2102  0.2540 -0.5130
14693TIP3    H165570   6.680   4.708  14.398 -1.5702  1.0863 -0.1382
14693TIP3    H265571   6.670   4.824  14.494  1.6334  0.8995  0.5363
14694TIP3   OH265572   2.236   3.800  17.159  0.0330  0.0608 -0.4657
14694TIP3    H165573   2.213   3.729  17.219  0.8208 -0.3267 -0.6091
14694TIP3    H265574   2.166   3.864  17.169  0.4559  0.2894  1.3352
14695TIP3   OH265575   0.255   2.011   4.896  0.2177  0.0376  0.4619
14695TIP3    H165576   0.228   1.972   4.979 -2.5279  1.9685  0.6120
14695TIP3    H265577   0.175   2.019   4.845  0.7238  4.0442 -0.0828
14696TIP3   OH265578   4.731   1.724  11.021 -0.0319  0.1478 -0.2059
14696TIP3    H165579   4.743   1.633  10.994  0.2250  0.0522  0.2067
14696TIP3    H265580   4.658   1.756  10.969 -0.5519 -0.4937  0.1143
14697TIP3   OH265581   4.304   2.026  16.045 -0.1097 -0.3989 -0.2440
14697TIP3    H165582   4.301   1.932  16.031 -0.1076 -0.3841 -0.3420
14697TIP3    H265583   4.396   2.044  16.068 -0.4782 -0.6920  1.6811
14698TIP3   OH265584   2.995   5.602   4.079  0.1627  0.2603  0.2876
14698TIP3    H165585   2.921   5.648   4.039  0.4033  1.8244  1.5292
14698TIP3    H265586   3.017   5.533   4.016  0.5787  2.5909 -2.3497
14699TIP3   OH265587   3.334   5.184  11.439 -0.5274  0.5822 -0.4593
14699TIP3    H165588   3.250   5.196  11.393  0.1437 -1.0681 -2.2700
14699TIP3    H265589   3.358   5.272  11.468 -2.0962  1.3561 -1.3246
14700TIP3   OH265590   5.473   1.056  13.969  0.8627 -0.3411  0.2579
14700TIP3    H165591   5.450   1.069  14.061 -1.9996 -0.4062 -0.3570
14700TIP3    H265592   5.492   1.144  13.936  1.0411 -0.2064  0.7151
14701TIP3   OH265593   2.916   1.814   2.646  0.1809  0.0776  0.6939
14701TIP3    H165594   2.911   1.720   2.628  0.4526  0.3918 -1.2044
14701TIP3    H265595   3.007   1.837   2.626  0.0031  0.8231  0.7196
14702TIP3   OH265596   0.038   1.001  11.223  0.0532 -0.3547 -0.3744
14702TIP3    H165597  -0.009   1.084  11.235 -0.1661 -0.6751  1.2566
14702TIP3    H265598   0.126   1.027  11.198  0.5278  0.5027  1.9218
14703TIP3   OH265599   2.912   2.648   0.440 -0.7050 -0.0183  0.1868
14703TIP3    H165600   2.843   2.609   0.495 -1.7402  1.3524 -0.0882
14703TIP3    H265601   2.899   2.742   0.449  0.0890  0.2437 -1.1922
14704TIP3   OH265602   2.992   6.780  16.047  0.6806  0.8144 -0.8338
14704TIP3    H165603   2.924   6.772  16.115  0.9002  1.4890 -0.5249
14704TIP3    H265604   3.001   6.692  16.012 -1.8114  1.0288 -2.3161
14705TIP3   OH265605   1.107   5.378  11.742 -0.4807  0.2687  0.3171
14705TIP3    H165606   1.172   5.447  11.737  0.9986 -0.8827  2.1548
14705TIP3    H265607   1.129   5.318  11.671 -1.1759  1.1334 -0.6707
14706TIP3   OH265608   0.292   5.205   4.902 -0.0743 -0.3816  0.3976
14706TIP3    H165609   0.230   5.138   4.931  0.7787 -0.1620  3.0075
14706TIP3    H265610   0.246   5.287   4.917 -0.6160 -0.2732 -1.5543
14707TIP3   OH265611   6.082   6.520  11.948 -0.9659 -0.0129  0.5640
14707TIP3    H165612   6.050   6.525  12.038 -1.4163 -0.7650  0.4541
14707TIP3    H265613   6.177   6.528  11.957 -0.8479 -1.8353  1.2842
14708TIP3   OH265614   3.336   5.730   2.980  0.7298 -0.3391 -0.1240
14708TIP3    H165615   3.247   5.716   2.949  0.3113  0.7146  0.5677
14708TIP3    H265616   3.366   5.643   3.006 -0.3388 -0.5949  0.2976
14709TIP3   OH265617   2.673   2.165   3.434 -0.1413  0.7586 -0.4803
14709TIP3    H165618   2.715   2.250   3.432  0.9862  0.2054 -0.9138
14709TIP3    H265619   2.584   2.183   3.464 -1.4189  2.6901 -4.7204
14710TIP3   OH265620   2.534   6.145   4.412 -0.3735  0.0843  0.4999
14710TIP3    H165621   2.591   6.155   4.336 -1.0969  3.8563  0.2510
14710TIP3    H265622   2.584   6.183   4.484 -1.0293 -0.2654  1.1424
14711TIP3   OH265623   2.485   5.603  11.858 -0.4490  0.3223 -0.1869
14711TIP3    H165624   2.567   5.553  11.861  0.3938  1.6178 -0.8364
14711TIP3    H265625   2.486   5.656  11.938 -0.7905  0.1525 -0.0674
14712TIP3   OH265626   5.332   0.471  12.389 -0.3736  0.4427 -0.1007
14712TIP3    H165627   5.255   0.473  12.333 -0.2634  0.3690 -0.2573
14712TIP3    H265628   5.383   0.396  12.357 -0.6147  0.0171  0.5090
14713TIP3   OH265629   1.843   5.806   3.271  0.5491 -0.3038  0.3815
14713TIP3    H165630   1.928   5.838   3.302  0.4104  1.0095 -0.5143
14713TIP3    H265631   1.780   5.870   3.304 -0.1702 -1.4971  1.3963
14714TIP3   OH265632   5.435   3.540  14.480 -0.4808  0.6341  0.4282
14714TIP3    H165633   5.491   3.501  14.547  1.3311  1.8871 -0.2778
14714TIP3    H265634   5.390   3.612  14.524 -0.8286  0.2114  0.7708
14715TIP3   OH265635   0.596   0.283   4.209  0.3057 -0.5627  0.0739
14715TIP3    H165636   0.562   0.290   4.120 -0.3501  1.3029  0.4247
14715TIP3    H265637   0.519   0.265   4.263  0.5887 -0.9453  0.3586
14716TIP3   OH265638   2.262   1.258   3.569 -0.2885  0.0603  0.3177
14716TIP3    H165639   2.258   1.351   3.592  2.5010  0.0391  1.2261
14716TIP3    H265640   2.353   1.243   3.545 -0.8226 -2.3218 -0.4289
14717TIP3   OH265641   0.491   6.754   4.695  0.3604 -0.2890  0.0675
14717TIP3    H165642   0.444   6.675   4.722  0.5714 -0.1819  0.7571
14717TIP3    H265643   0.449   6.825   4.744  1.3205 -0.2091  0.8003
14718TIP3   OH265644   5.984   1.666  11.277  0.2445  0.4136 -0.0555
14718TIP3    H165645   6.036   1.641  11.354  2.1817  2.8459 -0.4583
14718TIP3    H265646   5.893   1.651  11.304  0.9786 -2.7222  1.1682
14719TIP3   OH265647   3.447   0.998   1.416 -0.2487  0.2801  0.4111
14719TIP3    H165648   3.474   1.022   1.327  0.1956  1.4274  0.8336
14719TIP3    H265649   3.463   0.904   1.422  0.0858  0.2605 -0.5954
14720TIP3   OH265650   2.668   2.024   5.242  1.0685 -0.0394 -0.2625
14720TIP3    H165651   2.713   2.068   5.169  1.9194 -2.6467 -1.4282
14720TIP3    H265652   2.691   1.932   5.232 -2.8460 -1.2681  0.3770
14721TIP3   OH265653   5.963   1.189   5.665 -0.1180  0.6710 -0.3798
14721TIP3    H165654   6.004   1.273   5.684 -1.3423  1.1794  0.0956
14721TIP3    H265655   5.905   1.172   5.739 -0.9950  0.1271 -1.1630
14722TIP3   OH265656   6.003   2.709   1.942  0.4000 -0.1179  0.5444
14722TIP3    H165657   6.065   2.764   1.895  0.4555 -1.2622 -0.7671
14722TIP3    H265658   6.037   2.707   2.032  1.4249  0.4823  0.1916
14723TIP3   OH265659   2.386   2.350  11.611 -0.4321 -0.0117  0.2140
14723TIP3    H165660   2.444   2.416  11.650 -0.7416  0.5486 -0.2678
14723TIP3    H265661   2.335   2.398  11.546  0.4632 -1.0148 -1.3017
14724TIP3   OH265662   4.328   3.509   0.549 -0.3744  0.1682 -0.3156
14724TIP3    H165663   4.263   3.578   0.544  0.0372  0.5041 -1.6318
14724TIP3    H265664   4.289   3.435   0.502  0.3958  0.5692 -1.6305
14725TIP3   OH265665   2.705   5.285  13.394  0.3553  0.6458 -0.5199
14725TIP3    H165666   2.780   5.341  13.378 -0.4424  1.6741 -0.7397
14725TIP3    H265667   2.630   5.335  13.363 -0.7250  0.7276  2.0091
14726TIP3   OH265668   2.909   5.274  14.913  0.5657  0.4725 -0.4380
14726TIP3    H165669   2.875   5.303  14.998  0.2598 -0.9986 -0.0293
14726TIP3    H265670   2.987   5.223  14.934  0.3447 -0.1186 -1.0142
14727TIP3   OH265671   5.156   0.372  10.794  0.1496  0.0417 -1.2576
14727TIP3    H165672   5.072   0.365  10.840  0.6314  0.8742 -0.2063
14727TIP3    H265673   5.212   0.307  10.836 -0.1191 -0.9579 -2.3769
14728TIP3   OH265674   1.068   3.982   4.687  0.5717  0.5951 -0.2064
14728TIP3    H165675   0.997   4.038   4.655  0.5840  1.4238  1.1011
14728TIP3    H265676   1.063   3.903   4.634  0.4290  1.7523 -1.9943
14729TIP3   OH265677   0.836   4.552  14.863 -0.6398 -0.6613 -0.7085
14729TIP3    H165678   0.893   4.532  14.788 -0.4504 -0.8310 -0.5208
14729TIP3    H265679   0.749   4.524  14.835 -0.4298 -1.5176 -0.5588
14730TIP3   OH265680   6.700   0.475   0.699 -0.1858  0.2297  0.1100
14730TIP3    H165681   6.750   0.531   0.639  1.5529  0.5804  1.7976
14730TIP3    H265682   6.739   0.389   0.691 -0.7549 -0.0152 -0.1220
14731TIP3   OH265683   6.128   3.782  12.432  0.1613 -0.0819  0.4296
14731TIP3    H165684   6.107   3.763  12.523  2.3213 -0.0576  0.9965
14731TIP3    H265685   6.187   3.712  12.405 -0.7567 -0.3094 -1.0975
14732TIP3   OH265686   4.434   2.261  11.126  0.1235 -0.1308 -0.3803
14732TIP3    H165687   4.529   2.250  11.132 -0.0939 -1.6719  1.0216
14732TIP3    H265688   4.418   2.271  11.032  1.7153  0.9043 -0.5935
14733TIP3   OH265689   1.396   6.084  11.155  0.6116  0.4508  0.0715
14733TIP3    H165690   1.470   6.132  11.118  0.1662 -0.1633 -1.7102
14733TIP3    H265691   1.390   6.005  11.101 -1.3259  0.4802  0.1842
14734TIP3   OH265692   4.803   2.977  11.672 -0.3337  0.1537  0.2877
14734TIP3    H165693   4.855   3.029  11.610 -1.4787  1.6595  0.5386
14734TIP3    H265694   4.718   2.968  11.630 -0.5698 -0.3516  0.8710
14735TIP3   OH265695   5.556   0.818  12.925  0.0498  0.4030 -0.5616
14735TIP3    H165696   5.532   0.864  12.844 -0.0936  0.7791 -0.3115
14735TIP3    H265697   5.473   0.790  12.962  0.1726 -0.5933 -1.0128
14736TIP3   OH265698   4.044   5.970   2.113 -0.3741  0.3833 -0.4632
14736TIP3    H165699   4.085   6.027   2.048 -1.7873  0.5011 -1.2942
14736TIP3    H265700   3.962   6.014   2.135 -0.7692 -0.5655  0.0268
14737TIP3   OH265701   3.300   4.280   3.796  0.2125  0.0323 -0.2650
14737TIP3    H165702   3.330   4.340   3.864  1.6541  0.2879 -1.0985
14737TIP3    H265703   3.267   4.204   3.844  0.4838  0.5287  0.7331
14738TIP3   OH265704   0.227   2.041   2.632  0.0916 -0.2934 -0.1940
14738TIP3    H165705   0.158   2.037   2.566 -0.4193 -0.3811  0.3384
14738TIP3    H265706   0.207   1.969   2.693  3.2586 -3.4184 -2.4863
14739TIP3   OH265707   4.539   6.819  14.920 -0.3322  0.4304  0.3364
14739TIP3    H165708   4.497   6.897  14.956  0.2370  1.1122 -0.4392
14739TIP3    H265709   4.633   6.833  14.935 -0.3141 -0.9789  1.8690
14740TIP3   OH265710   5.798   2.120  14.228  0.4662  0.2959  0.4399
14740TIP3    H165711   5.716   2.102  14.275  0.5811 -0.9634  0.2100
14740TIP3    H265712   5.839   2.190  14.277 -0.5866  0.7153  0.7606
14741TIP3   OH265713   5.783   5.688   1.328  0.3011 -0.1372 -0.7475
14741TIP3    H165714   5.815   5.683   1.238  0.7729 -1.7883 -0.5331
14741TIP3    H265715   5.855   5.653   1.381 -1.2012 -2.5301 -0.0990
14742TIP3   OH265716   0.401   2.719   5.591 -0.6871  0.4360  0.2529
14742TIP3    H165717   0.350   2.684   5.518 -0.4483  0.7485 -0.0666
14742TIP3    H265718   0.476   2.660   5.599 -1.8252 -0.9092  1.6804
14743TIP3   OH265719   2.052   0.926  15.880  0.2976  0.2027  0.5714
14743TIP3    H165720   2.144   0.898  15.882  0.1477 -0.2670  0.9103
14743TIP3    H265721   2.003   0.845  15.864 -0.1269  0.2983  1.3909
14744TIP3   OH265722   1.743   4.198  14.370  0.3330 -0.2592 -0.3413
14744TIP3    H165723   1.727   4.106  14.393  0.1682  0.1508  1.2591
14744TIP3    H265724   1.836   4.211  14.387  0.8510 -0.6594 -2.5865
14745TIP3   OH265725   1.395   0.781  17.173  0.4080 -0.2119  0.2753
14745TIP3    H165726   1.463   0.774  17.106 -0.8979 -0.1580 -1.0936
14745TIP3    H265727   1.356   0.694  17.177  2.2495 -1.0817  3.0313
14746TIP3   OH265728   6.199   3.645   3.602  0.4468 -0.2211  0.2649
14746TIP3    H165729   6.264   3.640   3.531  1.7843 -1.8075  1.5058
14746TIP3    H265730   6.252   3.650   3.682 -0.9577 -1.3109  1.3113
14747TIP3   OH265731   0.296   5.585   1.575  0.4755 -0.0294 -0.1293
14747TIP3    H165732   0.272   5.673   1.549  1.1773 -0.1876 -1.3536
14747TIP3    H265733   0.360   5.597   1.646 -0.9965  0.3956  1.1953
14748TIP3   OH265734   3.229   1.915   5.067  0.4131 -0.8732 -0.1873
14748TIP3    H165735   3.261   1.886   4.982  1.2604 -0.5105 -0.0060
14748TIP3    H265736   3.134   1.910   5.060  0.2998  1.6381 -2.1000
14749TIP3   OH265737   1.361   3.642  12.117  0.5040 -1.0267  0.0507
14749TIP3    H165738   1.359   3.590  12.037  1.1794 -0.4421 -0.3602
14749TIP3    H265739   1.275   3.630  12.156  0.6570 -2.5183  0.0129
14750TIP3   OH265740   3.291   3.323  11.795 -0.3866  0.3731 -0.3402
14750TIP3    H165741   3.273   3.402  11.744  1.9794  1.4326  0.3163
14750TIP3    H265742   3.333   3.355  11.875 -0.1803 -1.5131  0.3577
14751TIP3   OH265743   4.081   0.190  14.483  0.1242 -0.4182  0.1408
14751TIP3    H165744   4.021   0.264  14.490  0.3081 -0.3707  1.6234
14751TIP3    H265745   4.039   0.129  14.422 -1.1043 -0.0998  0.6563
14752TIP3   OH265746   5.222   3.228  13.909 -0.4484 -0.1326 -0.9475
14752TIP3    H165747   5.178   3.243  13.993 -2.0622 -1.1081 -1.5706
14752TIP3    H265748   5.253   3.138  13.913  1.1488  0.3992 -0.7045
14753TIP3   OH265749   2.232   6.464  13.811  0.1492  0.0103  0.6358
14753TIP3    H165750   2.197   6.381  13.843 -1.3336  1.1130  2.0754
14753TIP3    H265751   2.175   6.487  13.737 -0.6034  0.5603  1.3599
14754TIP3   OH265752   3.275   2.280  11.523 -0.0438 -0.5617  0.5987
14754TIP3    H165753   3.215   2.354  11.526 -1.8440 -1.9492  0.3907
14754TIP3    H265754   3.286   2.255  11.615 -0.5067 -0.8730  0.5670
14755TIP3   OH265755   0.919   4.929  12.249 -0.1510  0.5222  0.1147
14755TIP3    H165756   0.837   4.886  12.273  0.5639  0.2265  2.2407
14755TIP3    H265757   0.897   5.022  12.245 -0.0435  0.8600  3.8986
14756TIP3   OH265758   2.995   4.078   1.883 -0.1395  1.1407 -0.2735
14756TIP3    H165759   3.081   4.053   1.917 -1.2052 -1.0928  0.9760
14756TIP3    H265760   3.004   4.069   1.788  1.1809  1.6419 -0.2235
14757TIP3   OH265761   2.651   6.173  15.170 -0.2389  0.0948  0.7601
14757TIP3    H165762   2.573   6.181  15.115  0.3899  0.4052 -0.1152
14757TIP3    H265763   2.621   6.127  15.248 -1.5614  1.2149  0.9595
14758TIP3   OH265764   0.947   5.828   0.170 -0.3499 -0.3299 -0.4829
14758TIP3    H165765   0.946   5.848   0.076 -1.1200  0.8282 -0.2536
14758TIP3    H265766   0.931   5.913   0.212 -0.4894 -0.9170  0.6785
14759TIP3   OH265767   5.316   3.515  12.867  0.2298  0.3874  0.5780
14759TIP3    H165768   5.381   3.543  12.804  0.1750  0.2468  0.4588
14759TIP3    H265769   5.353   3.538  12.952  0.7019 -0.2262  0.5470
14760TIP3   OH265770   2.089   6.791  15.196  0.0655 -0.0429 -0.8247
14760TIP3    H165771   2.156   6.842  15.242 -2.2980  2.6482 -0.1403
14760TIP3    H265772   2.136   6.752  15.123  2.9860 -0.7462  1.2226
14761TIP3   OH265773   6.131   1.189   6.719  0.1500  0.7820 -0.0800
14761TIP3    H165774   6.197   1.120   6.709  0.0758  0.8498 -1.1001
14761TIP3    H265775   6.179   1.270   6.701 -0.3116  0.7939 -1.3092
14762TIP3   OH265776   5.348   3.520   3.351 -0.1122  0.0250 -0.1282
14762TIP3    H165777   5.398   3.489   3.276 -2.3297  0.2401 -1.8132
14762TIP3    H265778   5.408   3.578   3.399  2.3784 -2.5671  0.1200
14763TIP3   OH265779   6.754   1.767  13.815  0.1993 -0.4255 -0.2568
14763TIP3    H165780   6.831   1.769  13.759 -1.2423 -0.8184 -2.3496
14763TIP3    H265781   6.728   1.675  13.818 -0.1349 -0.3185  0.5407
14764TIP3   OH265782   4.043   5.918  12.661 -0.6782  0.0309  0.0505
14764TIP3    H165783   3.957   5.940  12.627 -0.3800 -1.5920 -1.9465
14764TIP3    H265784   4.033   5.830  12.697  0.1946 -0.3082 -0.4949
14765TIP3   OH265785   3.915   0.946  16.374 -0.5669  0.5698  0.3267
14765TIP3    H165786   3.919   1.017  16.311 -0.5171  0.4868  0.2364
14765TIP3    H265787   3.964   0.875  16.333 -3.0185 -0.5491 -0.8956
14766TIP3   OH265788   2.711   2.787   0.808 -0.0890  0.0738 -0.5284
14766TIP3    H165789   2.768   2.719   0.843 -0.1688  0.1324 -0.2782
14766TIP3    H265790   2.623   2.753   0.820 -0.2043  0.7251  0.7487
14767TIP3   OH265791   6.462   3.299   1.064 -0.3011  0.2413 -0.2138
14767TIP3    H165792   6.510   3.365   1.114 -1.4094  0.2194  0.9349
14767TIP3    H265793   6.379   3.341   1.041 -0.4348 -0.2769 -0.7231
14768TIP3   OH265794   2.776   2.898   0.559  0.5366  0.1930  0.6776
14768TIP3    H165795   2.750   2.857   0.642 -2.7862  0.0702 -0.3012
14768TIP3    H265796   2.695   2.936   0.524  1.4448 -0.9872 -3.2012
14769TIP3   OH265797   6.703   0.190   2.595  0.0686 -0.5615 -0.2536
14769TIP3    H165798   6.795   0.204   2.618  0.1059  0.6792 -1.0874
14769TIP3    H265799   6.662   0.275   2.608 -0.8243 -0.9417 -0.5308
14770TIP3   OH265800   2.930   3.151  16.649  0.3032 -0.0054  0.4252
14770TIP3    H165801   2.922   3.216  16.719  0.7660  0.4403  0.0619
14770TIP3    H265802   2.985   3.192  16.584  0.6809 -0.8051  0.2363
14771TIP3   OH265803   1.252   1.690  11.027 -0.4021 -0.3479 -0.3250
14771TIP3    H165804   1.337   1.668  10.989 -0.7520 -0.4532 -1.0642
14771TIP3    H265805   1.194   1.621  10.997 -0.5758 -0.7425  0.8782
14772TIP3   OH265806   6.431   4.007   5.307  0.4105 -0.3245  0.8473
14772TIP3    H165807   6.467   4.050   5.384 -0.3537  1.2172  0.3802
14772TIP3    H265808   6.338   4.030   5.307  0.1874 -1.1494  0.0207
14773TIP3   OH265809   2.194   6.789   5.546 -0.2877  0.3103 -0.0579
14773TIP3    H165810   2.147   6.731   5.486  0.6018 -1.0814  0.5580
14773TIP3    H265811   2.129   6.814   5.611 -0.3950 -0.9846  0.3599
14774TIP3   OH265812   3.815   6.332  15.646 -0.2998 -0.2522  0.2609
14774TIP3    H165813   3.896   6.340  15.595 -0.2703 -1.3359  0.1131
14774TIP3    H265814   3.845   6.334  15.737 -0.1964  0.1864  0.2200
14775TIP3   OH265815   1.764   5.018  15.908  0.2143  0.4149  0.2753
14775TIP3    H165816   1.822   5.029  15.983 -0.4489  0.4469  0.7934
14775TIP3    H265817   1.680   4.991  15.945 -0.1096  0.3692 -0.4563
14776TIP3   OH265818   1.747   5.692   0.501  0.1200 -0.4912  0.2100
14776TIP3    H165819   1.781   5.712   0.413  0.2060 -0.5811  0.2232
14776TIP3    H265820   1.677   5.757   0.514  0.0473 -0.5335  0.0401
14777TIP3   OH265821   4.738   4.973   2.271  0.3613  0.2870 -0.1437
14777TIP3    H165822   4.704   4.889   2.303  0.6907  0.1970 -0.0245
14777TIP3    H265823   4.818   4.987   2.321  1.1265 -0.0821 -1.2253
14778TIP3   OH265824   0.866   6.584  13.559 -0.3097  0.0422  0.3250
14778TIP3    H165825   0.937   6.530  13.594  0.3141  0.4776 -0.2471
14778TIP3    H265826   0.905   6.670  13.548 -1.7167  1.0986  2.7309
14779TIP3   OH265827   1.373   6.575  13.934 -0.2052  0.3795  0.1137
14779TIP3    H165828   1.420   6.635  13.992  1.4056  1.1104 -1.8664
14779TIP3    H265829   1.296   6.549  13.985  0.8193  1.4327  2.3384
14780TIP3   OH265830   2.067   4.527  16.189 -0.4391  0.0552  0.4036
14780TIP3    H165831   2.077   4.466  16.263 -1.1441 -0.9485 -0.2974
14780TIP3    H265832   2.156   4.560  16.174 -0.3116  0.4101  1.7869
14781TIP3   OH265833   2.012   5.664  10.587  0.8195  0.6650  0.4623
14781TIP3    H165834   2.102   5.634  10.600  1.3235  1.4877 -0.9124
14781TIP3    H265835   1.959   5.585  10.595  1.9504 -0.3619 -1.3847
14782TIP3   OH265836   2.916   2.316   0.499  0.1896 -0.0256  0.9969
14782TIP3    H165837   2.923   2.378   0.427 -1.1111 -0.9056  0.0586
14782TIP3    H265838   3.006   2.306   0.531  0.4287  2.3176  1.2159
14783TIP3   OH265839   6.093   1.211  11.807 -0.2574 -0.0967  0.0323
14783TIP3    H165840   6.138   1.175  11.730  0.9660  1.6957 -0.1470
14783TIP3    H265841   6.086   1.304  11.789 -4.4309 -0.2253 -0.0746
14784TIP3   OH265842   3.114   1.012   1.152 -0.5236  0.4373 -0.5034
14784TIP3    H165843   3.200   1.025   1.192 -0.2408  1.2614 -1.3534
14784TIP3    H265844   3.132   0.986   1.062 -1.1696 -0.5706 -0.3703
14785TIP3   OH265845   5.634   0.875  12.392 -0.0905 -0.2387  0.3288
14785TIP3    H165846   5.648   0.943  12.327 -0.6642 -0.1623  0.2785
14785TIP3    H265847   5.711   0.819  12.386  1.0299  1.1310  1.2775
14786TIP3   OH265848   1.805   0.045  15.450  0.3837  0.1462 -0.2143
14786TIP3    H165849   1.868   0.101  15.495  2.1918 -0.0713 -2.3012
14786TIP3    H265850   1.778   0.095  15.373 -1.7451  0.0653  0.4123
14787TIP3   OH265851   0.359   6.684  13.994  0.3263 -0.2607 -0.3423
14787TIP3    H165852   0.396   6.603  14.030  0.5546  0.1192  0.2897
14787TIP3    H265853   0.309   6.655  13.918  2.1558 -0.7668 -1.4145
14788TIP3   OH265854   6.784   0.021   5.567  0.2635 -0.6447 -0.4112
14788TIP3    H165855   6.878   0.004   5.564  0.6403  1.0475  0.5106
14788TIP3    H265856   6.764   0.030   5.660 -0.5574  0.2742 -0.6607
14789TIP3   OH265857   3.092   6.305   0.963  0.5567  0.0852 -0.0575
14789TIP3    H165858   2.999   6.327   0.955  0.1195  0.3324  3.8430
14789TIP3    H265859   3.131   6.380   1.007  1.8532 -1.3743  1.4097
14790TIP3   OH265860   6.371   2.841   3.579  0.5043 -0.5752  0.3626
14790TIP3    H165861   6.318   2.772   3.619  1.7212  0.0855  3.4703
14790TIP3    H265862   6.460   2.805   3.580  0.6179 -0.4862 -1.8965
14791TIP3   OH265863   4.900   0.818  14.624  0.5060 -0.4393  0.5633
14791TIP3    H165864   4.980   0.830  14.572  0.3714  1.4241  0.7250
14791TIP3    H265865   4.869   0.731  14.600  0.1959  0.4648 -2.8816
14792TIP3   OH265866   0.933   5.998  11.722 -0.5994  0.2988 -0.2370
14792TIP3    H165867   0.949   6.075  11.778  0.4093  0.2261 -0.4138
14792TIP3    H265868   0.838   5.999  11.708 -0.7313  0.9438  0.5783
14793TIP3   OH265869   3.858   2.289   4.542 -0.4868 -0.1833 -1.0403
14793TIP3    H165870   3.790   2.340   4.585 -1.0048 -0.2070 -1.8137
14793TIP3    H265871   3.886   2.343   4.469  1.0074  0.2416 -0.1948
14794TIP3   OH265872   3.114   0.143   2.051  0.0186 -0.0092  0.3112
14794TIP3    H165873   3.132   0.172   1.961 -0.7587 -1.8065 -0.4844
14794TIP3    H265874   3.087   0.222   2.097 -3.5019  0.4322 -2.0976
14795TIP3   OH265875   1.559   5.472   0.475 -0.7915  0.3797 -0.0530
14795TIP3    H165876   1.637   5.527   0.466  0.0244 -0.5579  1.0723
14795TIP3    H265877   1.591   5.383   0.469 -1.3495 -0.1269  2.9332
14796TIP3   OH265878   5.060   2.901   3.868  0.2010 -0.0303 -0.7924
14796TIP3    H165879   5.044   2.866   3.780  1.7815 -0.0615 -1.0990
14796TIP3    H265880   5.148   2.940   3.863 -0.0329  0.7307  0.5459
14797TIP3   OH265881   5.227   2.602  10.137 -0.4375 -0.1498 -0.1039
14797TIP3    H165882   5.177   2.542  10.192  1.4825 -2.7728 -1.0611
14797TIP3    H265883   5.224   2.563  10.049  0.8792  1.1492 -0.7699
14798TIP3   OH265884   5.323   3.238  10.259  0.4265 -0.0404 -0.3693
14798TIP3    H165885   5.325   3.315  10.202 -0.9212 -0.1774 -0.6443
14798TIP3    H265886   5.414   3.211  10.266  1.0031  1.8631  0.1399
14799TIP3   OH265887   3.249   0.837   5.491  0.1275 -0.0439 -0.0417
14799TIP3    H165888   3.283   0.842   5.580  0.4573  0.9514 -0.2144
14799TIP3    H265889   3.155   0.820   5.502  0.3565 -1.0451  0.4636
14800TIP3   OH265890   6.630   6.539   6.951 -0.4090 -0.2183  0.2447
14800TIP3    H165891   6.658   6.531   7.042  1.6700  0.0708 -0.3201
14800TIP3    H265892   6.613   6.632   6.939 -0.1611 -0.1743  0.2170
14801TIP3   OH265893   2.300   3.260  16.774  0.1634  0.0183 -0.1189
14801TIP3    H165894   2.286   3.286  16.683  0.8257  0.1763 -0.1751
14801TIP3    H265895   2.230   3.197  16.792 -1.5745  1.9105  0.0634
14802TIP3   OH265896   2.413   0.737   5.928 -0.6293  0.0896  0.5557
14802TIP3    H165897   2.483   0.679   5.956 -0.7786  0.6721  2.2768
14802TIP3    H265898   2.333   0.696   5.961 -1.0279 -0.0949 -0.5796
14803TIP3   OH265899   1.546   4.448  11.474 -0.3778  0.2883 -0.1872
14803TIP3    H165900   1.527   4.385  11.544 -3.7194 -0.8600 -1.9155
14803TIP3    H265901   1.592   4.398  11.407  0.1506  0.6310 -0.0899
14804TIP3   OH265902   2.446   4.648  14.586 -0.4029 -0.2106  0.0054
14804TIP3    H165903   2.458   4.597  14.505 -0.8604 -1.0109  0.4255
14804TIP3    H265904   2.388   4.719  14.561  1.0071  0.6943 -0.8187
14805TIP3   OH265905   3.187   1.910   0.194  0.4231 -0.2689  0.3351
14805TIP3    H165906   3.162   1.948   0.279  1.3632  1.1691  0.0158
14805TIP3    H265907   3.146   1.968   0.129  1.1962 -0.2726 -0.1709
14806TIP3   OH265908   1.382   2.456   1.170  0.0098 -0.2110 -0.2847
14806TIP3    H165909   1.449   2.398   1.136 -0.4273 -0.9062  0.0136
14806TIP3    H265910   1.299   2.414   1.147 -0.3530  0.9038 -1.1321
14807TIP3   OH265911   5.554   3.400  11.524  0.6945 -0.1326  0.1163
14807TIP3    H165912   5.520   3.490  11.527 -1.5701 -0.9350  2.6563
14807TIP3    H265913   5.500   3.356  11.458  1.4270  0.1768 -0.7170
14808TIP3   OH265914   6.235   4.289  10.857 -0.0942  0.0768 -0.7068
14808TIP3    H165915   6.243   4.197  10.835  0.7748 -0.5723  1.9254
14808TIP3    H265916   6.316   4.309  10.906 -1.0283  1.7271  0.2558
14809TIP3   OH265917   6.233   5.638   0.145 -0.0756  0.4070 -0.1857
14809TIP3    H165918   6.152   5.610   0.104  0.7740 -0.9969 -0.9959
14809TIP3    H265919   6.219   5.625   0.239 -0.7991  0.2091 -0.3204
14810TIP3   OH265920   3.230   5.807  12.260  0.3382  0.1447  0.5522
14810TIP3    H165921   3.170   5.761  12.201  0.6286  0.8599 -0.3249
14810TIP3    H265922   3.175   5.872  12.304  0.5673  1.3702 -0.8629
14811TIP3   OH265923   3.169   2.789   2.820 -0.1511 -0.3945  0.5517
14811TIP3    H165924   3.215   2.827   2.745  1.5774  0.4250  1.9451
14811TIP3    H265925   3.079   2.822   2.811 -0.1024 -0.6398 -1.3341
14812TIP3   OH265926   5.327   6.527  11.229 -0.0539 -0.2711 -0.1291
14812TIP3    H165927   5.232   6.530  11.221 -0.4548  0.6356  3.2384
14812TIP3    H265928   5.355   6.617  11.213  0.2604 -0.5382 -1.1211
14813TIP3   OH265929   4.366   1.222  16.644 -0.0788 -0.9771  0.1147
14813TIP3    H165930   4.400   1.309  16.665  2.4280 -2.0468  0.8448
14813TIP3    H265931   4.286   1.214  16.696  0.4942  0.3065  1.2608
14814TIP3   OH265932   2.961   5.787   4.465 -0.0010 -0.2872 -0.6202
14814TIP3    H165933   2.945   5.852   4.396 -0.7733 -1.1927 -1.3163
14814TIP3    H265934   2.878   5.741   4.475  0.3315 -0.7133  0.3598
14815TIP3   OH265935   2.028   3.339   0.751 -0.1564  0.3302  0.3500
14815TIP3    H165936   2.076   3.280   0.809 -0.3596 -0.2289 -0.0459
14815TIP3    H265937   1.938   3.307   0.753 -0.2718  0.6386  0.1464
14816TIP3   OH265938   5.246   6.031   5.421  0.5556 -0.4897  0.3232
14816TIP3    H165939   5.283   6.060   5.504  1.5191  0.6010 -0.4593
14816TIP3    H265940   5.220   6.111   5.377 -1.5469 -1.1463  0.2609
14817TIP3   OH265941   3.853   5.726  12.375 -0.9186 -0.1341 -0.0927
14817TIP3    H165942   3.824   5.813  12.347  1.0487  0.6597  0.1996
14817TIP3    H265943   3.948   5.728  12.368 -0.7593 -1.9808  0.7744
14818TIP3   OH265944   4.198   1.904   3.154  0.1570 -0.3643 -0.1112
14818TIP3    H165945   4.178   1.878   3.244  1.3941 -0.4653  0.1562
14818TIP3    H265946   4.116   1.890   3.106 -1.1503  1.5863  1.3756
14819TIP3   OH265947   4.832   5.845   3.799 -0.1222  0.0857  0.0468
14819TIP3    H165948   4.846   5.891   3.716  1.7321 -1.0947 -0.3479
14819TIP3    H265949   4.852   5.911   3.865  1.1213  0.3017 -0.5017
14820TIP3   OH265950   2.349   4.623  11.983 -0.6389  0.3923 -0.1985
14820TIP3    H165951   2.357   4.706  12.030 -0.2041 -0.1566  0.7350
14820TIP3    H265952   2.363   4.645  11.891  0.6933  1.1670  0.1651
14821TIP3   OH265953   2.504   3.516  14.577 -0.0624 -0.3337 -0.2825
14821TIP3    H165954   2.560   3.440  14.562  0.8656 -0.0141  1.3026
14821TIP3    H265955   2.550   3.588  14.533 -0.2369 -0.4322 -0.6278
14822TIP3   OH265956   5.141   0.678  15.015  0.2464  0.1465 -0.2526
14822TIP3    H165957   5.115   0.623  15.089 -1.1363  1.6771  0.4429
14822TIP3    H265958   5.062   0.685  14.960  0.3970  1.3850 -0.3433
14823TIP3   OH265959   4.331   0.316  16.586 -0.4674  0.1286  0.0819
14823TIP3    H165960   4.265   0.274  16.530  0.0913 -0.6446 -0.0021
14823TIP3    H265961   4.385   0.366  16.525  0.8502 -1.6310 -0.2516
14824TIP3   OH265962   1.440   1.876   5.996  0.3250  0.3447 -0.0308
14824TIP3    H165963   1.437   1.848   6.087 -0.8957  0.1074 -0.1238
14824TIP3    H265964   1.521   1.926   5.988  0.8108 -0.2725  0.9919
14825TIP3   OH265965   2.447   1.733  13.810 -0.7049  0.3318  0.4603
14825TIP3    H165966   2.391   1.740  13.733 -1.7633 -0.2413  1.1489
14825TIP3    H265967   2.427   1.646  13.846  2.2289 -0.8313 -0.4505
14826TIP3   OH265968   2.296   4.484   3.068 -0.1221 -0.1336 -0.3514
14826TIP3    H165969   2.288   4.393   3.038 -2.3433  0.2921 -1.2567
14826TIP3    H265970   2.350   4.526   3.002 -2.6728  0.1343 -2.4354
14827TIP3   OH265971   1.858   1.725   1.584 -0.4341  0.3129 -0.5738
14827TIP3    H165972   1.910   1.732   1.504  0.5897 -0.9143 -0.0453
14827TIP3    H265973   1.792   1.794   1.576  0.1182  0.6947 -2.1194
14828TIP3   OH265974   4.980   4.284  13.714  0.9906 -0.0746  0.1219
14828TIP3    H165975   5.065   4.249  13.690  0.1911 -1.7608 -0.4258
14828TIP3    H265976   4.921   4.209  13.709 -0.5583  1.0773  0.3216
14829TIP3   OH265977   2.100   2.813  13.653 -0.2816  0.1250  0.0877
14829TIP3    H165978   2.044   2.791  13.728 -1.5512  0.1833 -0.8181
14829TIP3    H265979   2.157   2.736  13.643 -2.2817 -1.3232 -0.8350
14830TIP3   OH265980   6.615   5.802   6.541  0.3589  0.5205 -0.0484
14830TIP3    H165981   6.650   5.889   6.561 -0.7694  0.6901  1.3929
14830TIP3    H265982   6.520   5.813   6.548 -0.0345 -0.1160 -3.0001
14831TIP3   OH265983   3.298   5.706  16.381  0.0493 -0.0870 -0.0306
14831TIP3    H165984   3.382   5.704  16.336 -0.2634 -1.5086 -0.6182
14831TIP3    H265985   3.310   5.767  16.453  1.6694 -0.4775  0.0663
14832TIP3   OH265986   6.339   0.229   5.445  0.5686 -0.4609  0.2458
14832TIP3    H165987   6.395   0.281   5.387 -0.1057  1.0905  0.9575
14832TIP3    H265988   6.332   0.280   5.525  0.0069 -1.7293  1.0442
14833TIP3   OH265989   6.353   1.863   3.063 -0.0544  0.1886  0.1541
14833TIP3    H165990   6.296   1.939   3.061 -0.3002  0.1040  2.2569
14833TIP3    H265991   6.298   1.792   3.096  0.4342 -0.6847 -0.8360
14834TIP3   OH265992   1.523   3.301   6.098  0.3838  0.4664 -0.1712
14834TIP3    H165993   1.610   3.298   6.058  0.1277  0.8782 -0.7745
14834TIP3    H265994   1.507   3.393   6.115 -0.3269  0.5043 -0.9596
14835TIP3   OH265995   1.163   0.360  12.886  0.3648 -0.7925 -0.2644
14835TIP3    H165996   1.077   0.324  12.908 -0.1733  0.9619  0.7283
14835TIP3    H265997   1.209   0.363  12.970  0.3948  0.6875 -0.2940
14836TIP3   OH265998   0.094   3.982  16.105 -0.2248 -0.0269 -0.0955
14836TIP3    H165999   0.112   3.892  16.078  0.7746  0.1765 -0.1106
14836TIP3    H266000   0.179   4.018  16.131 -0.4982  1.1316 -0.7365
14837TIP3   OH266001   6.317   3.965   4.540  0.0296  0.2320  0.0185
14837TIP3    H166002   6.314   4.012   4.623  1.1731  1.8709 -0.8233
14837TIP3    H266003   6.337   3.874   4.565  0.7473  0.7674  1.4990
14838TIP3   OH266004   0.406   1.401   1.959  0.0956  0.5048 -0.0097
14838TIP3    H166005   0.456   1.469   2.004 -1.9460  1.4974  0.8682
14838TIP3    H266006   0.423   1.322   2.010 -1.6499  1.4738  2.2347
14839TIP3   OH266007   4.443   5.585   0.516  0.1625  0.4280  0.3651
14839TIP3    H166008   4.361   5.617   0.478  0.4639  1.5949  0.6405
14839TIP3    H266009   4.427   5.588   0.611 -0.2874 -1.6252  0.3859
14840TIP3   OH266010   3.457   5.783   3.587 -0.0946  0.3994  0.4701
14840TIP3    H166011   3.513   5.740   3.522 -0.2552 -0.2210  0.7279
14840TIP3    H266012   3.386   5.822   3.536  0.9672  1.8836  0.0555
14841TIP3   OH266013   0.920   2.708   3.382  0.0873 -0.3400 -0.0465
14841TIP3    H166014   0.827   2.723   3.368 -1.0329 -1.8498  4.2512
14841TIP3    H266015   0.962   2.791   3.359 -2.5946  1.1120 -0.0114
14842TIP3   OH266016   1.453   2.416   5.523 -0.1030  0.3165  0.5198
14842TIP3    H166017   1.455   2.476   5.597  1.1605  2.2376 -0.9893
14842TIP3    H266018   1.496   2.337   5.555 -0.0349  0.9164  1.9602
14843TIP3   OH266019   4.535   1.854  13.197 -0.3198 -0.5244 -0.1559
14843TIP3    H166020   4.452   1.824  13.160 -0.7558  0.1496  0.2421
14843TIP3    H266021   4.511   1.890  13.282  0.0747  1.4248 -0.8163
14844TIP3   OH266022   0.832   5.765  12.280  0.1596 -0.4187 -0.0483
14844TIP3    H166023   0.818   5.770  12.185 -0.3303 -1.1469 -0.0243
14844TIP3    H266024   0.748   5.736  12.315  0.3815 -0.2965  0.5958
14845TIP3   OH266025   0.452   0.761  15.116 -0.1468  0.8395  0.3043
14845TIP3    H166026   0.400   0.700  15.169 -0.2601 -1.5613 -2.3084
14845TIP3    H266027   0.387   0.807  15.063  0.1417 -0.4523 -1.2609
14846TIP3   OH266028   0.026   1.720  12.063 -0.2470 -0.4304  0.4489
14846TIP3    H166029   0.027   1.814  12.049 -0.9660 -0.0513  2.5018
14846TIP3    H266030   0.027   1.710  12.159  0.4172 -2.5221  0.2907
14847TIP3   OH266031   1.231   0.972   0.318  0.1201 -0.0271  0.0200
14847TIP3    H166032   1.322   0.956   0.291 -0.1127  1.3100 -1.7919
14847TIP3    H266033   1.184   0.984   0.236 -1.1918  1.7411  0.9508
14848TIP3   OH266034   2.201   1.476   3.150 -0.1576 -0.6038  0.1370
14848TIP3    H166035   2.166   1.563   3.169 -0.5301 -0.7275  0.0151
14848TIP3    H266036   2.175   1.458   3.060 -0.5434 -1.0679  0.3365
14849TIP3   OH266037   5.038   0.398   5.017 -0.2467 -0.7568  0.0995
14849TIP3    H166038   4.955   0.351   5.025 -0.8557  0.5925  2.7978
14849TIP3    H266039   5.013   0.491   5.021  1.3027 -0.3071 -0.2113
14850TIP3   OH266040   4.435   1.972   0.639  0.0421  0.1059 -0.2191
14850TIP3    H166041   4.511   1.915   0.653  0.5116  0.8741  0.4214
14850TIP3    H266042   4.365   1.912   0.612  0.3009 -0.9027  1.2414
14851TIP3   OH266043   1.506   0.182   5.028  0.0150 -0.3489 -0.0337
14851TIP3    H166044   1.414   0.199   5.008 -0.0658 -1.0097 -0.2496
14851TIP3    H266045   1.515   0.087   5.020  0.1900 -0.5825  2.1039
14852TIP3   OH266046   1.334   2.457   2.655 -0.5029  0.2456 -0.0478
14852TIP3    H166047   1.281   2.402   2.598  0.6199 -0.7988 -0.1250
14852TIP3    H266048   1.417   2.467   2.609 -0.7684  2.3561 -0.2140
14853TIP3   OH266049   3.896   1.936  17.236 -0.5504 -0.5395 -0.6397
14853TIP3    H166050   3.913   2.029  17.250 -0.5057 -0.7153  0.6491
14853TIP3    H266051   3.856   1.931  17.149 -0.2410  0.6382 -0.8610
14854TIP3   OH266052   5.948   5.477   5.078  0.2607 -0.1308 -0.6083
14854TIP3    H166053   5.933   5.558   5.029  0.6591 -0.2945 -1.0123
14854TIP3    H266054   6.021   5.434   5.032  0.3765 -0.4829 -0.1076
14855TIP3   OH266055   2.284   2.627  13.552  0.0819  0.6675  0.0608
14855TIP3    H166056   2.297   2.553  13.612  0.7950  1.1584  0.5430
14855TIP3    H266057   2.307   2.593  13.466  1.7465  0.6628  0.4717
14856TIP3   OH266058   3.065   4.105  14.644 -0.1330 -0.8409  0.2945
14856TIP3    H166059   3.072   4.010  14.652 -1.5654 -1.0517 -0.5442
14856TIP3    H266060   2.971   4.123  14.647 -0.2802  0.0740 -3.8671
14857TIP3   OH266061   6.691   5.923   3.741 -0.1364  0.0311 -0.4747
14857TIP3    H166062   6.714   5.872   3.664 -0.9148 -1.1418  0.0369
14857TIP3    H266063   6.719   5.869   3.815 -1.0511  0.2990  0.0904
14858TIP3   OH266064   3.270   5.458   4.554  0.1336  0.0554 -0.3860
14858TIP3    H166065   3.222   5.517   4.496 -0.0407 -1.8099 -2.2952
14858TIP3    H266066   3.339   5.421   4.499  0.7068 -0.9328  0.9398
14859TIP3   OH266067   6.705   0.304  13.875 -0.0427  0.2162  0.0793
14859TIP3    H166068   6.730   0.227  13.824  0.8768 -0.8509  2.0556
14859TIP3    H266069   6.661   0.269  13.952 -1.8983  1.8149 -0.1694
14860TIP3   OH266070   5.960   1.867  15.487  0.1670 -0.1226  0.1967
14860TIP3    H166071   5.951   1.913  15.404  0.2717  0.2680  0.3947
14860TIP3    H266072   5.882   1.894  15.537  0.7329  0.6488  0.6883
14861TIP3   OH266073   1.317   6.816   1.016  0.2737 -0.8110 -0.5223
14861TIP3    H166074   1.244   6.877   1.020 -0.2366 -1.4495  0.1071
14861TIP3    H266075   1.394   6.871   1.002 -0.3449 -0.1492 -1.4646
14862TIP3   OH266076   2.229   6.528  17.084 -0.5027 -0.0604 -0.0051
14862TIP3    H166077   2.319   6.517  17.054  0.3511  1.3594  1.7884
14862TIP3    H266078   2.180   6.459  17.040  1.0980  0.2201 -2.4310
14863TIP3   OH266079   4.709   4.179   5.741  0.6092  0.4764  0.3759
14863TIP3    H166080   4.649   4.211   5.809 -0.4705  1.0956 -0.8350
14863TIP3    H266081   4.660   4.110   5.696  1.1618  0.3432 -0.0336
14864TIP3   OH266082   1.420   4.533  12.456 -0.0084  0.5099 -0.1874
14864TIP3    H166083   1.336   4.510  12.496  0.6350  1.7981  2.0515
14864TIP3    H266084   1.398   4.595  12.387 -0.8321  2.3028  1.5911
14865TIP3   OH266085   3.911   3.933  11.684  0.3035 -0.2342  1.0375
14865TIP3    H166086   3.866   3.951  11.602 -1.7514 -1.2204  1.8793
14865TIP3    H266087   3.933   4.019  11.719 -2.4926  0.4401  1.3790
14866TIP3   OH266088   4.458   5.532  16.133 -0.1531  0.1862  0.2690
14866TIP3    H166089   4.407   5.574  16.203 -2.7733 -1.7502 -0.3310
14866TIP3    H266090   4.511   5.603  16.097  0.7703  1.4406  3.6631
14867TIP3   OH266091   1.941   2.416   4.169 -0.1483  0.6803 -0.1173
14867TIP3    H166092   1.938   2.346   4.234  0.5379  0.9009  0.1494
14867TIP3    H266093   1.960   2.495   4.219 -0.6192  1.0149 -0.4592
14868TIP3   OH266094   6.043   4.087   2.492 -0.3037 -0.6195  0.1519
14868TIP3    H166095   6.100   4.135   2.432 -0.9270  0.0980  0.1313
14868TIP3    H266096   6.035   4.000   2.452 -0.6930 -0.1602 -0.7936
14869TIP3   OH266097   0.533   5.438  17.301  0.2308 -0.4001 -0.1081
14869TIP3    H166098   0.495   5.418  17.215 -1.7087  1.3810  0.2692
14869TIP3    H266099   0.499   5.524  17.323  2.8187  0.3663  1.3078
14870TIP3   OH266100   4.347   0.485   3.595  0.1726  0.0646 -0.5753
14870TIP3    H166101   4.365   0.518   3.508 -0.7335  0.9623 -0.4476
14870TIP3    H266102   4.358   0.560   3.653  1.3640 -0.6587  0.1789
14871TIP3   OH266103   1.724   4.219   1.128  0.6713  0.0494  0.4907
14871TIP3    H166104   1.629   4.226   1.122  0.4399 -2.3048  0.6226
14871TIP3    H266105   1.756   4.292   1.074 -1.1639  1.2777  0.9537
14872TIP3   OH266106   1.771   6.507  16.702  0.3033  0.6986  0.1226
14872TIP3    H166107   1.779   6.427  16.754 -1.1482 -0.8511 -1.8716
14872TIP3    H266108   1.688   6.545  16.730 -0.7348 -0.4093 -1.2994
14873TIP3   OH266109   5.746   5.229  14.040  0.2036  0.3015  0.7274
14873TIP3    H166110   5.698   5.266  13.965 -1.9882 -2.5148  0.5697
14873TIP3    H266111   5.829   5.200  14.003  0.0621  0.9001 -0.0986
14874TIP3   OH266112   1.018   4.651  14.055 -0.2583 -0.4770 -0.3552
14874TIP3    H166113   1.046   4.661  13.964 -1.2919  1.1315 -0.5344
14874TIP3    H266114   0.927   4.624  14.049 -0.2055 -0.7913  0.2163
14875TIP3   OH266115   1.203   1.444  11.520 -0.0632 -0.4515 -0.1619
14875TIP3    H166116   1.233   1.477  11.435 -0.3162 -1.1887 -0.5545
14875TIP3    H266117   1.182   1.522  11.570  0.8473  0.0190 -0.4945
14876TIP3   OH266118   4.598   2.966  11.444  0.1513 -0.1298 -0.2043
14876TIP3    H166119   4.616   2.877  11.412  0.6477  0.1504 -0.7163
14876TIP3    H266120   4.520   2.993  11.396 -0.0796 -0.3352  0.0495
14877TIP3   OH266121   2.543   2.547  16.252 -0.4133 -0.4167 -0.0156
14877TIP3    H166122   2.638   2.547  16.242 -0.3882 -2.2915 -0.1572
14877TIP3    H266123   2.528   2.566  16.345  0.1350 -0.9168  0.1758
14878TIP3   OH266124   0.478   0.538  10.637  0.0421  0.1418 -0.2803
14878TIP3    H166125   0.482   0.518  10.543  1.9784 -1.5145  0.0975
14878TIP3    H266126   0.424   0.468  10.674  0.8566 -0.3163  0.0730
14879TIP3   OH266127   0.106   2.367   2.473 -0.2373  0.8040  0.7559
14879TIP3    H166128   0.131   2.427   2.402 -3.0818  0.8796 -0.2896
14879TIP3    H266129   0.029   2.408   2.513 -1.3132 -1.3707  1.0331
14880TIP3   OH266130   3.439   5.377  13.731 -0.5164  1.0214  0.3849
14880TIP3    H166131   3.410   5.461  13.768 -0.0384  1.7163 -0.7458
14880TIP3    H266132   3.534   5.387  13.722 -0.6025  0.8438 -0.8821
14881TIP3   OH266133   6.395   5.215  13.781  0.4431  0.3438  0.2122
14881TIP3    H166134   6.321   5.161  13.753  0.3477 -0.1608  1.3881
14881TIP3    H266135   6.442   5.161  13.845  1.5440  0.8571 -0.1401
14882TIP3   OH266136   0.517   0.416  13.348 -0.2469  0.2490  0.2761
14882TIP3    H166137   0.551   0.335  13.311  0.1926  0.0840  1.0064
14882TIP3    H266138   0.493   0.393  13.438 -1.5520  0.5664  0.0240
14883TIP3   OH266139   4.849   3.462  13.278 -0.0212 -0.4481 -0.9567
14883TIP3    H166140   4.807   3.548  13.279  1.2264  0.1791 -0.6016
14883TIP3    H266141   4.930   3.476  13.229  1.7596 -0.6268  1.7363
14884TIP3   OH266142   2.906   6.787   1.878  0.3655  1.2078 -0.2262
14884TIP3    H166143   2.966   6.861   1.894  1.8758 -0.1887  0.8995
14884TIP3    H266144   2.834   6.801   1.939  0.4599  1.9217 -0.2644
14885TIP3   OH266145   0.382   5.666  11.492 -0.3135 -0.8160  0.6298
14885TIP3    H166146   0.398   5.759  11.480  1.5473 -1.1120  0.5808
14885TIP3    H266147   0.335   5.639  11.413 -1.8124  0.2555  1.1141
14886TIP3   OH266148   3.622   6.668  13.329  0.3137  0.4655 -0.3844
14886TIP3    H166149   3.583   6.709  13.406 -0.6545  0.5129 -0.8736
14886TIP3    H266150   3.713   6.652  13.353 -0.5688 -2.0055  1.7671
14887TIP3   OH266151   6.081   4.668   0.337 -0.0461 -0.1551 -0.3172
14887TIP3    H166152   5.999   4.619   0.331  0.9781 -1.8707 -0.8905
14887TIP3    H266153   6.139   4.624   0.275  0.8218  2.0388 -1.1502
14888TIP3   OH266154   0.389   1.984   4.653 -0.9144 -0.4472 -0.7248
14888TIP3    H166155   0.454   2.041   4.614  0.3045 -1.7681 -0.7355
14888TIP3    H266156   0.360   2.031   4.731  2.4331 -1.0697  1.1111
14889TIP3   OH266157   6.582   4.130  13.307  0.1125  0.3668  0.4403
14889TIP3    H166158   6.619   4.059  13.256  0.5527  0.3995  0.7073
14889TIP3    H266159   6.650   4.152  13.371  0.3672  1.6547 -0.2393
14890TIP3   OH266160   4.975   1.486  13.098  0.2861  0.2922 -0.3663
14890TIP3    H166161   4.898   1.430  13.096  1.1712 -1.0840  1.2533
14890TIP3    H266162   4.942   1.572  13.124 -0.7504 -0.1889 -0.0508
14891TIP3   OH266163   0.979   2.117   0.443  0.7550  0.2978  0.4729
14891TIP3    H166164   1.054   2.091   0.389  0.3188  0.0584 -0.0366
14891TIP3    H266165   0.959   2.040   0.495 -1.1449 -0.8581 -1.7330
14892TIP3   OH266166   3.269   5.699  11.228  0.0789 -0.3057 -0.3101
14892TIP3    H166167   3.257   5.605  11.244 -0.4577 -0.3515 -0.9410
14892TIP3    H266168   3.215   5.742  11.295 -0.2003 -0.4609 -0.4330
14893TIP3   OH266169   1.340   1.144  15.144  0.2947 -0.1544  0.1682
14893TIP3    H166170   1.333   1.230  15.101  0.4373 -0.0580  0.3396
14893TIP3    H266171   1.315   1.081  15.076 -0.3689  0.0589  0.2031
14894TIP3   OH266172   4.361   3.129  16.569 -0.6611 -0.0117 -0.2122
14894TIP3    H166173   4.355   3.090  16.656 -4.1909 -0.4091 -0.4932
14894TIP3    H266174   4.399   3.060  16.514  0.3682 -0.2212  0.7282
14895TIP3   OH266175   6.424   5.894  13.115 -0.3050 -0.1246 -0.1596
14895TIP3    H166176   6.367   5.818  13.112  1.4434 -1.6185  1.5708
14895TIP3    H266177   6.368   5.965  13.148 -2.3911 -0.0946 -3.3639
14896TIP3   OH266178   6.584   2.293   2.198 -0.1682 -0.1527 -0.0210
14896TIP3    H166179   6.618   2.371   2.155  0.1597 -0.8566 -1.0551
14896TIP3    H266180   6.601   2.222   2.137  2.3932 -1.5999  2.1805
14897TIP3   OH266181   6.457   0.563  15.246 -0.4367  0.4283 -0.4975
14897TIP3    H166182   6.490   0.476  15.267 -1.5327 -0.2464 -1.5086
14897TIP3    H266183   6.465   0.612  15.328 -1.5962 -1.1723  0.6125
14898TIP3   OH266184   2.121   2.102   5.266  0.1522  0.3372 -0.3783
14898TIP3    H166185   2.158   2.162   5.201  1.3240 -1.1772 -1.1656
14898TIP3    H266186   2.186   2.033   5.275  0.2749  0.7185  2.8360
14899TIP3   OH266187   4.644   1.689  13.564 -0.5959 -0.3567  0.1086
14899TIP3    H166188   4.711   1.623  13.543  0.8993  0.4110  2.1067
14899TIP3    H266189   4.694   1.764  13.596 -2.3738  0.9369  0.0079
14900TIP3   OH266190   6.340   3.626  14.707  0.7130  0.0480  0.2071
14900TIP3    H166191   6.403   3.693  14.733 -0.3258  1.2699 -0.2692
14900TIP3    H266192   6.391   3.546  14.696  1.9210  0.6594  1.2386
14901TIP3   OH266193   2.294   1.149   1.214  0.0796 -0.3580 -0.0722
14901TIP3    H166194   2.375   1.199   1.227  0.0150 -0.2022 -0.2660
14901TIP3    H266195   2.305   1.106   1.130  0.4161 -1.2178  0.4012
14902TIP3   OH266196   3.687   0.279   1.387 -0.4791  0.4941 -0.8871
14902TIP3    H166197   3.728   0.204   1.346 -0.8793 -0.8012  0.9361
14902TIP3    H266198   3.594   0.257   1.390 -0.5438  0.8372  0.0711
14903TIP3   OH266199   1.159   5.447  15.724  0.1523  0.5862 -0.0104
14903TIP3    H166200   1.199   5.388  15.659 -0.5595 -0.0477  0.1242
14903TIP3    H266201   1.209   5.529  15.714 -0.5429  0.8277 -2.0343
14904TIP3   OH266202   3.316   4.425  14.262  0.3730  0.2111  0.0485
14904TIP3    H166203   3.408   4.403  14.276  0.0488 -0.7433  0.8653
14904TIP3    H266204   3.292   4.380  14.182 -0.0731 -1.9160  1.2909
14905TIP3   OH266205   2.529   6.210   6.074  0.1444 -0.0345  0.7890
14905TIP3    H166206   2.446   6.171   6.103  0.5394 -1.1683  0.4460
14905TIP3    H266207   2.554   6.269   6.145 -1.0338  0.4506  0.8253
14906TIP3   OH266208   0.362   0.059  15.976 -0.1063  0.5176 -0.1886
14906TIP3    H166209   0.430  -0.006  15.996 -0.1024  1.0031  1.4975
14906TIP3    H266210   0.335   0.038  15.886  2.7873  0.7813 -1.2159
14907TIP3   OH266211   5.668   2.941  16.781  0.2145  0.3833 -0.0499
14907TIP3    H166212   5.575   2.923  16.790  0.5623 -1.2587  0.7215
14907TIP3    H266213   5.675   3.036  16.781 -1.5038  0.5411 -0.7872
14908TIP3   OH266214   3.162   6.764   3.163 -0.7181 -0.4799 -0.6157
14908TIP3    H166215   3.133   6.674   3.180 -1.2464 -0.5034 -1.5415
14908TIP3    H266216   3.080   6.813   3.149 -0.5238  0.4505  1.1643
14909TIP3   OH266217   2.818   3.477   5.522  0.7537 -0.0433 -0.2644
14909TIP3    H166218   2.903   3.519   5.507 -1.2820  4.5538 -0.6621
14909TIP3    H266219   2.805   3.483   5.617  0.6652 -0.2866 -0.2611
14910TIP3   OH266220   6.762   1.412  11.493 -0.5814  0.9054 -0.0030
14910TIP3    H166221   6.814   1.345  11.537 -3.0311 -1.2118 -0.1234
14910TIP3    H266222   6.773   1.394  11.400  0.0059  1.7496 -0.1165
14911TIP3   OH266223   4.489   1.180  13.355 -0.7667  0.2593  0.1082
14911TIP3    H166224   4.444   1.209  13.275  0.7623 -1.6770 -1.5953
14911TIP3    H266225   4.560   1.125  13.322 -0.7166 -1.4888  2.8761
14912TIP3   OH266226   5.322   2.082   0.132 -0.3378  0.1765  0.0736
14912TIP3    H166227   5.236   2.079   0.173 -0.4737  0.8103 -0.1504
14912TIP3    H266228   5.316   2.018   0.061 -0.6414  0.2414  0.0359
14913TIP3   OH266229   0.904   2.025  16.178 -0.4318 -0.5341 -0.2784
14913TIP3    H166230   0.835   1.981  16.229  2.3417 -3.9090  0.9566
14913TIP3    H266231   0.961   2.063  16.245  0.5495 -0.5424 -1.0978
14914TIP3   OH266232   3.710   0.007   2.793 -0.0369  0.2243  0.1254
14914TIP3    H166233   3.698   0.080   2.853 -1.5512  1.8306 -1.9680
14914TIP3    H266234   3.628  -0.043   2.800  0.1811 -0.1454  0.0823
14915TIP3   OH266235   0.597   4.407  13.992  0.0640 -0.1469 -0.0265
14915TIP3    H166236   0.519   4.373  13.948 -0.7825  0.7724  0.7097
14915TIP3    H266237   0.610   4.347  14.066 -0.7198  0.4029  0.5809
14916TIP3   OH266238   1.218   0.574  17.199  0.0655 -0.8923  0.0239
14916TIP3    H166239   1.196   0.538  17.285  2.3646 -2.6524 -0.0304
14916TIP3    H266240   1.246   0.498  17.148  0.8596  0.4226 -1.5765
14917TIP3   OH266241   1.604   4.913   1.679 -0.1814  0.4378  0.5016
14917TIP3    H166242   1.520   4.912   1.726 -0.0783 -0.3644  0.6715
14917TIP3    H266243   1.664   4.958   1.739 -0.0673 -0.5156  1.1315
14918TIP3   OH266244   6.604   2.374  16.235 -0.4802 -0.2413  0.2934
14918TIP3    H166245   6.598   2.289  16.278 -0.0227 -0.2034  0.4355
14918TIP3    H266246   6.516   2.389  16.198 -0.7948 -0.3998  0.9656
14919TIP3   OH266247   3.876   2.669   5.811  0.4884 -0.1678 -0.5563
14919TIP3    H166248   3.820   2.741   5.783  0.1468 -0.2967 -0.2226
14919TIP3    H266249   3.832   2.634   5.889  0.6924 -0.6789 -0.6661
14920TIP3   OH266250   2.699   1.749  17.092  0.2413 -0.3023  0.1164
14920TIP3    H166251   2.633   1.763  17.023  0.3049 -0.0369  0.1089
14920TIP3    H266252   2.723   1.837  17.120  0.8812 -0.3918 -0.1518
14921TIP3   OH266253   0.030   4.616  16.261  0.2638  0.0719  0.0143
14921TIP3    H166254   0.099   4.587  16.320  0.3351  0.7801  0.2852
14921TIP3    H266255  -0.023   4.538  16.246 -0.4371  0.1293  1.9275
14922TIP3   OH266256   3.806   0.411  12.429  0.3213 -0.3546  0.0559
14922TIP3    H166257   3.750   0.409  12.352 -1.0953 -1.2751  1.0468
14922TIP3    H266258   3.883   0.359  12.405 -1.5060 -3.3947  0.2026
14923TIP3   OH266259   1.300   6.144  16.530 -0.2504 -0.3343 -0.0012
14923TIP3    H166260   1.233   6.213  16.527  0.2674  0.1620 -1.4105
14923TIP3    H266261   1.330   6.137  16.439  0.5878 -1.5602  0.3513
14924TIP3   OH266262   2.665   5.074  15.550 -0.0452  0.1662 -0.0074
14924TIP3    H166263   2.596   5.087  15.614 -0.5383  0.4327 -0.5895
14924TIP3    H266264   2.713   5.157  15.548  0.0331  0.1240  0.0842
14925TIP3   OH266265   0.991   3.787  11.876  0.1146  0.0423 -0.1042
14925TIP3    H166266   1.073   3.832  11.897  0.0965  0.4400 -0.8469
14925TIP3    H266267   0.963   3.747  11.958  0.3607  1.0236  0.4629
14926TIP3   OH266268   1.810   3.054  16.733 -0.3342  0.7544  0.3936
14926TIP3    H166269   1.832   3.140  16.770 -3.1655  1.4083  0.7287
14926TIP3    H266270   1.818   2.994  16.807 -1.0159  1.2143  0.8540
14927TIP3   OH266271   6.353   2.186   2.316 -0.4369  0.7160  0.8280
14927TIP3    H166272   6.352   2.098   2.280 -1.3047  0.5859  1.1366
14927TIP3    H266273   6.438   2.222   2.291 -0.2487 -0.0548  0.3406
14928TIP3   OH266274   6.645   6.488  13.908  0.3451  0.2227  0.4667
14928TIP3    H166275   6.567   6.535  13.880 -0.9166 -2.4436 -0.9082
14928TIP3    H266276   6.652   6.506  14.002 -2.9818 -0.7441  1.0305
14929TIP3   OH266277   3.274   1.775  14.495  0.7736 -0.0531 -0.2581
14929TIP3    H166278   3.303   1.748  14.582  0.4783 -0.0604 -0.1603
14929TIP3    H266279   3.216   1.704  14.467 -2.0949  1.5728  1.0504
14930TIP3   OH266280   1.810   2.951   4.249  0.1131 -0.4564 -0.0048
14930TIP3    H166281   1.759   2.879   4.287  0.4082 -0.6182  0.0920
14930TIP3    H266282   1.810   2.932   4.155  0.5687 -0.8358  0.0675
14931TIP3   OH266283   2.455   3.083  12.111 -0.1235 -0.1813  0.5625
14931TIP3    H166284   2.371   3.067  12.069 -0.3278  0.2602  0.7959
14931TIP3    H266285   2.490   3.160  12.066  0.3794 -0.6399  0.1433
14932TIP3   OH266286   0.772   0.694  12.123 -0.0254  0.3651 -0.2664
14932TIP3    H166287   0.787   0.741  12.041  0.4034 -2.5525 -1.9860
14932TIP3    H266288   0.858   0.662  12.149 -0.5474 -1.1236 -0.2562
14933TIP3   OH266289   1.735   0.246   5.601 -0.0966  0.1517 -0.4714
14933TIP3    H166290   1.708   0.175   5.543  0.8082 -1.7154  1.2761
14933TIP3    H266291   1.678   0.237   5.677  0.4839  0.8888  0.0531
14934TIP3   OH266292   2.545   5.099  16.687 -0.0504 -0.0720 -0.4617
14934TIP3    H166293   2.553   5.179  16.634  0.8272  1.1985  1.4539
14934TIP3    H266294   2.535   5.029  16.623  0.9180  1.3636 -2.2979
14935TIP3   OH266295   2.635   4.787   2.322  0.2012 -0.2212  0.7507
14935TIP3    H166296   2.702   4.855   2.328 -0.1140 -0.0530  3.6449
14935TIP3    H266297   2.569   4.823   2.262  0.2626  1.8366  1.8547
14936TIP3   OH266298   4.695   2.803  16.004  0.2259 -0.2012 -0.3160
14936TIP3    H166299   4.680   2.718  16.046  0.5630  0.2671  0.7941
14936TIP3    H266300   4.789   2.818  16.012  0.7812 -1.2126 -3.4999
14937TIP3   OH266301   2.152   1.580   3.976  0.0416 -0.1230 -0.4287
14937TIP3    H166302   2.092   1.655   3.976  0.1375 -0.0217  0.7035
14937TIP3    H266303   2.238   1.618   3.963  0.0279 -0.0918 -0.4292
14938TIP3   OH266304   0.697   2.089  11.132  0.0604 -0.1661 -0.0274
14938TIP3    H166305   0.760   2.091  11.205  0.8340 -0.5911 -0.6751
14938TIP3    H266306   0.667   1.998  11.129  1.8196 -0.7532 -1.7189
14939TIP3   OH266307   4.954   4.706  14.226 -0.3179 -0.1735  0.0155
14939TIP3    H166308   5.045   4.737  14.220  0.0013 -0.2150  3.0207
14939TIP3    H266309   4.906   4.779  14.264 -1.5208 -0.2890 -1.2103
14940TIP3   OH266310   3.226   4.497  13.238 -0.0370 -0.4885  0.4108
14940TIP3    H166311   3.310   4.466  13.273  0.3569 -0.0377 -0.1180
14940TIP3    H266312   3.182   4.418  13.208  1.6867 -0.4654 -2.5276
14941TIP3   OH266313   5.236   5.927  16.296  0.2400 -0.2404 -0.1509
14941TIP3    H166314   5.321   5.965  16.275  0.8180 -1.0324  0.7030
14941TIP3    H266315   5.249   5.884  16.380 -0.3993 -2.2653 -1.0252
14942TIP3   OH266316   2.886   1.817   3.553 -0.3568  0.3645 -0.0709
14942TIP3    H166317   2.814   1.858   3.507 -0.4257  0.8563  0.4625
14942TIP3    H266318   2.850   1.734   3.585 -1.4272  1.6163  2.1828
14943TIP3   OH266319   6.228   1.088   2.996 -0.7292  0.2726  0.4576
14943TIP3    H166320   6.193   1.151   2.933 -0.7091  0.0779  0.2519
14943TIP3    H266321   6.164   1.087   3.067 -1.0425  0.0612  0.1736
14944TIP3   OH266322   2.581   0.715   4.250  0.1079 -0.5922  0.3224
14944TIP3    H166323   2.663   0.741   4.209  0.1129 -1.4943 -0.2745
14944TIP3    H266324   2.513   0.763   4.203  0.1690 -1.1249 -0.3291
14945TIP3   OH266325   5.643   4.072  14.561  0.3922 -0.3151 -0.7189
14945TIP3    H166326   5.625   4.156  14.602 -2.9061  0.4823 -3.3251
14945TIP3    H266327   5.700   4.093  14.487 -1.4789  0.0020 -2.1606
14946TIP3   OH266328   2.358   2.432  11.999  0.2327 -0.2983  0.2545
14946TIP3    H166329   2.355   2.411  12.092  0.1772 -0.9984  0.0970
14946TIP3    H266330   2.286   2.494  11.986 -1.2179 -1.9301  0.2465
14947TIP3   OH266331   3.450   0.629  13.347  0.1924 -0.6585 -0.6047
14947TIP3    H166332   3.411   0.681  13.417  0.7715  0.0878 -0.8290
14947TIP3    H266333   3.376   0.605  13.292 -0.4076 -1.9925  0.7039
14948TIP3   OH266334   6.049   3.166  14.949 -1.0993  0.2796  0.4206
14948TIP3    H166335   5.999   3.236  14.992 -1.0254  0.6245 -0.0376
14948TIP3    H266336   6.063   3.199  14.860 -2.2892 -0.9329 -0.2450
14949TIP3   OH266337   3.381   2.655   4.170 -0.4147 -0.2141 -0.7400
14949TIP3    H166338   3.365   2.561   4.163 -0.0214 -0.3100 -0.4310
14949TIP3    H266339   3.370   2.674   4.264  0.1504 -0.0808 -0.6941
14950TIP3   OH266340   4.468   1.161  15.569 -0.5106  0.6246  0.3378
14950TIP3    H166341   4.473   1.195  15.659 -0.8857 -1.0483  1.0313
14950TIP3    H266342   4.379   1.128  15.561  0.1083 -1.0629  0.0621
14951TIP3   OH266343   5.331   3.020   1.221  0.3771  0.3972  0.5636
14951TIP3    H166344   5.276   2.942   1.226  0.9630 -0.2963 -2.1574
14951TIP3    H266345   5.419   2.987   1.208  0.8066  1.5082  0.5077
14952TIP3   OH266346   5.582   4.595   1.810 -0.3223 -0.6984 -0.0670
14952TIP3    H166347   5.497   4.559   1.785  0.3351 -2.2123 -0.2841
14952TIP3    H266348   5.636   4.518   1.828  0.9913  0.2200  0.0971
14953TIP3   OH266349   3.697   0.190  10.868 -0.6133  0.3053  0.4088
14953TIP3    H166350   3.742   0.273  10.855 -0.4482  0.6692  2.8074
14953TIP3    H266351   3.762   0.124  10.847 -0.4288  0.7841 -0.5685
14954TIP3   OH266352   5.276   3.078  14.434 -0.0713  0.0610 -0.0232
14954TIP3    H166353   5.301   3.075  14.527  2.1311 -0.6428 -0.5681
14954TIP3    H266354   5.181   3.074  14.434 -0.2514  1.9610  2.2708
14955TIP3   OH266355   5.103   4.704  12.299 -0.1222  0.1565  0.0156
14955TIP3    H166356   5.056   4.775  12.254  0.0828  1.3349  1.5914
14955TIP3    H266357   5.048   4.627  12.285 -1.0590  0.9054 -0.5803
14956TIP3   OH266358   3.444   5.179   2.005  0.9718 -0.1743  0.3868
14956TIP3    H166359   3.385   5.239   1.961 -0.5115 -1.1175  1.0041
14956TIP3    H266360   3.400   5.158   2.088  2.4531 -0.4646  1.1390
14957TIP3   OH266361   3.128   5.275  15.580 -0.2927 -0.1551  0.3455
14957TIP3    H166362   3.037   5.296  15.562 -0.3513  0.5048  1.3245
14957TIP3    H266363   3.127   5.183  15.603 -0.1713 -1.1459 -3.0862
14958TIP3   OH266364   6.266   1.898  11.594 -0.1851  0.0345  0.3473
14958TIP3    H166365   6.346   1.845  11.592 -0.3289 -0.2862  1.9637
14958TIP3    H266366   6.296   1.985  11.621 -0.2886  0.1435  0.1201
14959TIP3   OH266367   6.544   6.772  13.488 -0.0834  0.2974  0.1181
14959TIP3    H166368   6.632   6.798  13.461 -0.1161  1.1609  0.8094
14959TIP3    H266369   6.539   6.679  13.468  1.0851  0.1793  0.3485
14960TIP3   OH266370   4.022   0.284   3.184 -0.6703 -0.9041  0.2985
14960TIP3    H166371   3.928   0.295   3.173 -0.6668 -0.1861  0.9185
14960TIP3    H266372   4.061   0.320   3.105 -0.8656 -0.0792  0.5710
14961TIP3   OH266373   6.731   0.132   1.165  0.1341  0.0407 -1.0184
14961TIP3    H166374   6.820   0.165   1.180  0.3162 -1.1489  0.8926
14961TIP3    H266375   6.678   0.173   1.233 -0.0247 -1.9722  0.1372
14962TIP3   OH266376   2.580   6.282  10.857  0.5604  0.3183  0.3104
14962TIP3    H166377   2.578   6.316  10.946 -0.1368 -0.0564  0.4464
14962TIP3    H266378   2.666   6.308  10.823  1.4689 -0.8542  1.5994
14963TIP3   OH266379   1.202   0.087  11.010 -0.2194 -0.1067  0.3064
14963TIP3    H166380   1.192   0.170  11.056  2.1086  0.1618  0.4241
14963TIP3    H266381   1.187   0.110  10.918  1.8984  0.8080  0.1432
14964TIP3   OH266382   3.480   2.976   2.522 -0.0847  0.4969  0.0531
14964TIP3    H166383   3.388   2.954   2.539 -0.1885  1.1470  0.3398
14964TIP3    H266384   3.487   2.973   2.426  0.2581 -2.1677  0.0805
14965TIP3   OH266385   5.432   4.575   0.794 -0.6219 -0.7467  0.1061
14965TIP3    H166386   5.408   4.615   0.710 -0.5349 -1.8822 -0.4882
14965TIP3    H266387   5.458   4.648   0.849  1.4844 -0.1311 -1.5690
14966TIP3   OH266388   5.788   3.775  13.909  0.0392  0.2776  0.2934
14966TIP3    H166389   5.737   3.825  13.846 -1.1858 -0.2529  0.8406
14966TIP3    H266390   5.872   3.761  13.865 -0.1363  1.4715 -0.4784
14967TIP3   OH266391   5.408   2.013  16.455 -0.1999 -0.2146  0.0617
14967TIP3    H166392   5.382   2.054  16.537 -1.7737  0.0757 -0.5450
14967TIP3    H266393   5.500   2.037  16.443 -0.9708  2.9837 -0.1729
14968TIP3   OH266394   0.633   2.719  12.862  0.6823  0.6873 -0.5445
14968TIP3    H166395   0.627   2.629  12.895  2.4305  0.1514 -1.5728
14968TIP3    H266396   0.676   2.711  12.778  1.4796  2.5666 -0.3620
14969TIP3   OH266397   2.853   2.661  16.792 -0.0022  0.2396 -0.6844
14969TIP3    H166398   2.813   2.745  16.817  1.1487  0.8409 -0.7823
14969TIP3    H266399   2.819   2.644  16.704 -2.0609 -0.5974  0.2171
14970TIP3   OH266400   3.175   5.700   1.300  0.2566 -0.1336  0.1855
14970TIP3    H166401   3.221   5.776   1.265  0.6313  1.1204  3.0877
14970TIP3    H266402   3.095   5.694   1.248  1.5963  0.3797 -2.0351
14971TIP3   OH266403   1.470   3.062   4.848  0.2124  0.1210  0.1797
14971TIP3    H166404   1.562   3.046   4.871  0.2046  0.6303  0.5693
14971TIP3    H266405   1.474   3.133   4.783  0.0249  1.0483  1.1506
14972TIP3   OH266406   2.734   2.172  13.248 -0.1255 -0.0172  0.1189
14972TIP3    H166407   2.717   2.086  13.286  0.6877 -0.2989 -0.1244
14972TIP3    H266408   2.725   2.158  13.153  0.2018  0.1147  0.0675
14973TIP3   OH266409   5.274   2.796   2.422 -0.2121  0.2869  0.5448
14973TIP3    H166410   5.301   2.880   2.459  0.6910  0.5860 -0.7221
14973TIP3    H266411   5.188   2.779   2.461  0.1341  1.1830  1.7620
14974TIP3   OH266412   0.661   2.566  16.355 -0.4501 -0.0185 -0.2793
14974TIP3    H166413   0.571   2.541  16.374 -1.0762  1.0996 -1.6251
14974TIP3    H266414   0.680   2.639  16.414 -0.2852 -0.4960  0.2657
14975TIP3   OH266415   0.697   4.422   0.213 -0.5747  0.0500 -0.2307
14975TIP3    H166416   0.625   4.377   0.258 -0.0215  0.8387  1.5561
14975TIP3    H266417   0.718   4.366   0.139 -2.6637 -0.4765 -0.5101
14976TIP3   OH266418   2.923   5.128   6.810 -0.0770 -0.5154  0.5126
14976TIP3    H166419   2.880   5.111   6.727  0.9561  0.3145 -0.2145
14976TIP3    H266420   2.991   5.192   6.790  1.4649 -1.7137  1.6269
14977TIP3   OH266421   2.589   5.918   0.625 -0.7934  0.3542  0.1715
14977TIP3    H166422   2.579   5.823   0.616  1.2545 -0.0547  1.5045
14977TIP3    H266423   2.538   5.940   0.703  1.0631 -0.2129  1.6289
14978TIP3   OH266424   6.063   5.772  15.534  0.1034 -0.3648  0.3013
14978TIP3    H166425   6.052   5.768  15.439  0.4040 -0.4209  0.2667
14978TIP3    H266426   6.118   5.850  15.548 -1.4383  0.7095  0.5700
14979TIP3   OH266427   5.112   0.187  11.664 -0.3662  0.0873  0.1638
14979TIP3    H166428   5.036   0.243  11.650  0.3887  1.5483  1.6540
14979TIP3    H266429   5.127   0.145  11.579 -1.5735  1.3569 -0.7057
14980TIP3   OH266430   6.339   2.135   0.140 -0.1822 -0.2200  0.0799
14980TIP3    H166431   6.381   2.073   0.199  0.4364  0.1262  0.0018
14980TIP3    H266432   6.395   2.137   0.063 -0.2769  0.3311  0.0216
14981TIP3   OH266433   4.519   3.349   2.975 -0.0848 -0.1583 -0.3361
14981TIP3    H166434   4.536   3.420   2.912  1.2631  0.2440  0.4380
14981TIP3    H266435   4.468   3.391   3.044  2.9317  0.8997  1.4846
14982TIP3   OH266436   3.101   4.630  14.319  0.2237 -0.6866 -0.2468
14982TIP3    H166437   3.162   4.557  14.329  1.0007 -0.1208 -0.7637
14982TIP3    H266438   3.040   4.601  14.251  1.0140 -0.5437 -1.0248
14983TIP3   OH266439   1.716   1.944   3.883  0.5270 -0.5126  0.4559
14983TIP3    H166440   1.736   1.938   3.977 -0.1237 -0.6294  0.5872
14983TIP3    H266441   1.632   1.900   3.873  0.5280 -0.3789 -0.1647
14984TIP3   OH266442   3.905   0.432  15.112 -0.2324  0.3458  0.2331
14984TIP3    H166443   3.886   0.375  15.187  1.3616  0.1165  0.5027
14984TIP3    H266444   3.925   0.517  15.152  1.4865  0.0029  0.1745
14985TIP3   OH266445   0.592   6.594   2.141  0.5728 -0.1071 -0.1596
14985TIP3    H166446   0.612   6.687   2.128  0.4811 -0.1828 -0.9172
14985TIP3    H266447   0.677   6.555   2.163  0.3030  0.4462  2.0890
14986TIP3   OH266448   3.076   6.766   2.308  0.0572  0.2310 -0.0443
14986TIP3    H166449   3.049   6.676   2.287  0.5892  0.2484 -0.8565
14986TIP3    H266450   3.018   6.820   2.255  1.4805  0.2760 -1.6185
14987TIP3   OH266451   4.673   4.133  12.479  0.1668  0.1108  0.7238
14987TIP3    H166452   4.694   4.205  12.419  0.7112 -1.0679 -0.5478
14987TIP3    H266453   4.654   4.059  12.422  0.3836 -0.9780  2.0153
14988TIP3   OH266454   0.047   1.314  14.570  0.0110  0.3009  0.2537
14988TIP3    H166455   0.056   1.358  14.485  0.0790  1.6876  0.9560
14988TIP3    H266456   0.080   1.377  14.633  0.6257 -0.9889  1.2638
14989TIP3   OH266457   5.399   2.146  17.097  0.0261 -0.3635  0.0580
14989TIP3    H166458   5.408   2.233  17.137 -0.4277 -0.3364  0.1143
14989TIP3    H266459   5.395   2.086  17.171  0.4558 -0.4452  0.0148
14990TIP3   OH266460   1.887   3.815  12.124 -0.1484  0.3319 -0.0640
14990TIP3    H166461   1.901   3.909  12.117 -0.1795  0.4753  1.4206
14990TIP3    H266462   1.822   3.806  12.194 -0.0250 -0.7930 -0.0780
14991TIP3   OH266463   2.307   4.428  13.191  0.7541 -0.3370 -0.2934
14991TIP3    H166464   2.254   4.496  13.148 -0.1519 -1.5904 -1.2269
14991TIP3    H266465   2.243   4.371  13.233  1.5386 -0.3350  0.9370
14992TIP3   OH266466   4.200   2.914   3.591 -0.4380  0.2236  0.3143
14992TIP3    H166467   4.268   2.935   3.654 -0.8842  1.0416  0.5365
14992TIP3    H266468   4.118   2.938   3.634 -0.7284  1.1651 -0.7073
14993TIP3   OH266469   5.807   4.828  14.069  0.0979  0.2605  0.5045
14993TIP3    H166470   5.826   4.891  14.138  0.2836  0.8258 -0.0582
14993TIP3    H266471   5.763   4.878  14.001 -1.9288 -0.6765  1.0425
14994TIP3   OH266472   6.447   0.454   6.047  0.3484 -0.2833  0.0343
14994TIP3    H166473   6.412   0.389   6.108 -1.4648 -0.3603 -1.0224
14994TIP3    H266474   6.521   0.410   6.005  0.1913 -1.0527  0.5462
14995TIP3   OH266475   6.484   0.888  13.116 -0.0784  0.5340  0.2662
14995TIP3    H166476   6.525   0.925  13.038 -1.4045  1.7799  0.1184
14995TIP3    H266477   6.412   0.948  13.136 -2.4551 -1.9914 -0.0256
14996TIP3   OH266478   2.766   2.163   5.046 -0.0019  0.0580 -0.5621
14996TIP3    H166479   2.812   2.129   4.970 -3.2113  0.5250 -2.9261
14996TIP3    H266480   2.703   2.226   5.010 -1.8434  0.1549  2.4407
14997TIP3   OH266481   3.310   0.790   2.486  0.4800 -0.3560 -0.0382
14997TIP3    H166482   3.395   0.821   2.517  0.8348 -1.2820 -0.0250
14997TIP3    H266483   3.304   0.821   2.396  0.1973  0.9094  0.3999
14998TIP3   OH266484   3.175   6.563   1.024  0.4948  0.7930 -1.0306
14998TIP3    H166485   3.226   6.607   1.091 -1.8143  0.2189  1.2550
14998TIP3    H266486   3.129   6.634   0.978 -1.1977  1.0510  0.9133
14999TIP3   OH266487   0.332   3.363   4.071 -0.3428  0.1960  0.2866
14999TIP3    H166488   0.333   3.270   4.046  1.2190  0.5996 -1.3199
14999TIP3    H266489   0.425   3.386   4.081 -0.7495  1.3094  1.8539
15000TIP3   OH266490   2.906   3.578   1.222 -0.2888 -0.0113  0.3235
15000TIP3    H166491   2.979   3.520   1.242  0.8045  0.6247 -1.5392
15000TIP3    H266492   2.909   3.645   1.290  1.3003  0.3516 -0.0635
15001TIP3   OH266493   3.392   1.587   1.172  0.6759 -0.5033 -1.0658
15001TIP3    H166494   3.318   1.637   1.137 -0.0194 -1.1694 -0.5807
15001TIP3    H266495   3.469   1.639   1.149 -0.0432  0.9570 -0.3092
15002TIP3   OH266496   0.341   0.577   3.266  0.0353 -0.5612  0.2380
15002TIP3    H166497   0.369   0.647   3.206 -0.1406 -0.2162  0.5509
15002TIP3    H266498   0.402   0.582   3.339  0.1169 -0.8387  0.1891
15003TIP3   OH266499   5.379   0.676  13.983  0.0090  0.3280 -0.5938
15003TIP3    H166500   5.335   0.698  14.065  1.9562  1.5184  0.1968
15003TIP3    H266501   5.319   0.705  13.915 -2.8041 -2.9266  0.2335
15004TIP3   OH266502   0.480   6.431  14.052  1.2895 -0.4446  0.3507
15004TIP3    H166503   0.427   6.359  14.016 -0.9159  0.1507  2.1718
15004TIP3    H266504   0.565   6.392  14.069  1.1331 -1.7843 -1.5600
15005TIP3   OH266505   4.797   6.372  14.606 -0.2508 -0.1524 -0.5853
15005TIP3    H166506   4.804   6.386  14.511  0.4499  1.1033 -0.3765
15005TIP3    H266507   4.724   6.428  14.633 -1.5961 -1.8126 -0.5904
15006TIP3   OH266508   1.859   2.613  14.297 -0.4055 -0.4124  0.3496
15006TIP3    H166509   1.822   2.578  14.378 -2.8459  1.6437  0.2546
15006TIP3    H266510   1.823   2.701  14.290  3.0353  1.0742 -0.9150
15007TIP3   OH266511   4.562   4.713   6.300  0.2913  0.6395  0.7246
15007TIP3    H166512   4.637   4.762   6.265 -0.4370 -0.0133 -1.9463
15007TIP3    H266513   4.575   4.623   6.270 -1.6525  0.5528  0.0283
15008TIP3   OH266514   3.876   3.955   0.063  0.2724 -0.5402 -0.1313
15008TIP3    H166515   3.884   4.034   0.009 -0.1541  0.4586  1.2077
15008TIP3    H266516   3.794   3.914   0.032 -0.1642  0.2150 -0.0053
15009TIP3   OH266517   4.233   2.041  16.506  0.4808 -0.3394  0.0264
15009TIP3    H166518   4.323   2.059  16.533  0.1236  1.4445  0.1429
15009TIP3    H266519   4.235   2.049  16.410  0.4226 -0.2174  0.0357
15010TIP3   OH266520   1.601   6.800   1.311 -0.0562  0.0863  0.0344
15010TIP3    H166521   1.696   6.809   1.318  0.0347 -1.4732  1.4102
15010TIP3    H266522   1.569   6.890   1.304  1.5224  0.6141 -0.8688
15011TIP3   OH266523   5.028   4.608  15.703  0.1289 -0.0381 -0.9101
15011TIP3    H166524   4.954   4.634  15.648  0.1391 -0.2631 -1.0318
15011TIP3    H266525   5.012   4.651  15.787 -0.6687 -0.8955 -0.6088
15012TIP3   OH266526   0.702   4.433   4.644  0.1837 -0.3279  0.1431
15012TIP3    H166527   0.731   4.373   4.713  2.4874 -0.0152 -0.4534
15012TIP3    H266528   0.610   4.448   4.663 -0.0551 -2.7053  1.2929
15013TIP3   OH266529   2.022   4.259  11.464  0.8131 -0.5901  0.5044
15013TIP3    H166530   2.088   4.191  11.481 -0.6819 -2.6205 -1.3021
15013TIP3    H266531   2.034   4.282  11.372  0.5309  0.7980  0.7973
15014TIP3   OH266532   4.613   2.358  13.266  0.7129  0.2613 -0.3190
15014TIP3    H166533   4.680   2.407  13.218 -1.1039  0.5061 -2.7541
15014TIP3    H266534   4.532   2.406  13.249 -0.2548 -0.4449  1.9490
15015TIP3   OH266535   5.254   4.867   5.174  0.1937 -0.1445  0.1576
15015TIP3    H166536   5.336   4.823   5.149 -0.5632 -2.1200  0.9186
15015TIP3    H266537   5.273   4.908   5.258  1.4532  2.7363 -1.3970
15016TIP3   OH266538   0.303   2.026   2.016 -0.0565 -0.2763  0.7377
15016TIP3    H166539   0.268   1.937   2.015  0.3515 -0.4408 -0.4151
15016TIP3    H266540   0.389   2.017   2.058 -0.1459 -0.3619  0.9073
15017TIP3   OH266541   6.110   5.800   5.105  0.3528  0.3608  0.2635
15017TIP3    H166542   6.158   5.809   5.023  1.2105  1.3423  0.8454
15017TIP3    H266543   6.163   5.740   5.157 -1.1429 -1.7646 -0.5470
15018TIP3   OH266544   1.437   4.116   0.826  0.1405  0.6389  0.2388
15018TIP3    H166545   1.479   4.107   0.912 -0.9838 -2.8837  0.5534
15018TIP3    H266546   1.509   4.126   0.765  1.1404  0.1103  1.2928
15019TIP3   OH266547   4.404   4.234  13.365  0.4997  0.0663  0.0745
15019TIP3    H166548   4.346   4.306  13.340  1.0207  0.1780 -0.8776
15019TIP3    H266549   4.487   4.277  13.386  0.5844 -0.1919  0.2644
15020TIP3   OH266550   0.787   4.056   1.871  0.1074  0.0939  0.8816
15020TIP3    H166551   0.779   4.051   1.966  0.4915 -1.7550  0.8549
15020TIP3    H266552   0.858   4.119   1.857  1.2740 -0.9257  1.9168
15021TIP3   OH266553   5.106   3.959   1.014 -0.5338 -0.1769  0.1135
15021TIP3    H166554   5.143   3.901   0.947  1.2168 -0.9206  1.6601
15021TIP3    H266555   5.017   3.976   0.982 -0.1985 -1.4964 -1.7711
15022TIP3   OH266556   3.896   3.675  10.399  0.1356  0.5100  0.0217
15022TIP3    H166557   3.917   3.768  10.405  0.4952  0.3958  0.6726
15022TIP3    H266558   3.882   3.647  10.490 -1.8017  0.3262 -0.2927
15023TIP3   OH266559   6.176   2.551  16.324  0.1489 -1.0056 -0.2921
15023TIP3    H166560   6.257   2.571  16.277  0.0302 -2.7672 -1.3332
15023TIP3    H266561   6.202   2.488  16.392 -0.1146 -0.4364  0.3503
15024TIP3   OH266562   2.999   5.163  13.194 -0.0502  0.3670 -0.7901
15024TIP3    H166563   3.085   5.122  13.188 -1.0361 -2.0271  0.3614
15024TIP3    H266564   2.949   5.125  13.122 -1.8295 -2.8996  1.8933
15025TIP3   OH266565   5.044   4.184   3.061  0.1256 -0.3465  0.3073
15025TIP3    H166566   5.047   4.195   3.156 -1.7106  0.8803  0.2795
15025TIP3    H266567   5.068   4.270   3.026  1.5268 -0.9866 -0.3968
15026TIP3   OH266568   4.767   3.813   5.272 -0.0096  0.6356  0.2703
15026TIP3    H166569   4.792   3.778   5.187 -1.1393  1.6091 -0.5081
15026TIP3    H266570   4.718   3.893   5.251 -2.3252 -0.2980  1.7110
15027TIP3   OH266571   3.283   2.738  10.501  0.5240 -0.5443  0.5042
15027TIP3    H166572   3.376   2.763  10.501  0.3452  0.1772  1.4222
15027TIP3    H266573   3.243   2.793  10.568 -0.2699 -1.9544  1.2560
15028TIP3   OH266574   5.292   0.525  14.819  0.3685  0.3569  0.2123
15028TIP3    H166575   5.387   0.522  14.807  0.4641  0.0908  1.0299
15028TIP3    H266576   5.275   0.612  14.856  0.3319  0.2533  0.4368
15029TIP3   OH266577   0.801   0.605  16.654  0.2434 -0.1261  0.0722
15029TIP3    H166578   0.836   0.541  16.593 -1.7503 -1.4954  0.3006
15029TIP3    H266579   0.707   0.604  16.640  0.0535  2.1091  0.7446
15030TIP3   OH266580   3.673   6.346  13.165 -0.1534  0.3413  0.1559
15030TIP3    H166581   3.584   6.377  13.149 -1.0318 -1.4437  1.3166
15030TIP3    H266582   3.662   6.260  13.206  2.1211 -0.2155 -0.2640
15031TIP3   OH266583   5.090   0.319  15.554  0.5323  0.0724  0.5022
15031TIP3    H166584   5.037   0.398  15.543  1.0819  0.1576 -2.1427
15031TIP3    H266585   5.026   0.248  15.562  0.0077  0.4280 -0.4422
15032TIP3   OH266586   3.662   4.153  13.897  0.3154 -0.2794  0.7957
15032TIP3    H166587   3.624   4.171  13.983 -1.1938  0.6535 -0.0248
15032TIP3    H266588   3.601   4.192  13.835  1.9659  0.0883 -0.6711
15033TIP3   OH266589   0.444   5.717   0.047  0.0751  0.3191 -0.0250
15033TIP3    H166590   0.528   5.762   0.055  0.5399 -0.7777  1.6246
15033TIP3    H266591   0.379   5.787   0.058  0.7555  1.0262 -0.3697
15034TIP3   OH266592   6.314   3.580   5.276 -0.6910 -0.1546  0.1705
15034TIP3    H166593   6.285   3.669   5.256 -1.3321 -0.1963  0.8949
15034TIP3    H266594   6.402   3.575   5.239  0.2102  1.4696  1.8971
15035TIP3   OH266595   1.697   0.043  15.143 -0.3796 -0.5257 -0.2467
15035TIP3    H166596   1.731   0.126  15.178 -2.0306 -0.4415  1.3021
15035TIP3    H266597   1.752   0.025  15.066  2.0696  0.3772  1.1793
15036TIP3   OH266598   0.367   2.274   1.892  0.0135 -0.1770  0.0801
15036TIP3    H166599   0.347   2.183   1.911 -0.0712 -0.4541 -1.2231
15036TIP3    H266600   0.285   2.321   1.907 -0.2363 -0.4919 -0.2932
15037TIP3   OH266601   6.219   5.311  15.579 -0.2295  0.5697 -0.5195
15037TIP3    H166602   6.294   5.257  15.606  0.0434  1.5409  0.8144
15037TIP3    H266603   6.146   5.250  15.575 -0.3181  0.2977  2.6696
15038TIP3   OH266604   0.784   4.877   2.559 -0.5068 -0.0898 -0.1045
15038TIP3    H166605   0.812   4.791   2.590 -0.7161 -0.4899 -1.0189
15038TIP3    H266606   0.756   4.863   2.469 -0.4288  0.9589 -0.3059
15039TIP3   OH266607   2.130   0.386   5.347  0.3209 -0.1467 -0.0597
15039TIP3    H166608   2.057   0.326   5.330 -0.8984  0.7324  1.7513
15039TIP3    H266609   2.181   0.345   5.416  1.9647 -1.0218 -1.6878
15040TIP3   OH266610   2.191   1.463  13.516 -0.7035  0.0474  0.6035
15040TIP3    H166611   2.097   1.461  13.502 -0.7647 -1.4863  1.0411
15040TIP3    H266612   2.218   1.371  13.512  0.9195  0.5204 -0.4403
15041TIP3   OH266613   4.435   5.656  15.005 -0.8029 -0.6583 -0.0488
15041TIP3    H166614   4.506   5.674  15.067 -2.3075  0.1480  1.5730
15041TIP3    H266615   4.445   5.722  14.937  0.4362 -1.0421 -0.2485
15042TIP3   OH266616   2.934   0.574   6.799  0.3616 -0.4497  0.0734
15042TIP3    H166617   2.988   0.497   6.815  0.6184 -0.3853 -0.4425
15042TIP3    H266618   2.992   0.635   6.753 -0.0066 -0.1808 -0.0462
15043TIP3   OH266619   6.722   6.435  12.320  0.1394  0.3892 -0.3884
15043TIP3    H166620   6.762   6.355  12.354 -0.1331  0.5946  0.4376
15043TIP3    H266621   6.754   6.505  12.377 -1.0626  0.6126  0.0507
15044TIP3   OH266622   4.327   5.320  15.770 -0.2955  0.5263 -0.1730
15044TIP3    H166623   4.384   5.340  15.696 -1.3439  2.2791 -0.5491
15044TIP3    H266624   4.388   5.311  15.844  0.8169 -1.7961 -1.2561
15045TIP3   OH266625   0.243   1.198  12.745  0.5995  0.3474  0.2638
15045TIP3    H166626   0.208   1.286  12.732  0.5521  0.3244  0.2352
15045TIP3    H266627   0.318   1.193  12.685  1.4540  0.8496  1.2707
15046TIP3   OH266628   4.079   0.316  12.498  0.4238 -0.3548 -0.3743
15046TIP3    H166629   4.069   0.344  12.589  1.8658 -0.2592 -0.2342
15046TIP3    H266630   4.173   0.316  12.482  0.2799 -1.9335 -1.3952
15047TIP3   OH266631   6.522   2.195  15.114  0.1875 -0.5923 -0.1886
15047TIP3    H166632   6.460   2.145  15.061 -1.3204 -1.0584  1.8685
15047TIP3    H266633   6.477   2.278  15.130  1.5282  0.4002 -1.3448
15048TIP3   OH266634   5.205   2.185   5.335 -0.2572 -0.0917 -0.1351
15048TIP3    H166635   5.274   2.227   5.387 -1.1538 -0.9013  1.8511
15048TIP3    H266636   5.133   2.248   5.337 -0.7490 -0.6558  0.7738
15049TIP3   OH266637   1.582   6.398   5.346  0.1209  0.3930  0.3928
15049TIP3    H166638   1.514   6.415   5.281  1.8299  1.5848 -1.1797
15049TIP3    H266639   1.637   6.476   5.345  2.3473 -1.0826  0.5099
15050TIP3   OH266640   3.671   2.172  16.993 -0.0513  0.3613 -0.3363
15050TIP3    H166641   3.717   2.092  16.968  1.1664  1.1925 -0.8185
15050TIP3    H266642   3.584   2.163  16.953 -0.5431 -1.4618  1.0209
15051TIP3   OH266643   3.845   1.154   3.464 -0.6386 -0.1273 -0.0995
15051TIP3    H166644   3.791   1.076   3.471 -0.4320 -0.4935 -1.9869
15051TIP3    H266645   3.926   1.132   3.510 -0.0598 -1.5663 -1.6898
15052TIP3   OH266646   4.079   4.453   6.038 -0.2961  0.0711 -0.0954
15052TIP3    H166647   4.137   4.511   6.087  3.6383 -3.8555  0.5891
15052TIP3    H266648   4.024   4.411   6.105  1.2593 -1.3397  0.3698
15053TIP3   OH266649   3.706   3.184  16.245  0.8219 -0.0794  0.3236
15053TIP3    H166650   3.655   3.217  16.171 -0.0381  0.4726  1.1453
15053TIP3    H266651   3.696   3.089  16.242 -2.9339  0.0866  2.2642
15054TIP3   OH266652   6.456   1.184  15.772 -0.1847  0.0341 -0.4301
15054TIP3    H166653   6.498   1.165  15.688 -1.4180 -2.1814 -0.6142
15054TIP3    H266654   6.380   1.238  15.750 -0.8067 -0.9827 -0.8287
15055TIP3   OH266655   3.124   3.759   5.043  0.6995  0.5272 -0.4881
15055TIP3    H166656   3.112   3.741   4.950  0.1113  0.9983 -0.5083
15055TIP3    H266657   3.172   3.842   5.046  2.7446 -0.5788 -0.3855
15056TIP3   OH266658   2.793   4.931   4.605  0.2455  0.4562  0.0129
15056TIP3    H166659   2.747   4.992   4.547  0.7988 -0.3568 -1.3180
15056TIP3    H266660   2.880   4.922   4.566  0.5976 -0.2033  0.9138
15057TIP3   OH266661   5.589   1.750   6.317  0.6304  0.0264 -0.1903
15057TIP3    H166662   5.641   1.693   6.260 -0.6511 -0.1903 -1.2047
15057TIP3    H266663   5.518   1.694   6.348  0.6815  0.4546  0.7247
15058TIP3   OH266664   5.999   2.093   2.235  0.2070 -0.4429  0.1299
15058TIP3    H166665   6.051   2.013   2.224  0.1144 -0.3756 -0.9562
15058TIP3    H266666   5.939   2.074   2.306  2.0731 -0.3261  1.8332
15059TIP3   OH266667   0.915   1.636  16.500  0.1096  0.6629  0.5534
15059TIP3    H166668   0.926   1.541  16.511 -1.3523  0.4818  0.7528
15059TIP3    H266669   1.001   1.673  16.518  0.3344 -0.5026  2.0768
15060TIP3   OH266670   0.377   0.822  15.864  0.1781  0.4668 -0.2166
15060TIP3    H166671   0.306   0.762  15.885 -0.5355  0.5137 -2.2417
15060TIP3    H266672   0.334   0.898  15.825  1.2690  0.8249 -0.7811
15061TIP3   OH266673   3.620   0.847  16.695  0.1779  0.2076  0.2284
15061TIP3    H166674   3.597   0.758  16.721  0.4056  0.7033  2.2795
15061TIP3    H266675   3.700   0.836  16.643 -0.4776 -0.8559 -0.6193
15062TIP3   OH266676   6.181   5.556  15.087  0.1722 -0.0553 -0.2770
15062TIP3    H166677   6.152   5.477  15.133  1.3591 -0.6372 -0.4767
15062TIP3    H266678   6.220   5.611  15.155 -0.9331  0.5328 -0.0833
15063TIP3   OH266679   4.294   4.132   4.404 -0.3056  0.1126 -0.6881
15063TIP3    H166680   4.288   4.159   4.312  0.2566 -0.5781 -0.9460
15063TIP3    H266681   4.335   4.205   4.449  0.9531 -0.1761 -1.3162
15064TIP3   OH266682   6.449   2.005   2.024 -0.4623  0.0994 -0.2626
15064TIP3    H166683   6.390   1.949   1.975 -1.4308  1.8274 -1.1774
15064TIP3    H266684   6.506   1.945   2.072 -2.5057 -1.6490  0.1275
15065TIP3   OH266685   5.436   6.300  14.588  0.6720 -0.2764  0.3450
15065TIP3    H166686   5.418   6.245  14.512  1.1974 -0.5263  0.3974
15065TIP3    H266687   5.353   6.346  14.604  0.8010  0.4285 -0.8945
15066TIP3   OH266688   4.541   4.238  14.482  0.1473  0.1315 -0.2197
15066TIP3    H166689   4.529   4.303  14.551 -0.1586  1.3009 -1.3347
15066TIP3    H266690   4.630   4.254  14.449  0.0434  0.0457 -0.5502
15067TIP3   OH266691   3.600   1.423   1.348 -0.5589  0.1050 -0.4995
15067TIP3    H166692   3.674   1.484   1.347  0.7270 -1.4096 -1.2784
15067TIP3    H266693   3.585   1.401   1.256 -0.6538 -1.1500 -0.1980
15068TIP3   OH266694   3.773   3.002  10.371 -0.1149 -0.3591 -0.6945
15068TIP3    H166695   3.859   2.974  10.403  0.3237  0.5128 -1.0555
15068TIP3    H266696   3.768   3.094  10.397 -0.5494 -0.1583 -1.4785
15069TIP3   OH266697   4.345   3.950  17.182 -0.1174 -0.3183 -0.4300
15069TIP3    H166698   4.433   3.917  17.196 -0.4418 -1.0869 -0.1171
15069TIP3    H266699   4.295   3.874  17.152 -0.8964 -0.1345  0.3362
15070TIP3   OH266700   5.227   1.748   1.131 -0.1656  0.0283  0.6153
15070TIP3    H166701   5.296   1.815   1.126 -0.0715 -0.0725  0.5493
15070TIP3    H266702   5.275   1.666   1.148 -0.2362 -0.1074  0.1581
15071TIP3   OH266703   2.717   3.199   0.375  0.3847  0.2139 -0.4140
15071TIP3    H166704   2.706   3.285   0.335 -0.6391 -0.1673 -1.0039
15071TIP3    H266705   2.664   3.203   0.454  0.9753  0.3767 -0.0199
15072TIP3   OH266706   4.087   5.425  12.659  0.0226 -0.2737 -0.0611
15072TIP3    H166707   4.155   5.454  12.598  0.2041 -1.3088 -0.3813
15072TIP3    H266708   4.065   5.337  12.630 -0.5313 -0.4498  0.8355
15073TIP3   OH266709   1.683   1.605  14.845  0.5061  0.3723 -0.1031
15073TIP3    H166710   1.766   1.626  14.802 -0.0098  1.0522 -0.7939
15073TIP3    H266711   1.616   1.636  14.785 -0.2548  0.2125  0.6377
15074TIP3   OH266712   3.733   2.092   1.174  0.2444  0.4217 -0.3745
15074TIP3    H166713   3.719   2.015   1.119  0.9066 -1.1200  1.5080
15074TIP3    H266714   3.749   2.164   1.112 -2.0394 -0.5499 -2.2425
15075TIP3   OH266715   6.191   1.901   5.365  0.2355 -0.3076 -0.0012
15075TIP3    H166716   6.214   1.994   5.361 -0.1720 -0.1107  1.6861
15075TIP3    H266717   6.146   1.884   5.282  3.2418  0.1409 -1.8669
15076TIP3   OH266718   1.342   1.178  14.665  0.7258 -0.2557  0.0374
15076TIP3    H166719   1.425   1.141  14.696  1.3295  0.4167 -0.7382
15076TIP3    H266720   1.355   1.190  14.571 -0.1903  0.0445 -0.0598
15077TIP3   OH266721   1.585   0.158   1.934  0.3062  0.2369  0.0131
15077TIP3    H166722   1.521   0.130   1.869  0.3820  0.9389 -0.3622
15077TIP3    H266723   1.634   0.228   1.892  0.8483  0.1969  0.5594
15078TIP3   OH266724   5.841   2.012   0.804  0.2105 -0.0030  0.2652
15078TIP3    H166725   5.846   2.013   0.709  3.3073 -0.6882  0.3160
15078TIP3    H266726   5.847   1.919   0.828 -2.5208 -0.0440  1.1684
15079TIP3   OH266727   1.692   4.800  12.917 -0.5927  0.5100  0.2338
15079TIP3    H166728   1.620   4.852  12.881 -0.2010 -0.3877 -1.9864
15079TIP3    H266729   1.749   4.782  12.842  2.4777  1.9457  2.0462
15080TIP3   OH266730   5.581   4.366  13.193  0.2200  0.1826  0.3717
15080TIP3    H166731   5.552   4.444  13.241 -0.2677  0.1140  0.1896
15080TIP3    H266732   5.612   4.399  13.109 -0.5018  0.1199  0.0820
15081TIP3   OH266733   4.455   0.045   3.682  0.5442 -0.3261  0.0830
15081TIP3    H166734   4.402   0.011   3.609  0.5090 -2.2348  0.9490
15081TIP3    H266735   4.544   0.051   3.646  0.3776 -0.4131 -0.3567
15082TIP3   OH266736   3.961   6.166  16.514  0.2239  0.1234  0.4755
15082TIP3    H166737   4.035   6.126  16.559  1.1745  1.8403  0.4856
15082TIP3    H266738   3.985   6.258  16.502 -1.5859  0.5675 -0.1914
15083TIP3   OH266739   2.067   3.071  12.588  0.6726  0.0020 -0.0561
15083TIP3    H166740   2.067   3.069  12.683  1.2516 -0.1345 -0.0601
15083TIP3    H266741   2.118   2.994  12.562 -0.6640 -0.7811 -0.4895
15084TIP3   OH266742   6.772   4.804  16.871 -0.5943 -0.0940  0.1653
15084TIP3    H166743   6.751   4.789  16.963 -0.7864  0.3307  0.1908
15084TIP3    H266744   6.776   4.899  16.861  0.1591 -0.1461 -0.1065
15085TIP3   OH266745   0.289   1.660  15.707  0.4033 -0.2013  0.1884
15085TIP3    H166746   0.347   1.735  15.699  1.0750 -0.5203  1.6012
15085TIP3    H266747   0.271   1.654  15.801  0.9968 -2.2555  0.2198
15086TIP3   OH266748   4.592   3.790  15.538 -0.4854 -0.2269 -0.0497
15086TIP3    H166749   4.648   3.784  15.615  0.4269  2.0777 -0.4661
15086TIP3    H266750   4.516   3.840  15.568  0.9011  2.7297 -1.0565
15087TIP3   OH266751   0.672   3.136  11.851 -0.2839  0.2320 -0.0608
15087TIP3    H166752   0.610   3.208  11.858 -0.2215  0.3370 -0.5397
15087TIP3    H266753   0.754   3.170  11.888 -0.6224 -0.0591  1.0010
15088TIP3   OH266754   3.711   6.155   5.222  0.0328  0.6872 -0.0869
15088TIP3    H166755   3.653   6.195   5.157  1.0811  0.6921 -1.0505
15088TIP3    H266756   3.714   6.219   5.294 -1.8510  0.2786  0.3971
15089TIP3   OH266757   5.379   1.236  16.921  0.2129 -0.3268  0.0857
15089TIP3    H166758   5.397   1.327  16.945  0.7453 -0.1367 -0.9735
15089TIP3    H266759   5.444   1.186  16.969  0.3482 -0.0883  0.1561
15090TIP3   OH266760   0.411   0.548   0.406  0.0487 -0.2580  0.0717
15090TIP3    H166761   0.423   0.527   0.499  0.9757 -2.4961 -0.4943
15090TIP3    H266762   0.457   0.632   0.395 -0.7373  0.4512  1.7424
15091TIP3   OH266763   0.362   2.819   3.943  0.0425 -0.2037 -0.5225
15091TIP3    H166764   0.315   2.783   4.018 -0.0253  0.6837 -0.1278
15091TIP3    H266765   0.298   2.873   3.898  0.3754  0.1236 -0.6115
15092TIP3   OH266766   1.916   0.983  16.253  0.5035  0.4968  0.1705
15092TIP3    H166767   1.859   0.986  16.177  1.2714  0.6425 -0.4097
15092TIP3    H266768   1.945   1.073  16.265 -0.5418  0.7052  1.3741
15093TIP3   OH266769   4.842   3.182   3.050 -0.3421 -0.4543 -0.0936
15093TIP3    H166770   4.836   3.087   3.040  0.7777 -0.5507 -0.0520
15093TIP3    H266771   4.786   3.218   2.980 -0.9617 -1.1385  0.0462
15094TIP3   OH266772   6.632   6.725   4.243  0.7492 -0.1534  0.4606
15094TIP3    H166773   6.672   6.714   4.329 -1.3425 -1.1335  1.3663
15094TIP3    H266774   6.584   6.644   4.228 -0.3349  0.6799 -0.8470
15095TIP3   OH266775   6.763   0.065  13.760  0.5277 -0.3668  0.0248
15095TIP3    H166776   6.781  -0.001  13.692  2.5553  0.5154 -0.3812
15095TIP3    H266777   6.790   0.023  13.842 -0.3507 -0.8428  0.0753
15096TIP3   OH266778   3.324   1.927   3.342 -0.0824  0.1634 -0.5744
15096TIP3    H166779   3.229   1.925   3.355 -0.0282 -1.1312 -0.2365
15096TIP3    H266780   3.339   2.006   3.291 -1.1244  1.4573  0.9802
15097TIP3   OH266781   1.170   4.077  16.957  0.1165 -0.3066 -0.6991
15097TIP3    H166782   1.202   4.150  16.904  0.7979  0.4293  0.6873
15097TIP3    H266783   1.222   4.002  16.928 -0.0781 -0.0993 -1.6200
15098TIP3   OH266784   1.967   1.324   4.049  0.3362  0.5233  0.6733
15098TIP3    H166785   1.989   1.401   3.996  1.2354  0.2693  0.6763
15098TIP3    H266786   1.928   1.361   4.129  0.1944  0.9522  0.4109
15099TIP3   OH266787   3.272   3.803  11.438 -0.0689 -0.3486  0.3490
15099TIP3    H166788   3.354   3.774  11.477 -0.2843 -1.1739  0.2076
15099TIP3    H266789   3.204   3.767  11.496 -0.3649 -0.8588 -0.3047
15100TIP3   OH266790   4.348   5.121  16.296  0.1437  0.1763 -0.2800
15100TIP3    H166791   4.381   5.060  16.361 -0.4252 -0.9253 -0.9951
15100TIP3    H266792   4.253   5.122  16.309 -0.0250 -0.4152 -1.3792
15101TIP3   OH266793   2.905   0.191  16.918 -0.3945 -0.1831 -0.5831
15101TIP3    H166794   2.971   0.217  16.854  0.9803 -1.3671  0.2933
15101TIP3    H266795   2.828   0.167  16.866  0.7482 -1.2821 -1.8173
15102TIP3   OH266796   2.083   6.234  13.890 -0.2435  0.3043  0.1704
15102TIP3    H166797   2.002   6.283  13.897 -1.0320 -0.8316 -0.6416
15102TIP3    H266798   2.058   6.151  13.850  1.4834  0.3973 -1.2794
15103TIP3   OH266799   6.563   5.786  12.514 -0.1859 -0.3067  0.3011
15103TIP3    H166800   6.494   5.776  12.448  1.3146 -1.9942 -1.0951
15103TIP3    H266801   6.541   5.721  12.581 -1.1305  0.6886  0.9937
15104TIP3   OH266802   5.943   2.381   5.691  0.1756  0.1026  0.1096
15104TIP3    H166803   5.885   2.308   5.670 -0.3405  0.8459 -1.1693
15104TIP3    H266804   5.884   2.453   5.714  0.6026  0.6086 -0.3440
15105TIP3   OH266805   4.593   1.589   3.046  0.0066  0.2869 -0.0708
15105TIP3    H166806   4.525   1.526   3.066  0.3618 -0.4661 -1.1198
15105TIP3    H266807   4.547   1.666   3.012 -0.2767 -0.9025 -2.5412
15106TIP3   OH266808   3.595   6.531   2.244 -0.0726 -0.4512  0.0893
15106TIP3    H166809   3.690   6.543   2.232 -0.4051  3.7647  0.1984
15106TIP3    H266810   3.556   6.599   2.190 -2.9573 -0.7156  1.6651
15107TIP3   OH266811   6.770   2.443   5.830 -0.0399 -0.6647  0.2105
15107TIP3    H166812   6.758   2.365   5.883 -0.7909  0.4168  1.7174
15107TIP3    H266813   6.684   2.487   5.832  0.2502  0.0015 -0.9263
15108TIP3   OH266814   4.679   1.530  15.389 -0.1541 -0.0611  0.1363
15108TIP3    H166815   4.598   1.480  15.396 -0.0286 -0.1634  1.0580
15108TIP3    H266816   4.748   1.464  15.379 -0.2461  0.0563 -1.4306
15109TIP3   OH266817   2.892   1.718  11.183 -0.5196  0.1843 -0.1414
15109TIP3    H166818   2.893   1.752  11.094 -0.4920  2.2229  0.5689
15109TIP3    H266819   2.983   1.697  11.203 -0.3361  0.9082 -0.1922
15110TIP3   OH266820   4.000   4.439  11.946 -0.1488 -0.8297 -0.0410
15110TIP3    H166821   3.931   4.454  12.011 -1.0759 -1.9226 -0.7296
15110TIP3    H266822   4.075   4.411  11.998 -0.4374 -0.3485  0.6638
15111TIP3   OH266823   4.382   6.031  17.151  0.0697 -0.2048  0.4044
15111TIP3    H166824   4.310   6.027  17.087  0.5153  0.0974 -0.1306
15111TIP3    H266825   4.391   6.124  17.171  0.9141 -0.1234 -0.2560
15112TIP3   OH266826   3.064   1.941  14.476  0.5565  0.3523  0.1126
15112TIP3    H166827   3.152   1.903  14.474 -0.2772 -1.7482  0.6093
15112TIP3    H266828   3.030   1.929  14.387  0.2577 -0.2047  0.2943
15113TIP3   OH266829   2.013   4.682   5.477 -0.0053 -0.6356  0.4349
15113TIP3    H166830   2.065   4.698   5.555  1.6106  1.1609 -0.9009
15113TIP3    H266831   2.058   4.610   5.433  1.2081  0.6398 -0.5080
15114TIP3   OH266832   6.527   1.887  10.919 -1.1047  0.0367 -1.0751
15114TIP3    H166833   6.450   1.874  10.974  0.1508  0.6136  0.9403
15114TIP3    H266834   6.516   1.974  10.882 -1.0193  0.5095 -0.0320
15115TIP3   OH266835   5.015   3.187  10.961  0.5337  0.0177  0.3638
15115TIP3    H166836   4.989   3.251  10.895  0.8682  0.3480  0.5553
15115TIP3    H266837   4.963   3.209  11.038  0.9907  0.3457  0.5767
15116TIP3   OH266838   4.822   3.722   3.193  0.0150 -0.3251 -0.0141
15116TIP3    H166839   4.787   3.718   3.282 -0.5455 -2.0358 -0.2631
15116TIP3    H266840   4.749   3.756   3.140  0.8857  2.3663  0.3625
15117TIP3   OH266841   0.479   1.855   5.981  0.2355 -0.0705 -1.1786
15117TIP3    H166842   0.504   1.849   6.074 -0.1172  0.7388 -1.0231
15117TIP3    H266843   0.537   1.793   5.937  2.0989  1.2553 -0.7528
15118TIP3   OH266844   4.154   6.093   2.686  0.0641 -0.0123  0.2665
15118TIP3    H166845   4.109   6.172   2.715 -1.3061 -1.0947  1.2686
15118TIP3    H266846   4.152   6.097   2.591 -0.2279  1.0255  0.3116
15119TIP3   OH266847   6.498   4.176   4.100  0.3391  0.0572 -0.5775
15119TIP3    H166848   6.433   4.241   4.072 -1.7544 -1.6431  0.1048
15119TIP3    H266849   6.499   4.111   4.030 -1.1547 -1.5855  0.8409
15120TIP3   OH266850   6.573   2.162  16.439 -0.4913  0.3508  0.0975
15120TIP3    H166851   6.598   2.172  16.530  0.7344  1.3541 -0.3114
15120TIP3    H266852   6.482   2.132  16.442 -0.2021 -0.4644  1.6290
15121TIP3   OH266853   2.303   4.889  13.792 -0.1486  0.0008  0.3397
15121TIP3    H166854   2.325   4.894  13.699  0.0353 -0.2349  0.3687
15121TIP3    H266855   2.234   4.954  13.804  0.1814  0.3939  0.1392
15122TIP3   OH266856   1.091   4.993  10.471  0.8412 -0.2406  0.4104
15122TIP3    H166857   1.185   4.978  10.461  1.2869  0.5068  2.7267
15122TIP3    H266858   1.076   4.988  10.566 -1.5988 -1.0570  0.0603
15123TIP3   OH266859   3.746   2.780  15.529 -0.5810  0.1809  0.0850
15123TIP3    H166860   3.821   2.835  15.506 -0.8393 -0.0836 -1.4973
15123TIP3    H266861   3.772   2.738  15.611  0.5797  0.8545  0.0916
15124TIP3   OH266862   4.018   6.534  11.886  0.4246 -0.1739  0.7026
15124TIP3    H166863   3.952   6.541  11.817  0.5094 -0.3535  0.6028
15124TIP3    H266864   4.048   6.443  11.881  1.4352  0.1812  0.0539
15125TIP3   OH266865   4.080   5.918  13.679  0.5283  0.1496 -0.5943
15125TIP3    H166866   4.020   5.977  13.724  2.7666  0.7507  1.8594
15125TIP3    H266867   4.122   5.868  13.749  1.5033 -1.6139 -2.3331
15126TIP3   OH266868   5.212   4.118  15.855  0.2574  0.0076 -0.8327
15126TIP3    H166869   5.169   4.051  15.908  1.0049 -0.5404 -0.9031
15126TIP3    H266870   5.163   4.198  15.874 -0.6999 -0.5675 -0.8110
15127TIP3   OH266871   5.736   5.369  16.328  0.3907 -0.0040  0.2095
15127TIP3    H166872   5.653   5.364  16.281  0.5278 -0.7078  0.0416
15127TIP3    H266873   5.718   5.332  16.414  0.7199 -0.9024 -0.0987
15128TIP3   OH266874   3.948   6.382   4.699 -0.3491 -0.2415 -0.2983
15128TIP3    H166875   3.865   6.349   4.735 -0.8521  1.5066  0.1999
15128TIP3    H266876   3.924   6.414   4.612 -0.8562  2.8142  0.8672
15129TIP3   OH266877   0.846   6.375   0.726  0.1895  0.9100 -0.0105
15129TIP3    H166878   0.794   6.451   0.700  1.1257  1.8973  0.8593
15129TIP3    H266879   0.913   6.368   0.657 -0.2718  0.4738 -0.4206
15130TIP3   OH266880   3.414   5.828   4.644  0.3680 -0.8919 -0.1085
15130TIP3    H166881   3.443   5.910   4.685 -0.2544 -0.1408 -1.1175
15130TIP3    H266882   3.321   5.822   4.666  0.2815 -1.0378 -0.5044
15131TIP3   OH266883   5.584   0.930   0.885  0.3576 -0.1768 -0.5054
15131TIP3    H166884   5.579   1.006   0.942 -1.9327 -0.7611  0.1444
15131TIP3    H266885   5.645   0.871   0.929 -0.1608  0.0437  0.5252
15132TIP3   OH266886   5.048   0.162   3.722  0.0089 -0.1826 -0.0916
15132TIP3    H166887   5.112   0.142   3.789 -0.5223 -1.5630  0.0376
15132TIP3    H266888   5.069   0.252   3.694  0.0466  0.5398  2.0953
15133TIP3   OH266889   1.054   3.399  16.343 -0.2618 -0.1956  0.0914
15133TIP3    H166890   1.051   3.375  16.436 -0.4542 -1.6689 -0.2765
15133TIP3    H266891   0.966   3.429  16.323 -0.8355 -1.9011 -0.1002
15134TIP3   OH266892   1.328   1.485  13.024 -0.2903  0.4388 -0.3958
15134TIP3    H166893   1.294   1.410  13.073 -2.2965  0.8247 -1.0798
15134TIP3    H266894   1.414   1.457  12.993 -0.9344 -1.5367 -0.5243
15135TIP3   OH266895   3.029   6.626  16.697  0.5917 -0.2040 -0.1832
15135TIP3    H166896   3.008   6.655  16.609  1.5894 -0.1618 -0.4219
15135TIP3    H266897   3.060   6.536  16.686  1.0773 -0.0717  0.0691
15136TIP3   OH266898   1.608   4.618  11.719  0.1484  0.1066  0.1165
15136TIP3    H166899   1.573   4.694  11.765  1.6007  2.2896 -2.1526
15136TIP3    H266900   1.689   4.597  11.765 -0.1640 -0.0181  0.6302
15137TIP3   OH266901   4.254   5.238   5.026 -0.1982 -0.2196  0.1621
15137TIP3    H166902   4.162   5.249   5.005  0.2405  1.4071 -1.1545
15137TIP3    H266903   4.300   5.290   4.960  1.7725 -2.6646 -0.5598
15138TIP3   OH266904   1.630   4.354   4.732  0.2709  0.0231  0.1965
15138TIP3    H166905   1.554   4.363   4.675 -1.0189 -1.2916  1.6223
15138TIP3    H266906   1.638   4.260   4.746  1.0431  0.2657  1.5225
15139TIP3   OH266907   4.773   2.524   2.724 -0.1066 -0.0991 -0.0576
15139TIP3    H166908   4.819   2.478   2.655 -0.3594  0.5054 -0.6405
15139TIP3    H266909   4.682   2.496   2.715 -0.7520  2.2552 -1.9733
15140TIP3   OH266910   4.168   4.881   4.506 -0.3793 -0.1596  0.3713
15140TIP3    H166911   4.097   4.857   4.447  0.7322 -1.7941 -0.3558
15140TIP3    H266912   4.158   4.823   4.581  1.1230 -1.5954 -0.4836
15141TIP3   OH266913   0.171   4.621  14.767 -0.3264 -0.5751  0.0807
15141TIP3    H166914   0.225   4.654  14.838  0.6150 -1.1130 -0.3636
15141TIP3    H266915   0.088   4.668  14.776  0.6557  1.2800 -0.0177
15142TIP3   OH266916   4.859   2.576  16.282 -0.3248 -0.1491  0.5204
15142TIP3    H166917   4.846   2.636  16.356 -1.0607  0.6052 -0.1921
15142TIP3    H266918   4.779   2.524  16.279 -0.0921 -0.5102  0.5429
15143TIP3   OH266919   4.778   0.350  16.452  0.1439  0.3404 -0.5793
15143TIP3    H166920   4.754   0.299  16.529  1.9976 -0.2758 -0.3448
15143TIP3    H266921   4.696   0.389  16.422 -0.4489  1.8816  2.5931
15144TIP3   OH266922   4.476   5.187  14.706  0.6148 -0.1401 -0.2596
15144TIP3    H166923   4.494   5.272  14.748  0.0066 -0.4667  0.6992
15144TIP3    H266924   4.439   5.134  14.776 -2.4069 -0.0821 -1.6490
15145TIP3   OH266925   2.866   4.600   5.090 -0.0283  0.6398 -0.2791
15145TIP3    H166926   2.848   4.589   4.997  1.2700  1.6598 -0.6679
15145TIP3    H266927   2.785   4.635   5.126 -0.2081  1.2170 -1.2196
15146TIP3   OH266928   0.575   4.826   2.758 -0.3388  0.2273 -0.4869
15146TIP3    H166929   0.651   4.826   2.700  0.2761  0.3849  0.3130
15146TIP3    H266930   0.517   4.893   2.720  0.6037  1.2297 -0.2210
15147TIP3   OH266931   6.559   5.122   0.122 -1.0035  0.1200 -0.3958
15147TIP3    H166932   6.484   5.130   0.181 -1.3402  0.5160 -0.8660
15147TIP3    H266933   6.598   5.210   0.122 -2.1908  0.7142 -2.2937
15148TIP3   OH266934   4.149   4.759  11.247  0.1705  0.2585  0.1903
15148TIP3    H166935   4.189   4.674  11.228  0.8461  0.4299  0.7806
15148TIP3    H266936   4.058   4.749  11.221  0.4078 -0.4102 -0.4328
15149TIP3   OH266937   1.561   0.571  11.340  0.0262 -0.4524  0.9585
15149TIP3    H166938   1.574   0.614  11.424  1.1525 -1.2851  1.2380
15149TIP3    H266939   1.533   0.641  11.281  1.1805  0.5356  1.5453
15150TIP3   OH266940   6.569   1.324  15.102 -0.1839  0.1037 -0.0118
15150TIP3    H166941   6.632   1.394  15.120  0.7443 -0.7628  0.1596
15150TIP3    H266942   6.492   1.347  15.155  0.1644  0.9167  0.1488
15151TIP3   OH266943   0.563   3.282   3.853 -0.5311 -0.1534 -0.1909
15151TIP3    H166944   0.510   3.339   3.798 -1.5455  1.5769  2.3691
15151TIP3    H266945   0.500   3.223   3.894  0.1985 -1.4302 -0.8610
15152TIP3   OH266946   6.721   1.455  11.214  0.1251 -0.5417 -0.0433
15152TIP3    H166947   6.755   1.544  11.216  0.1803 -0.5626 -0.0403
15152TIP3    H266948   6.630   1.464  11.187 -0.0243 -0.4408  0.4832
15153TIP3   OH266949   3.539   0.028  16.783  0.1657  0.2933  0.7210
15153TIP3    H166950   3.478   0.012  16.711  0.9812  0.1610  0.0495
15153TIP3    H266951   3.487   0.015  16.862 -0.7002  0.2839  0.1600
15154TIP3   OH266952   4.496   0.903  16.346  0.1964  0.1260  0.8244
15154TIP3    H166953   4.430   0.856  16.294 -1.3590  2.1898  0.8108
15154TIP3    H266954   4.461   0.904  16.435  1.4701 -0.9193  1.3640
15155TIP3   OH266955   2.410   0.631   3.345 -0.4136  0.1062 -0.2830
15155TIP3    H166956   2.364   0.557   3.385 -0.7017 -0.3708 -1.4495
15155TIP3    H266957   2.424   0.604   3.254 -1.0311  1.7129 -0.8902
15156TIP3   OH266958   3.945   3.113  15.678  0.3781  0.2870  0.1218
15156TIP3    H166959   3.914   3.057  15.750  0.9146 -1.1208 -0.6887
15156TIP3    H266960   3.889   3.191  15.682 -0.2025 -0.1725  1.4893
15157TIP3   OH266961   5.670   2.430  12.112 -0.2959  0.2755 -0.4712
15157TIP3    H166962   5.718   2.353  12.141  2.8233  2.4727  0.7450
15157TIP3    H266963   5.609   2.450  12.184  0.3792  0.1114  0.1553
15158TIP3   OH266964   4.894   1.845  17.028 -0.0961  0.6346  0.2842
15158TIP3    H166965   4.866   1.913  16.968 -1.7111 -0.2232  0.0200
15158TIP3    H266966   4.885   1.764  16.977 -0.0965  0.0376  1.2254
15159TIP3   OH266967   5.997   6.164  12.703  0.3403 -0.0057 -0.2385
15159TIP3    H166968   5.984   6.234  12.638 -0.7571  0.6175  0.5978
15159TIP3    H266969   5.986   6.083  12.654 -1.8768  0.4599 -0.6372
15160TIP3   OH266970   6.706   1.906  11.711 -0.9298 -0.0824  0.1650
15160TIP3    H166971   6.615   1.930  11.728 -1.4156 -1.0186 -0.9169
15160TIP3    H266972   6.700   1.840  11.641  0.6213  0.4351 -0.5036
15161TIP3   OH266973   0.330   1.368   1.256 -0.0223 -0.5628 -0.3821
15161TIP3    H166974   0.400   1.423   1.220 -1.5636  0.5106 -1.8760
15161TIP3    H266975   0.312   1.406   1.342  1.0326 -0.7045 -0.0823
15162TIP3   OH266976   0.983   5.643  11.065 -0.2932 -0.4029  0.0207
15162TIP3    H166977   0.970   5.655  10.971  0.9371 -0.2945 -0.1498
15162TIP3    H266978   1.038   5.565  11.072  0.1757 -0.0320  0.6134
15163TIP3   OH266979   1.079   1.643  13.998  0.2478  0.2164 -0.0400
15163TIP3    H166980   1.167   1.679  14.006 -0.1992  1.7540 -1.3539
15163TIP3    H266981   1.027   1.693  14.061 -0.1621  1.1881 -1.1077
15164TIP3   OH266982   2.244   2.513   4.886 -0.4414 -0.2160 -0.4031
15164TIP3    H166983   2.275   2.594   4.847 -0.0769  0.1550  0.6036
15164TIP3    H266984   2.286   2.444   4.836 -1.0162  0.2019 -1.4839
15165TIP3   OH266985   6.503   0.111  13.069  0.1394  0.0019  0.1955
15165TIP3    H166986   6.475   0.027  13.034 -2.6991  1.1384 -0.5517
15165TIP3    H266987   6.534   0.160  12.992 -0.8093  0.5584  0.1526
15166TIP3   OH266988   5.683   0.125   1.552 -0.2859  0.3504  0.3261
15166TIP3    H166989   5.621   0.093   1.487  0.8950 -0.8284 -0.2626
15166TIP3    H266990   5.757   0.158   1.500  0.7946 -0.8573  1.0327
15167TIP3   OH266991   6.693   2.489  16.486 -0.0665 -0.0167 -0.1935
15167TIP3    H166992   6.762   2.525  16.431 -0.2206  1.1746  0.3810
15167TIP3    H266993   6.673   2.404  16.445  1.2107 -0.0602 -0.7890
15168TIP3   OH266994   3.696   2.862  13.539 -0.9652 -0.1461  0.2290
15168TIP3    H166995   3.708   2.883  13.447 -1.0845 -0.8755  0.0453
15168TIP3    H266996   3.776   2.895  13.582 -2.0993  2.7538  0.3284
15169TIP3   OH266997   0.786   3.873  15.735 -1.0021  0.4859 -0.9536
15169TIP3    H166998   0.737   3.939  15.686 -1.3728  1.2626  0.4130
15169TIP3    H266999   0.721   3.809  15.761 -1.0402  0.7294 -0.4294
15170TIP3   OH267000   6.253   1.233  11.590  0.4897 -0.0974 -0.1572
15170TIP3    H167001   6.337   1.195  11.613  1.2065  1.3238 -0.3243
15170TIP3    H267002   6.253   1.237  11.494  0.8780  1.2334 -0.1241
15171TIP3   OH267003   4.824   5.288  16.949  0.2187  0.6171 -0.1073
15171TIP3    H167004   4.900   5.345  16.961  0.8987 -0.3263  0.1061
15171TIP3    H267005   4.845   5.209  16.998  0.1098 -0.6019 -1.9527
15172TIP3   OH267006   5.182   0.122   0.297 -0.5483  0.1632 -0.6031
15172TIP3    H167007   5.246   0.059   0.330 -0.6784 -0.3730 -1.3344
15172TIP3    H267008   5.167   0.182   0.370 -0.5866 -0.7869  0.1904
15173TIP3   OH267009   0.089   4.349   3.878  1.0473 -0.1506  0.0669
15173TIP3    H167010   0.076   4.378   3.969 -0.7503 -1.0857  0.1463
15173TIP3    H267011   0.028   4.402   3.827 -0.2889 -1.7982 -0.1345
15174TIP3   OH267012   3.510   2.167   6.056  0.2459  0.0824 -0.1432
15174TIP3    H167013   3.532   2.098   5.993 -0.8818  0.7108 -1.2634
15174TIP3    H267014   3.592   2.185   6.101  0.2659 -3.1488  1.4088
15175TIP3   OH267015   0.113   3.299   4.461  0.4061 -0.1054 -0.5400
15175TIP3    H167016   0.182   3.234   4.446 -0.9135 -1.5112 -0.8713
15175TIP3    H267017   0.034   3.247   4.474 -0.4395  1.4253  0.7971
15176TIP3   OH267018   6.253   0.897   6.145 -0.2307 -0.0779 -0.3345
15176TIP3    H167019   6.324   0.917   6.206  0.5281 -3.5179  0.1580
15176TIP3    H267020   6.182   0.865   6.200 -1.1411  0.7188 -1.0122
15177TIP3   OH267021   0.197   2.343  11.994  0.2637  0.5080  1.1860
15177TIP3    H167022   0.198   2.291  12.074 -0.5391  0.6755  1.3114
15177TIP3    H267023   0.153   2.424  12.018 -1.6433 -0.1592  0.1575
15178TIP3   OH267024   0.538   0.283  14.374  0.2087  0.2245  0.2602
15178TIP3    H167025   0.593   0.215  14.414 -1.1041 -1.1462 -0.1623
15178TIP3    H267026   0.600   0.344  14.336  1.4605 -1.2538 -0.1909
15179TIP3   OH267027   1.893   5.521  10.933  0.5584 -0.3725 -0.1617
15179TIP3    H167028   1.873   5.611  10.906 -0.6613 -0.3689  0.6647
15179TIP3    H267029   1.961   5.493  10.872  1.1944  1.2149 -0.2414
15180TIP3   OH267030   1.081   0.139   1.052 -0.2023  0.4989 -0.1674
15180TIP3    H167031   1.017   0.069   1.035  0.0212  0.2658 -0.0466
15180TIP3    H267032   1.069   0.160   1.144  1.1363 -0.7986  0.3317
15181TIP3   OH267033   1.433   1.051  12.423  0.1028  0.3633 -0.1848
15181TIP3    H167034   1.355   1.006  12.454  0.1468 -1.1135 -2.0774
15181TIP3    H267035   1.401   1.113  12.357  0.5753 -1.0084 -1.7617
15182TIP3   OH267036   2.247   5.722  16.232  0.3241  0.0028  0.2366
15182TIP3    H167037   2.293   5.698  16.312 -0.5645  1.9631  1.4126
15182TIP3    H267038   2.155   5.706  16.252  0.1215  0.2083 -0.5052
15183TIP3   OH267039   4.898   0.744  11.755 -0.3943  0.5026 -0.2374
15183TIP3    H167040   4.962   0.673  11.758  1.2665  1.8803 -1.1401
15183TIP3    H267041   4.865   0.743  11.665  1.1295  2.0455 -0.8735
15184TIP3   OH267042   5.239   3.772  10.753  0.0967  0.2782 -0.0296
15184TIP3    H167043   5.170   3.706  10.745  0.0968  0.0346  1.6257
15184TIP3    H267044   5.240   3.815  10.668 -1.8238  0.0135 -0.2464
15185TIP3   OH267045   1.529   6.269   5.569 -0.5293  0.6947  0.2065
15185TIP3    H167046   1.560   6.308   5.488  0.1613  3.0193  1.4828
15185TIP3    H267047   1.478   6.339   5.611 -1.2045 -0.5740  1.5894
15186TIP3   OH267048   4.092   6.749   2.069 -0.1319  0.1669 -0.5944
15186TIP3    H167049   4.105   6.754   2.163 -2.6422 -0.6300 -0.1487
15186TIP3    H267050   4.156   6.684   2.039 -0.1503 -0.4899  0.7374
15187TIP3   OH267051   0.226   0.057  15.738  0.4453  0.3155  0.1086
15187TIP3    H167052   0.315   0.079  15.712  0.4339  1.4282  0.9339
15187TIP3    H267053   0.194  -0.001  15.669  1.0911  1.5648 -1.2867
15188TIP3   OH267054   3.203   2.836   0.761  0.2614  0.4533  0.1725
15188TIP3    H167055   3.201   2.766   0.696 -0.6729 -1.7721  2.3957
15188TIP3    H267056   3.221   2.791   0.844 -1.7617  2.6115  1.9410
15189TIP3   OH267057   3.743   6.116   0.216 -0.0359 -0.3067 -0.8475
15189TIP3    H167058   3.768   6.203   0.184 -1.4438  0.3909 -0.1395
15189TIP3    H267059   3.780   6.110   0.304  0.4514 -0.6173 -1.0706
15190TIP3   OH267060   5.225   1.856   5.034 -0.0354 -1.0195  0.1905
15190TIP3    H167061   5.287   1.801   5.081  1.6722  0.3152 -0.3977
15190TIP3    H267062   5.243   1.944   5.066 -1.1336 -0.5131 -0.5353
15191TIP3   OH267063   0.887   1.910  16.864  0.0210  0.0040 -0.2709
15191TIP3    H167064   0.892   2.001  16.835 -1.7506 -0.1523 -1.1948
15191TIP3    H267065   0.840   1.865  16.794  1.3545 -1.7681 -0.0974
15192TIP3   OH267066   6.355   0.631   0.123 -0.0773 -0.1409 -0.2439
15192TIP3    H167067   6.284   0.634   0.058  0.9407  1.5629 -1.3510
15192TIP3    H267068   6.320   0.575   0.193 -2.9378  1.4672 -0.2161
15193TIP3   OH267069   4.821   0.957  11.401 -0.5234  0.7495  0.1226
15193TIP3    H167070   4.799   1.008  11.323 -1.6589 -0.5684 -0.4572
15193TIP3    H267071   4.767   0.994  11.470  0.2597  1.7206  0.2418
15194TIP3   OH267072   6.292   5.629   0.938  0.3363  0.4690 -0.5138
15194TIP3    H167073   6.315   5.554   0.882  0.6345  0.3978 -0.3011
15194TIP3    H267074   6.376   5.660   0.971  0.1241  0.1801  0.3207
15195TIP3   OH267075   0.614   0.789   3.289  0.2631 -0.1138 -0.2752
15195TIP3    H167076   0.623   0.882   3.267  0.4185 -0.4053 -1.4702
15195TIP3    H267077   0.636   0.742   3.209 -1.4492 -1.1556 -0.1981
15196TIP3   OH267078   6.191   6.688   5.186 -0.5387  0.1022  1.0907
15196TIP3    H167079   6.138   6.767   5.198  0.1691  0.3357  3.2825
15196TIP3    H267080   6.150   6.623   5.243  0.0957 -0.4554  0.9183
15197TIP3   OH267081   5.178   0.508  14.165  0.1235 -1.0168  1.0552
15197TIP3    H167082   5.219   0.426  14.192  2.6130  0.1467  1.0721
15197TIP3    H267083   5.113   0.525  14.232  1.2127 -1.8059  2.3766
15198TIP3   OH267084   2.682   0.012   5.309  0.4453  0.6668 -0.4414
15198TIP3    H167085   2.646  -0.026   5.229  1.5070  1.5680 -1.3922
15198TIP3    H267086   2.606   0.024   5.366 -0.3319 -0.0355 -1.2981
15199TIP3   OH267087   6.279   3.488   5.718 -0.2855 -0.0001  0.3507
15199TIP3    H167088   6.205   3.527   5.672 -0.9835  0.6248  1.9533
15199TIP3    H267089   6.257   3.395   5.725 -0.6558  0.0849  0.3286
15200TIP3   OH267090   0.201   1.631   4.200 -0.1302  0.1433 -0.1685
15200TIP3    H167091   0.123   1.675   4.168 -0.4719  0.4076  0.9855
15200TIP3    H267092   0.240   1.693   4.263  1.4834  0.3842 -1.3300
15201TIP3   OH267093   2.787   2.805  11.014  0.0299 -0.5396  0.2046
15201TIP3    H167094   2.869   2.826  10.968 -0.9497  2.0907 -0.5518
15201TIP3    H267095   2.722   2.796  10.944 -1.2639  2.3817  0.8895
15202TIP3   OH267096   2.480   0.159  16.049 -0.1686 -0.4346  0.2001
15202TIP3    H167097   2.510   0.217  15.979  0.7152 -2.6083 -1.3500
15202TIP3    H267098   2.391   0.135  16.025  0.0655 -1.0324 -0.0737
15203TIP3   OH267099   4.901   2.921   6.163 -0.6897 -0.4677 -0.7656
15203TIP3    H167100   4.955   2.847   6.135 -1.4277 -1.2362 -0.2063
15203TIP3    H267101   4.865   2.894   6.247  0.2819  1.1867  0.2272
15204TIP3   OH267102   0.926   3.233   1.170 -0.1536  0.0180  0.0273
15204TIP3    H167103   0.994   3.290   1.134 -1.5347  1.9916  0.3583
15204TIP3    H267104   0.851   3.291   1.183 -1.2671 -1.6497  1.5363
15205TIP3   OH267105   3.927   5.386  16.848 -0.2398  0.2128  0.4339
15205TIP3    H167106   3.862   5.423  16.789  1.1646 -1.2905 -2.2785
15205TIP3    H267107   3.892   5.301  16.872 -0.1464  0.2003  0.5273
15206TIP3   OH267108   1.805   0.698   3.489 -0.0656  0.1097  0.1171
15206TIP3    H167109   1.809   0.751   3.569  0.0704 -0.4401  0.4781
15206TIP3    H267110   1.760   0.618   3.514 -0.9664  0.3707 -0.6198
15207TIP3   OH267111   4.294   5.090  16.600 -0.1206  0.3412  0.2900
15207TIP3    H167112   4.373   5.141  16.622 -0.3732  0.4988  0.8723
15207TIP3    H267113   4.327   5.006  16.570  0.3233  1.0111 -1.1753
15208TIP3   OH267114   4.501   4.232   1.429 -0.1047  0.0372 -0.3087
15208TIP3    H167115   4.426   4.290   1.445 -0.4168 -0.0116 -1.5099
15208TIP3    H267116   4.558   4.245   1.505 -2.4108 -1.7363  1.8590
15209TIP3   OH267117   6.607   0.224  14.138  0.1497  0.0929  0.1314
15209TIP3    H167118   6.525   0.222  14.188  0.5128 -0.7740  0.7229
15209TIP3    H267119   6.660   0.289  14.184  0.8881 -1.4535  1.6097
15210TIP3   OH267120   6.270   1.938  16.192  0.1193 -0.2085 -0.2067
15210TIP3    H167121   6.352   1.972  16.227 -0.5916 -0.2069  1.5511
15210TIP3    H267122   6.257   1.987  16.111  1.6195  0.0994 -0.2915
15211TIP3   OH267123   0.052   2.089   2.433  0.3992 -0.1886  0.0732
15211TIP3    H167124   0.103   2.165   2.404  0.9085 -0.6750 -0.3172
15211TIP3    H267125  -0.018   2.127   2.487  0.3371  0.6038 -0.5355
15212TIP3   OH267126   0.770   4.930   5.741  0.1935  0.1712 -0.3748
15212TIP3    H167127   0.788   4.878   5.819 -1.7105  0.6383  0.4360
15212TIP3    H267128   0.774   5.021   5.771 -0.9372  0.3494 -0.6937
15213TIP3   OH267129   5.759   5.171  16.822 -0.5028  0.0630  0.2095
15213TIP3    H167130   5.697   5.107  16.858 -1.9734  1.4668  0.3157
15213TIP3    H267131   5.721   5.196  16.738 -0.0117  0.8565  0.2123
15214TIP3   OH267132   1.709   0.763  11.881  0.0742 -0.2995 -0.6863
15214TIP3    H167133   1.632   0.735  11.831 -1.2974  0.8920  0.6550
15214TIP3    H267134   1.683   0.846  11.921  2.8582  1.2895 -1.9141
15215TIP3   OH267135   3.442   2.481  15.764  0.0776  0.1363  0.6183
15215TIP3    H167136   3.460   2.476  15.670 -2.3042  1.0781  0.0501
15215TIP3    H267137   3.477   2.398  15.798 -1.1334 -1.3792 -1.5167
15216TIP3   OH267138   0.119   6.184  13.506  0.4294 -0.1891 -0.0798
15216TIP3    H167139   0.075   6.106  13.540 -0.4261 -0.0696 -0.8891
15216TIP3    H267140   0.185   6.149  13.445  0.2708 -0.2913 -0.1927
15217TIP3   OH267141   0.325   5.389  12.496  0.7683  0.4923 -0.1704
15217TIP3    H167142   0.389   5.378  12.426  1.2767  0.7706  0.2462
15217TIP3    H267143   0.363   5.343  12.571  0.4025  0.5150  0.0305
15218TIP3   OH267144   4.196   5.552  12.372  0.3047 -0.1135 -0.9766
15218TIP3    H167145   4.140   5.501  12.313 -0.4606 -1.5446  0.8865
15218TIP3    H267146   4.282   5.511  12.366  0.6330  0.6810 -2.1513
15219TIP3   OH267147   2.602   1.040   5.755 -0.0831  0.3848  0.1825
15219TIP3    H167148   2.595   1.064   5.662 -1.1903 -1.1371 -0.1690
15219TIP3    H267149   2.542   1.099   5.800 -0.8604 -0.0226 -0.3104
15220TIP3   OH267150   4.389   3.098  11.341  0.2664  0.8909  1.2270
15220TIP3    H167151   4.297   3.071  11.335  0.8975 -1.1618 -0.2215
15220TIP3    H267152   4.393   3.180  11.291 -0.4615 -0.0278 -0.4236
15221TIP3   OH267153   4.359   2.390   1.638  0.8943  0.6226 -0.1059
15221TIP3    H167154   4.386   2.301   1.614  0.1455  0.6078 -0.9346
15221TIP3    H267155   4.388   2.445   1.566 -1.2617  0.5886 -1.1049
15222TIP3   OH267156   4.057   5.096   5.693  0.0447 -0.5843 -0.2864
15222TIP3    H167157   4.087   5.111   5.603  3.0368  0.8332  0.7929
15222TIP3    H267158   4.131   5.053   5.736 -0.3600  0.8272  2.0220
15223TIP3   OH267159   0.649   6.373  15.699  0.0530  0.7291 -0.6442
15223TIP3    H167160   0.581   6.309  15.676 -0.0688  1.2536 -1.7747
15223TIP3    H267161   0.639   6.385  15.794 -0.3264 -0.4571 -0.5157
15224TIP3   OH267162   0.913   2.860   5.432 -0.2615 -0.7386 -0.7845
15224TIP3    H167163   0.865   2.903   5.502 -1.4325 -0.3945 -1.7720
15224TIP3    H267164   0.986   2.919   5.413 -1.1818  0.2518 -1.3220
15225TIP3   OH267165   3.437   1.948  14.927  0.1993  0.0923  0.3020
15225TIP3    H167166   3.470   1.957  15.017 -1.1860  0.7056  0.7687
15225TIP3    H267167   3.514   1.964  14.872  1.3091 -1.3246  1.3684
15226TIP3   OH267168   4.930   5.326   1.800  0.0562 -0.6348 -0.1521
15226TIP3    H167169   4.962   5.417   1.803  0.7828 -0.8896  2.2569
15226TIP3    H267170   4.916   5.309   1.707 -0.9526  2.2125 -0.6396
15227TIP3   OH267171   0.142   4.090  14.022  0.1416 -0.1170  0.0533
15227TIP3    H167172   0.206   4.126  13.961  0.4487  2.8555  1.9336
15227TIP3    H267173   0.194   4.053  14.093 -0.1844  0.4968  0.6278
15228TIP3   OH267174   2.805   2.604   1.816 -0.0452 -0.0235 -0.0068
15228TIP3    H167175   2.778   2.512   1.820 -0.9254  0.2614  1.3057
15228TIP3    H267176   2.873   2.606   1.749 -0.7546 -1.4370 -0.8322
15229TIP3   OH267177   6.014   4.658  15.074  0.1000 -0.0137 -0.3948
15229TIP3    H167178   5.975   4.691  14.993 -1.3253  3.0985  1.3904
15229TIP3    H267179   5.945   4.667  15.139  1.9841 -0.0527  1.7044
15230TIP3   OH267180   2.611   5.586  11.365  0.0138 -0.0284 -0.4053
15230TIP3    H167181   2.696   5.601  11.407 -0.0390  1.6342 -0.7949
15230TIP3    H267182   2.562   5.533  11.427  0.6662  0.6232  0.7077
15231TIP3   OH267183   3.175   4.741   1.974 -0.0727 -0.1015  0.0372
15231TIP3    H167184   3.113   4.706   1.910  1.1577 -0.6053 -0.9155
15231TIP3    H267185   3.137   4.721   2.059 -1.3516 -0.1352 -0.5282
15232TIP3   OH267186   6.572   5.484  14.545 -0.3493  0.0042  0.7868
15232TIP3    H167187   6.532   5.544  14.481 -1.0609 -0.9576  0.3021
15232TIP3    H267188   6.658   5.521  14.561 -0.8356  1.2661  0.6431
15233TIP3   OH267189   0.392   5.819  13.910  0.3062  0.1187 -0.3345
15233TIP3    H167190   0.357   5.883  13.971  0.8259  0.0225  0.0736
15233TIP3    H267191   0.487   5.826  13.919  0.3864 -1.7883  0.8813
15234TIP3   OH267192   4.091   0.756   3.290  0.4244 -0.1477  0.0235
15234TIP3    H167193   4.123   0.733   3.203  2.0548  1.3999  0.1484
15234TIP3    H267194   4.071   0.672   3.332  1.5770 -1.0280 -1.1189
15235TIP3   OH267195   6.148   5.830   4.391  0.0720 -0.1998  0.1333
15235TIP3    H167196   6.093   5.754   4.413  1.1353 -0.9080  0.4401
15235TIP3    H267197   6.113   5.862   4.308 -0.5317 -0.9000  0.1079
15236TIP3   OH267198   4.033   5.239  12.279  0.0686  0.3664 -0.4816
15236TIP3    H167199   4.098   5.202  12.219 -0.6926 -1.4422 -0.2426
15236TIP3    H267200   4.060   5.209  12.366 -0.1429  1.0252 -0.1803
15237TIP3   OH267201   2.542   6.363  14.372  0.4863  0.0478 -0.7012
15237TIP3    H167202   2.531   6.369  14.467 -0.3500 -0.6268 -0.7423
15237TIP3    H267203   2.581   6.277  14.357 -1.9863 -1.0986 -1.1222
15238TIP3   OH267204   2.025   1.748   2.246 -0.4173  0.0320 -0.1856
15238TIP3    H167205   2.078   1.825   2.264 -1.0915  0.3388  0.5648
15238TIP3    H267206   1.975   1.771   2.167 -0.5459  0.3314 -0.0180
15239TIP3   OH267207   3.989   5.506  11.619 -0.5677  0.4473 -0.0931
15239TIP3    H167208   4.070   5.463  11.644  0.1411  0.7811 -1.7009
15239TIP3    H267209   3.933   5.435  11.587  0.2523  0.5425 -1.8519
15240TIP3   OH267210   5.892   4.452   4.851 -0.1453  0.8084  0.2124
15240TIP3    H167211   5.969   4.440   4.907 -0.0560 -1.7045 -0.3497
15240TIP3    H267212   5.830   4.501   4.906  1.2403  1.4380  1.2526
15241TIP3   OH267213   0.935   5.639   2.412  0.3366  0.3242  0.3158
15241TIP3    H167214   0.876   5.626   2.486  0.9563  0.4633  0.8433
15241TIP3    H267215   1.004   5.697   2.445  3.1730 -3.0992  1.1071
15242TIP3   OH267216   6.130   0.705  12.731 -0.3102  0.1608  0.6830
15242TIP3    H167217   6.130   0.747  12.817  1.1181  0.0788  0.7470
15242TIP3    H267218   6.053   0.648  12.732 -0.4821  0.3919  1.7882
15243TIP3   OH267219   6.573   5.714  15.022  0.5562  0.0389  0.5661
15243TIP3    H167220   6.581   5.798  15.067 -0.4492 -0.6559  2.1446
15243TIP3    H267221   6.651   5.666  15.048  0.6768  0.1489  0.4096
15244TIP3   OH267222   6.557   3.006  12.051 -0.1992  0.2410  0.4100
15244TIP3    H167223   6.642   3.044  12.031 -0.7304  0.8767 -0.7648
15244TIP3    H267224   6.560   2.988  12.145  1.2946  0.0524  0.3455
15245TIP3   OH267225   2.432   3.087  13.852  0.4423 -0.0589  0.6521
15245TIP3    H167226   2.376   3.162  13.830  0.7331 -0.3164 -1.1968
15245TIP3    H267227   2.521   3.122  13.848  0.5393 -0.3065  0.6187
15246TIP3   OH267228   2.833   5.237   3.209  0.6121  0.5861 -0.6640
15246TIP3    H167229   2.828   5.201   3.120  0.0894 -0.7844 -0.1057
15246TIP3    H267230   2.774   5.312   3.208  0.2765  0.3227 -1.3576
15247TIP3   OH267231   0.730   3.632  16.807 -0.4356  0.0382  0.3471
15247TIP3    H167232   0.704   3.552  16.761  0.2425  0.4290 -0.7462
15247TIP3    H267233   0.771   3.686  16.740 -0.3571  1.0673  1.1990
15248TIP3   OH267234   4.230   5.019   2.885 -0.8035  0.0146  0.0491
15248TIP3    H167235   4.151   4.999   2.934 -0.8156  0.7227  0.3295
15248TIP3    H267236   4.199   5.061   2.804 -0.7547 -0.6146 -0.3062
15249TIP3   OH267237   4.437   2.597  16.501 -0.1918 -0.3413  0.5896
15249TIP3    H167238   4.481   2.605  16.586 -1.1897 -0.1402  1.1095
15249TIP3    H267239   4.363   2.537  16.518  1.0486 -2.3790 -0.7448
15250TIP3   OH267240   4.039   4.623   5.640  0.2479 -0.0728  0.3470
15250TIP3    H167241   3.996   4.556   5.693 -2.7729 -1.1165 -3.0376
15250TIP3    H267242   3.970   4.686   5.620  0.8513 -0.2967 -3.0378
15251TIP3   OH267243   3.018   5.931  16.503 -0.3534  0.1945 -0.4266
15251TIP3    H167244   3.015   5.835  16.503  1.2823  0.1112 -0.6628
15251TIP3    H267245   3.068   5.953  16.582  2.5313  0.6440 -2.2440
15252TIP3   OH267246   2.086   0.802   4.194 -0.7811 -0.2111  0.2684
15252TIP3    H167247   1.997   0.838   4.193 -0.5656  0.3748  1.1774
15252TIP3    H267248   2.082   0.729   4.133 -1.1978  1.4320 -1.8045
15253TIP3   OH267249   0.941   6.719   0.955 -0.3575  0.1479 -0.6252
15253TIP3    H167250   0.846   6.710   0.959 -0.3310  0.4242  1.2429
15253TIP3    H267251   0.974   6.629   0.960 -0.4910  0.1381  0.1058
15254TIP3   OH267252   2.152   1.427  16.399  0.1913  0.0551  0.1661
15254TIP3    H167253   2.228   1.475  16.367  0.4428 -0.3661  0.1281
15254TIP3    H267254   2.117   1.482  16.469 -0.9568  1.4943 -1.4321
15255TIP3   OH267255   1.774   5.433  14.764 -0.0052  0.4000 -0.2970
15255TIP3    H167256   1.725   5.511  14.790 -0.9178 -1.1216  3.1411
15255TIP3    H267257   1.865   5.454  14.785 -0.2152  0.6509  0.3871
15256TIP3   OH267258   3.454   2.540   1.763  0.3637  0.9021  0.5758
15256TIP3    H167259   3.466   2.457   1.810 -0.8553 -0.1970 -0.9460
15256TIP3    H267260   3.367   2.570   1.789  0.3173  1.0918  0.2123
15257TIP3   OH267261   6.149   0.982  12.628 -0.3300 -0.7195 -0.0788
15257TIP3    H167262   6.111   0.895  12.642 -1.5187 -0.1655  0.2107
15257TIP3    H267263   6.084   1.043  12.664  1.1151  0.2391  1.0333
15258TIP3   OH267264   5.713   2.522   2.831 -0.0403 -0.4781 -0.2340
15258TIP3    H167265   5.767   2.561   2.900  0.9788  0.5152 -1.5368
15258TIP3    H267266   5.682   2.439   2.869  0.5906 -0.0342  1.3494
15259TIP3   OH267267   4.416   0.885  13.996  0.1742  0.2339 -0.5030
15259TIP3    H167268   4.407   0.941  13.919 -1.9505  0.2396 -0.2991
15259TIP3    H267269   4.385   0.939  14.069  2.6921  0.4308  0.5155
15260TIP3   OH267270   4.303   4.262  14.039  0.3348 -0.1441 -0.1333
15260TIP3    H167271   4.276   4.258  13.947 -0.3369  2.6376 -0.1389
15260TIP3    H267272   4.233   4.309  14.082  0.7909 -1.1427  1.7849
15261TIP3   OH267273   0.228   0.189   0.725  0.1330 -0.3440 -0.3044
15261TIP3    H167274   0.157   0.151   0.674  0.1361 -1.3106  0.3717
15261TIP3    H267275   0.185   0.254   0.781 -0.1951 -0.7900 -0.0319
15262TIP3   OH267276   6.649   3.752   4.889 -0.1094  0.0209  0.0832
15262TIP3    H167277   6.636   3.817   4.821  1.2243  0.1134 -0.1136
15262TIP3    H267278   6.684   3.676   4.843  2.4644  0.6678  0.8214
15263TIP3   OH267279   3.443   1.519  12.265 -0.2882 -0.2448 -0.2261
15263TIP3    H167280   3.506   1.584  12.233 -0.5155 -0.5129 -1.2420
15263TIP3    H267281   3.494   1.466  12.326  0.0471  0.5302  0.1864
15264TIP3   OH267282   3.592   1.986  15.745  0.5796  0.5494 -0.5153
15264TIP3    H167283   3.608   1.916  15.807  1.0907  0.8374 -0.3148
15264TIP3    H267284   3.616   1.950  15.660  3.3162  1.2470 -0.1319
15265TIP3   OH267285   0.278   4.988   0.492 -0.2086 -0.2071  0.6278
15265TIP3    H167286   0.372   4.975   0.504 -0.0559 -0.0714 -0.3176
15265TIP3    H267287   0.243   4.900   0.478 -0.2206 -0.2561  0.9653
15266TIP3   OH267288   1.569   2.167  12.428 -0.4378 -0.5676  0.0086
15266TIP3    H167289   1.601   2.126  12.508  3.8070  0.4938 -0.9073
15266TIP3    H267290   1.556   2.259  12.450  1.9665 -0.0011 -0.6853
15267TIP3   OH267291   4.302   1.789  13.099  0.1322 -0.3919  0.3202
15267TIP3    H167292   4.259   1.864  13.059  1.8654 -0.3159 -1.5686
15267TIP3    H267293   4.287   1.717  13.037  0.3910 -1.0388  0.9986
15268TIP3   OH267294   2.400   3.534  15.374  1.2049  0.5836  0.5899
15268TIP3    H167295   2.355   3.503  15.295  1.4653 -0.3484  0.7900
15268TIP3    H267296   2.428   3.623  15.352  2.8786 -0.2729 -1.0905
15269TIP3   OH267297   0.091   1.922   3.472  0.1824 -0.6669  0.3554
15269TIP3    H167298   0.010   1.970   3.459 -0.0202 -0.6476  1.5880
15269TIP3    H267299   0.072   1.860   3.543  1.0505 -1.1111  0.2219
15270TIP3   OH267300   6.394   6.354   1.116  0.3000  0.0313  0.4092
15270TIP3    H167301   6.430   6.424   1.061  1.6417 -1.3781 -0.5673
15270TIP3    H267302   6.322   6.396   1.163 -0.9984  1.3102 -2.4579
15271TIP3   OH267303   5.110   2.261   0.946 -0.1020 -0.4081 -0.1315
15271TIP3    H167304   5.190   2.293   0.903 -0.2614 -0.8668 -0.7754
15271TIP3    H267305   5.142   2.209   1.020  0.1717  0.4130  0.3457
15272TIP3   OH267306   1.404   1.458   2.213 -0.7305 -0.4319  0.4114
15272TIP3    H167307   1.487   1.487   2.175  0.1040  1.5054  3.3397
15272TIP3    H267308   1.421   1.370   2.246 -0.1288 -0.4037  0.1825
15273TIP3   OH267309   5.301   6.100  15.995 -0.9494 -0.3257  0.4071
15273TIP3    H167310   5.333   6.151  15.921 -0.5689 -1.5793 -0.3138
15273TIP3    H267311   5.219   6.062  15.965 -1.4465  0.1845  1.0883
15274TIP3   OH267312   5.637   2.172   5.358 -0.1896  0.0421 -0.7856
15274TIP3    H167313   5.630   2.210   5.270  1.6366  3.5161  0.3885
15274TIP3    H267314   5.564   2.211   5.407 -0.7416 -1.2864 -0.4788
15275TIP3   OH267315   1.479   4.877   5.277 -0.0104  0.1175  0.3234
15275TIP3    H167316   1.423   4.799   5.279 -2.3775  1.6705 -0.4234
15275TIP3    H267317   1.487   4.903   5.369 -0.6445 -0.0868  0.4460
15276TIP3   OH267318   4.746   3.013  10.736  0.8844 -0.5135 -0.8723
15276TIP3    H167319   4.750   2.929  10.691  0.6515 -1.0584  0.0921
15276TIP3    H267320   4.833   3.052  10.723  1.4154 -1.4694 -0.2886
15277TIP3   OH267321   0.367   1.420  17.235  0.0622 -0.2374  0.7569
15277TIP3    H167322   0.303   1.477  17.194 -0.1863  0.2362  1.7769
15277TIP3    H267323   0.434   1.406  17.168 -2.1094 -2.5019 -1.1180
15278TIP3   OH267324   6.002   4.291   4.665  0.1928  0.2148  0.3127
15278TIP3    H167325   5.959   4.208   4.684  1.4737 -0.4555  0.3297
15278TIP3    H267326   5.960   4.353   4.725 -2.5600  0.1786 -1.4171
15279TIP3   OH267327   3.760   6.174  14.760  0.0128  0.4285 -0.0664
15279TIP3    H167328   3.680   6.158  14.809  0.3840 -0.8040  0.1631
15279TIP3    H267329   3.830   6.162  14.824  0.4553 -0.1111 -0.6429
15280TIP3   OH267330   6.794   1.725   0.885 -0.0404 -0.8696 -0.3735
15280TIP3    H167331   6.887   1.713   0.905 -0.1127 -0.2736  0.4125
15280TIP3    H267332   6.786   1.707   0.792  0.5085 -2.9118 -0.0670
15281TIP3   OH267333   4.279   3.563   1.433  0.0465 -0.2438 -0.4443
15281TIP3    H167334   4.215   3.539   1.366  0.9172 -0.1221 -1.3366
15281TIP3    H267335   4.243   3.527   1.514 -1.0756 -0.3058 -0.9500
15282TIP3   OH267336   6.460   5.087   2.628  0.5571  0.0174 -0.1517
15282TIP3    H167337   6.526   5.066   2.561  1.4603  0.4085  0.5947
15282TIP3    H267338   6.393   5.135   2.579  0.1777 -1.4896 -1.1743
15283TIP3   OH267339   0.989   0.518   1.390 -0.0110  0.2693 -0.2818
15283TIP3    H167340   0.925   0.574   1.346  0.1843  0.3519 -0.4616
15283TIP3    H267341   1.074   0.549   1.359  0.0896 -0.3714 -0.6711
15284TIP3   OH267342   1.173   4.125   0.908  0.3455 -0.4323  0.3764
15284TIP3    H167343   1.175   4.190   0.978  0.0882  0.1554 -0.1560
15284TIP3    H267344   1.253   4.140   0.859  0.4565 -0.7502  0.4572
15285TIP3   OH267345   0.681   0.710   3.530 -0.2964  0.2704  0.7224
15285TIP3    H167346   0.603   0.760   3.551 -1.5375 -0.9541 -0.6797
15285TIP3    H267347   0.689   0.717   3.435  0.0959 -1.2713  0.6099
15286TIP3   OH267348   6.256   0.111   2.958  0.1821  0.1642 -0.0934
15286TIP3    H167349   6.311   0.102   2.881  0.8120 -2.1590  0.5380
15286TIP3    H267350   6.276   0.198   2.992  1.3592  0.4563 -1.4491
15287TIP3   OH267351   4.166   1.990   5.192 -0.0706  0.1188 -0.5194
15287TIP3    H167352   4.164   2.086   5.189  0.3897  0.1392 -0.2531
15287TIP3    H267353   4.174   1.963   5.101  0.8130  0.3639 -0.5211
15288TIP3   OH267354   1.436   2.153   2.041 -0.3005  0.4605 -0.3940
15288TIP3    H167355   1.511   2.204   2.012 -1.0198  0.8474 -1.6691
15288TIP3    H267356   1.375   2.219   2.077 -0.1908  0.1961  0.2856
15289TIP3   OH267357   6.722   5.983  12.607 -0.3728  0.5253  0.4127
15289TIP3    H167358   6.653   5.922  12.582  0.7029 -0.3648 -0.5228
15289TIP3    H267359   6.792   5.927  12.641  0.4103  1.2721  0.0824
15290TIP3   OH267360   2.463   0.672   5.097  0.0909  0.7192  0.5339
15290TIP3    H167361   2.496   0.759   5.120  0.5312  0.6782  0.0684
15290TIP3    H267362   2.496   0.615   5.167 -1.5679  1.1781  1.7562
15291TIP3   OH267363   2.667   1.083   6.265  0.4590  0.0344  0.3078
15291TIP3    H167364   2.705   1.123   6.187  0.4004 -0.6184 -0.0561
15291TIP3    H267365   2.574   1.072   6.244  0.6942 -1.3812 -0.0545
15292TIP3   OH267366   6.595   2.698  12.069 -0.1322  0.4619  0.4802
15292TIP3    H167367   6.592   2.794  12.068  0.4166  0.5092  1.6665
15292TIP3    H267368   6.525   2.672  12.129  0.1429  0.1480  0.6709
15293TIP3   OH267369   2.251   3.268  14.662 -0.3193 -0.7202 -0.1968
15293TIP3    H167370   2.241   3.350  14.710  0.0349 -0.5057 -0.4829
15293TIP3    H267371   2.219   3.200  14.721 -0.2477 -0.4153  0.1898
15294TIP3   OH267372   3.160   0.123  13.629  0.5653 -0.0469 -0.2280
15294TIP3    H167373   3.076   0.151  13.665  1.1387  0.4124  0.8057
15294TIP3    H267374   3.188   0.197  13.574  0.2557 -0.2352 -0.6395
15295TIP3   OH267375   4.917   5.785  16.331 -0.4952 -0.2641  0.2690
15295TIP3    H167376   4.904   5.852  16.398  1.5289 -0.2902  0.7466
15295TIP3    H267377   4.896   5.703  16.375  0.6701 -0.2648  0.8695
15296TIP3   OH267378   2.067   4.786  13.342  0.0282 -0.1944 -0.0973
15296TIP3    H167379   2.050   4.711  13.399 -1.8599 -1.5598 -2.2682
15296TIP3    H267380   2.161   4.798  13.345  0.1056 -0.9831  2.3009
15297TIP3   OH267381   5.044   5.993  10.676 -0.2989 -0.3067  0.2787
15297TIP3    H167382   4.952   5.976  10.697 -0.3572  0.8980  1.0328
15297TIP3    H267383   5.059   6.084  10.701  0.8309 -0.1596 -0.7989
15298TIP3   OH267384   3.581   6.104   4.951  0.5981  0.2045  0.5689
15298TIP3    H167385   3.554   6.014   4.934  0.4963  0.7603 -2.7657
15298TIP3    H267386   3.499   6.154   4.947  1.0806  0.9197 -1.9521
15299TIP3   OH267387   6.251   5.113  14.266  0.8178  0.3472  0.7029
15299TIP3    H167388   6.312   5.186  14.271 -0.1580  1.2828 -0.2755
15299TIP3    H267389   6.164   5.154  14.276  0.2852 -0.7473  0.7016
15300TIP3   OH267390   1.683   6.656  13.419  0.0194  0.0461 -0.2447
15300TIP3    H167391   1.684   6.746  13.385 -1.5658  0.3286  0.3917
15300TIP3    H267392   1.724   6.605  13.349 -1.4008  0.8894 -1.7917
15301TIP3   OH267393   1.567   4.552   6.164 -0.0934 -0.0610  0.0930
15301TIP3    H167394   1.629   4.566   6.236  2.2361 -0.1488 -1.7828
15301TIP3    H267395   1.621   4.528   6.089 -2.2746  1.1123 -2.0278
15302TIP3   OH267396   5.745   4.172  10.651  0.3256 -0.0861 -0.7275
15302TIP3    H167397   5.757   4.262  10.682  2.3290 -0.5382 -0.0391
15302TIP3    H267398   5.830   4.130  10.667 -0.8975 -2.4080  0.0268
15303TIP3   OH267399   5.855   0.826   1.824 -0.0081 -0.1844 -0.6763
15303TIP3    H167400   5.861   0.766   1.750  1.2522  1.5699 -2.0846
15303TIP3    H267401   5.766   0.862   1.819 -0.4468 -1.2061 -0.3810
15304TIP3   OH267402   3.364   5.560  16.717 -0.2301  0.1706 -0.4972
15304TIP3    H167403   3.361   5.497  16.645  1.6363  0.7591 -1.1676
15304TIP3    H267404   3.392   5.642  16.675  1.6265  0.3524  0.9723
15305TIP3   OH267405   6.052   2.684  12.060 -0.4756  0.2010 -0.0700
15305TIP3    H167406   6.023   2.653  12.145 -0.0761  1.0717  0.4004
15305TIP3    H267407   6.148   2.686  12.066 -0.4717  1.1845 -0.1854
15306TIP3   OH267408   5.759   4.985   5.334 -0.4773 -0.2278  0.4473
15306TIP3    H167409   5.801   5.063   5.372  0.6039 -0.2786 -0.5604
15306TIP3    H267410   5.715   5.018   5.256  1.0194 -0.7755 -0.6817
15307TIP3   OH267411   3.705   5.875  13.353 -0.2864 -0.1373 -0.0363
15307TIP3    H167412   3.653   5.819  13.411 -1.4718 -1.0583 -1.8947
15307TIP3    H267413   3.794   5.869  13.388 -1.1009  0.2108  2.2838
15308TIP3   OH267414   2.504   3.131   2.334 -0.4064 -0.5884  0.0928
15308TIP3    H167415   2.491   3.073   2.260  1.1083  0.6956 -1.2786
15308TIP3    H267416   2.584   3.179   2.313 -0.7938  0.9558  1.8297
15309TIP3   OH267417   5.670   6.760   4.880 -0.0416  0.1784 -0.1202
15309TIP3    H167418   5.746   6.819   4.883 -0.7033  1.0514  0.0812
15309TIP3    H267419   5.706   6.673   4.896  0.8252  0.6689  0.7046
15310TIP3   OH267420   5.278   6.227   2.519  0.5056 -0.3258 -0.1345
15310TIP3    H167421   5.316   6.224   2.431 -2.1327  0.1068 -1.3813
15310TIP3    H267422   5.309   6.310   2.555  2.7081 -1.1051 -0.0320
15311TIP3   OH267423   4.167   6.811   2.322 -0.1417 -0.1640  0.2532
15311TIP3    H167424   4.180   6.902   2.292  1.0167 -0.3519  0.1280
15311TIP3    H267425   4.157   6.818   2.417  1.4395 -0.0162  0.4338
15312TIP3   OH267426   1.111   6.692   1.504  0.2340  0.5004  0.0461
15312TIP3    H167427   1.043   6.712   1.439 -1.7118 -0.0198  1.8008
15312TIP3    H267428   1.193   6.692   1.454 -1.0679  0.8589 -2.2361
15313TIP3   OH267429   0.356   4.248  14.960  0.1862  0.2939 -0.4192
15313TIP3    H167430   0.275   4.264  14.912  0.4814  1.0676 -0.6676
15313TIP3    H267431   0.426   4.269  14.898  0.5837  2.6771  0.7250
15314TIP3   OH267432   1.451   6.280   2.455 -0.2781 -0.4299  0.4788
15314TIP3    H167433   1.486   6.229   2.382  0.0392 -0.4672  0.6559
15314TIP3    H267434   1.356   6.269   2.448 -0.2378 -0.6234  0.2107
15315TIP3   OH267435   0.710   4.543   3.401  0.2035 -0.4974 -0.3039
15315TIP3    H167436   0.652   4.610   3.367 -0.1409 -0.4797  0.3030
15315TIP3    H267437   0.792   4.589   3.418  0.3469 -0.4869 -1.0026
15316TIP3   OH267438   1.783   6.211   0.993 -0.0090  0.0721 -0.4226
15316TIP3    H167439   1.722   6.222   1.066 -1.6457 -1.6583 -1.4222
15316TIP3    H267440   1.785   6.297   0.950 -0.6701  0.5269  0.4188
15317TIP3   OH267441   1.723   3.077   2.617 -0.5645 -0.2343 -0.4456
15317TIP3    H167442   1.780   3.018   2.667 -0.9254  0.1262  0.4070
15317TIP3    H267443   1.779   3.152   2.596 -0.5575 -0.1435 -0.1098
15318TIP3   OH267444   1.240   1.258  10.409  0.1861 -0.4610  0.2183
15318TIP3    H167445   1.220   1.165  10.418 -1.1527 -0.2781 -0.6107
15318TIP3    H267446   1.316   1.272  10.466 -1.1888 -1.5177  2.4481
15319TIP3   OH267447   4.562   4.888  16.067  0.5375  0.0434 -0.6660
15319TIP3    H167448   4.621   4.849  16.131 -1.3752  1.0014  1.8383
15319TIP3    H267449   4.514   4.955  16.116 -2.2164 -0.2919 -2.6596
15320TIP3   OH267450   5.778   3.180   3.339 -0.4428 -0.1246 -0.4648
15320TIP3    H167451   5.815   3.119   3.275 -1.7649 -1.4476 -0.0337
15320TIP3    H267452   5.846   3.246   3.352  0.9615 -1.3883 -1.1293
15321TIP3   OH267453   1.987   2.461   0.087 -0.2155 -0.1812 -0.2719
15321TIP3    H167454   2.012   2.375   0.121 -0.3408 -0.1294 -0.0427
15321TIP3    H267455   1.959   2.444  -0.003  0.3500 -0.2835 -0.4293
15322TIP3   OH267456   4.465   1.940   5.919 -0.0927 -0.1105  0.1588
15322TIP3    H167457   4.545   1.986   5.943  0.5522 -0.5233 -1.1188
15322TIP3    H267458   4.405   2.009   5.892  1.5859  0.0091 -3.8600
15323TIP3   OH267459   3.414   5.942   1.248  0.4470 -0.6010  0.5004
15323TIP3    H167460   3.430   6.021   1.197 -0.4074 -2.1487 -2.4004
15323TIP3    H267461   3.342   5.965   1.306  1.5704  1.2981  1.2288
15324TIP3   OH267462   6.712   3.106  13.046 -0.0801 -0.2408  0.3403
15324TIP3    H167463   6.715   3.045  13.119  1.4629  0.5968  1.0311
15324TIP3    H267464   6.737   3.054  12.970 -0.9692 -0.9517  0.5270
15325TIP3   OH267465   2.945   3.867  14.698  0.0382  0.2353 -0.3505
15325TIP3    H167466   2.863   3.867  14.649  0.7933 -1.6054 -1.7519
15325TIP3    H267467   2.953   3.777  14.731  1.9647  0.0757 -1.1441
15326TIP3   OH267468   4.762   0.203   3.185  0.3472  0.7463  0.2508
15326TIP3    H167469   4.856   0.214   3.169  0.5065 -1.1730 -0.3862
15326TIP3    H267470   4.726   0.177   3.100 -0.9612  2.4460  0.2420
15327TIP3   OH267471   3.825   3.977   4.201  0.0059  0.4460 -0.1910
15327TIP3    H167472   3.885   3.905   4.220 -2.5383 -2.5799 -2.6132
15327TIP3    H267473   3.793   4.005   4.286  1.4615 -0.9210  0.8595
15328TIP3   OH267474   6.658   3.293  16.891  0.8089  0.4093 -0.0477
15328TIP3    H167475   6.680   3.287  16.798  0.6389  2.7634 -0.3079
15328TIP3    H267476   6.626   3.383  16.902  1.7353  0.5028  2.4772
15329TIP3   OH267477   2.332   3.622   0.094 -0.3352 -0.0593 -0.2745
15329TIP3    H167478   2.300   3.701   0.138  0.9836 -0.3225  1.2877
15329TIP3    H267479   2.321   3.553   0.160  1.6061 -0.5033 -0.3603
15330TIP3   OH267480   1.621   1.148  12.588 -0.4956  0.5029 -0.1922
15330TIP3    H167481   1.567   1.180  12.660 -0.6074  0.8348 -0.4185
15330TIP3    H267482   1.559   1.106  12.529 -0.3873  0.1243 -0.0345
15331TIP3   OH267483   3.797   6.117   5.929  0.3140  0.0113 -0.1757
15331TIP3    H167484   3.863   6.157   5.986 -0.1147  0.5300 -0.0350
15331TIP3    H267485   3.756   6.049   5.983  1.2790 -0.8734 -0.5264
15332TIP3   OH267486   5.608   1.082   6.222 -0.1692 -0.4290  0.0626
15332TIP3    H167487   5.676   1.140   6.257  1.1799 -0.8942 -1.6357
15332TIP3    H267488   5.526   1.128   6.237  0.8371  1.8797 -1.0958
15333TIP3   OH267489   2.207   3.873   5.317  0.4801 -0.0380  0.2016
15333TIP3    H167490   2.182   3.923   5.240  1.2171 -1.7371 -1.2111
15333TIP3    H267491   2.137   3.808   5.328  0.5604 -0.0374  0.7595
15334TIP3   OH267492   4.526   3.965   3.524 -0.1496  0.1445  0.0707
15334TIP3    H167493   4.476   3.998   3.450 -3.3786  0.4715  2.1542
15334TIP3    H267494   4.538   4.041   3.580  1.2956 -0.2862  0.3773
15335TIP3   OH267495   2.554   0.341  17.296  0.2856  0.2940 -0.3424
15335TIP3    H167496   2.610   0.339  17.218  0.6926  2.7199 -0.2164
15335TIP3    H267497   2.614   0.326  17.369  0.4902  1.0723 -0.3340
15336TIP3   OH267498   6.536   3.110  14.427  0.3120  0.1610 -0.1164
15336TIP3    H167499   6.516   3.019  14.406 -2.0955  0.5303  0.2885
15336TIP3    H267500   6.584   3.106  14.510 -1.7789 -0.6910  1.1254
15337TIP3   OH267501   0.508   3.563   1.228 -0.0473 -0.2643 -0.0025
15337TIP3    H167502   0.550   3.645   1.256 -2.6839  0.4984  2.3141
15337TIP3    H267503   0.440   3.591   1.167 -0.1315 -0.8688 -0.1880
15338TIP3   OH267504   0.973   4.670  12.168  0.3246  0.3822 -0.1323
15338TIP3    H167505   0.961   4.763  12.187  0.2547  0.2885  0.2944
15338TIP3    H267506   1.012   4.634  12.248  0.3485  0.0446 -0.2936
15339TIP3   OH267507   2.444   4.038  16.702  0.9683  0.0130  0.6260
15339TIP3    H167508   2.418   4.073  16.787  0.6672  0.4313  0.3687
15339TIP3    H267509   2.540   4.046  16.701  1.1630 -1.7863  1.6890
15340TIP3   OH267510   0.887   4.608   5.440 -0.4726  0.2307  0.0493
15340TIP3    H167511   0.836   4.608   5.521 -1.0504 -0.3846 -0.2974
15340TIP3    H267512   0.931   4.523   5.439 -2.4569 -0.8738 -1.4546
15341TIP3   OH267513   5.453   0.870   3.293  0.5696 -0.8221 -0.2255
15341TIP3    H167514   5.479   0.956   3.260  0.0754 -1.2065 -1.7055
15341TIP3    H267515   5.402   0.889   3.372  2.8411  0.0741  1.1381
15342TIP3   OH267516   2.250   3.399  12.089 -0.0773  0.6854  0.8728
15342TIP3    H167517   2.336   3.406  12.131 -0.5187  1.1943  1.7111
15342TIP3    H267518   2.199   3.471  12.126 -0.7359  0.6505  0.0580
15343TIP3   OH267519   6.576   0.387  11.582 -0.2096  0.5526  0.1219
15343TIP3    H167520   6.634   0.376  11.658  2.3137  1.6817 -1.4960
15343TIP3    H267521   6.602   0.318  11.522 -0.0321  1.4851 -0.9042
15344TIP3   OH267522   0.389   1.704   1.892 -0.1125 -0.2630  0.1621
15344TIP3    H167523   0.310   1.710   1.838 -0.9520  0.0306  1.3988
15344TIP3    H267524   0.452   1.657   1.836 -1.3214 -0.9703 -0.6575
15345TIP3   OH267525   4.369   3.067   2.545  0.4398  0.0806 -0.1623
15345TIP3    H167526   4.436   3.113   2.596  1.5801 -0.4551 -1.1163
15345TIP3    H267527   4.381   2.975   2.568 -0.5641  0.0675  0.3175
15346TIP3   OH267528   3.546   1.822  14.177 -0.0272 -0.5850  0.0844
15346TIP3    H167529   3.519   1.744  14.226 -1.9403 -0.5315 -0.7864
15346TIP3    H267530   3.591   1.787  14.100 -1.2580 -0.9063 -0.5258
15347TIP3   OH267531   1.140   3.673  15.223 -0.0913 -0.3948 -0.0119
15347TIP3    H167532   1.093   3.627  15.153 -1.3877  1.7703 -0.6577
15347TIP3    H267533   1.170   3.755  15.182 -2.2889  1.7254  2.2790
15348TIP3   OH267534   2.240   3.849   0.228 -0.4170  0.0853  0.2392
15348TIP3    H167535   2.160   3.902   0.233 -0.2806  0.4250 -0.7425
15348TIP3    H267536   2.303   3.907   0.185 -0.1723 -0.7657 -0.5752
15349TIP3   OH267537   5.208   2.293  15.710 -0.2284  0.1843  0.3645
15349TIP3    H167538   5.189   2.331  15.796 -3.5727  2.1987 -1.0626
15349TIP3    H267539   5.278   2.347  15.674 -0.3421  0.7340  0.9573
15350TIP3   OH267540   4.852   3.612   4.590 -0.1268 -0.7142 -0.0132
15350TIP3    H167541   4.842   3.596   4.496  1.4366 -1.1087 -0.1332
15350TIP3    H267542   4.945   3.598   4.607 -0.3227 -0.2905  1.5356
15351TIP3   OH267543   1.420   6.218  13.667  0.6211  0.0413 -0.8215
15351TIP3    H167544   1.383   6.240  13.753 -0.7707 -0.7179 -1.2099
15351TIP3    H267545   1.448   6.302  13.631  1.2823  0.3658  0.3794
15352TIP3   OH267546   3.744   0.220  15.354 -0.5064 -0.1736 -0.6140
15352TIP3    H167547   3.706   0.245  15.438 -2.1179  2.6928 -2.0429
15352TIP3    H267548   3.683   0.155  15.319  0.4004 -1.7089  0.5337
15353TIP3   OH267549   1.773   2.431  17.231 -0.3307 -0.3737 -0.2565
15353TIP3    H167550   1.723   2.414  17.310 -1.3548  0.8184 -0.6236
15353TIP3    H267551   1.726   2.382  17.162 -1.1734  0.9304 -0.6434
15354TIP3   OH267552   5.353   1.371   1.384 -0.3904 -0.2033 -0.1697
15354TIP3    H167553   5.302   1.410   1.312 -0.9755  0.1837  0.4361
15354TIP3    H267554   5.408   1.442   1.415  0.1607 -0.4844 -0.4955
15355TIP3   OH267555   0.147   6.536   1.595  0.7859  0.7613  0.5219
15355TIP3    H167556   0.085   6.607   1.578 -0.7220 -0.5067  0.5118
15355TIP3    H267557   0.149   6.485   1.513  0.4786 -0.1928  1.0859
15356TIP3   OH267558   0.332   1.687  11.225 -0.1401 -0.8204  0.1557
15356TIP3    H167559   0.281   1.764  11.199  0.8338 -0.1728  0.0816
15356TIP3    H267560   0.349   1.700  11.319 -0.5980 -1.3300  0.3145
15357TIP3   OH267561   4.457   4.577  14.883 -0.1461  0.3699 -0.5208
15357TIP3    H167562   4.491   4.656  14.840 -0.3371  0.6788 -0.1115
15357TIP3    H267563   4.362   4.585  14.877 -0.2423  1.3078  1.4899
15358TIP3   OH267564   4.053   5.446   4.772  0.0531  0.5614  0.3276
15358TIP3    H167565   4.054   5.382   4.842 -0.8403 -0.2551 -0.3766
15358TIP3    H267566   4.089   5.400   4.696 -0.8579  0.7964 -0.2611
15359TIP3   OH267567   5.984   6.082   1.683 -0.3655 -0.3703  0.1060
15359TIP3    H167568   6.068   6.041   1.706  0.8202  1.7942 -0.0449
15359TIP3    H267569   5.947   6.110   1.766 -0.1365  0.0802  0.0622
15360TIP3   OH267570   2.549   0.406   5.643 -0.5504 -0.2260  0.0376
15360TIP3    H167571   2.594   0.490   5.649 -0.3127 -0.3114 -0.4874
15360TIP3    H267572   2.618   0.341   5.657  0.3611 -0.5137 -4.2386
15361TIP3   OH267573   1.548   3.529   2.290  0.4152  0.1738  0.1416
15361TIP3    H167574   1.512   3.582   2.361  0.3952  1.4945 -0.8260
15361TIP3    H267575   1.599   3.461   2.334  0.2170  0.8324  1.4202
15362TIP3   OH267576   4.848   4.444  15.389 -0.1970 -0.0843  0.0590
15362TIP3    H167577   4.838   4.394  15.308  0.5779  1.9629 -1.4082
15362TIP3    H267578   4.759   4.449  15.425 -0.4415 -1.6005 -0.2835
15363TIP3   OH267579   4.929   4.163   2.023 -0.4653 -0.0481 -0.3582
15363TIP3    H167580   4.908   4.193   2.112  0.6385  1.0205 -0.4402
15363TIP3    H267581   4.876   4.083   2.012 -1.0883  0.1429  1.0207
15364TIP3   OH267582   3.626   3.674  12.580 -0.0706  0.9712  0.1751
15364TIP3    H167583   3.691   3.677  12.649  2.0495  1.2218 -1.7088
15364TIP3    H267584   3.546   3.644  12.623  0.3760  3.6326  3.2216
15365TIP3   OH267585   2.845   5.000   2.375  0.1367 -0.3930 -0.1385
15365TIP3    H167586   2.871   4.942   2.303 -1.3628 -0.7918 -0.3913
15365TIP3    H267587   2.915   4.991   2.439  2.2113  0.9731 -2.0437
15366TIP3   OH267588   3.887   0.948  13.908 -0.3699  0.4928 -0.2107
15366TIP3    H167589   3.904   1.042  13.910  1.1034  0.2858  3.0664
15366TIP3    H267590   3.959   0.911  13.857 -0.2342  1.0292 -0.4052
15367TIP3   OH267591   2.474   1.804   0.079 -0.3642 -0.1245 -0.7695
15367TIP3    H167592   2.514   1.834   0.161 -2.1547 -0.4941  0.3012
15367TIP3    H267593   2.460   1.884   0.029  1.9793 -0.0200 -1.3545
15368TIP3   OH267594   6.480   0.627  12.510 -0.3624  0.2043  0.4051
15368TIP3    H167595   6.411   0.562  12.514  0.8244 -1.0631  0.9134
15368TIP3    H267596   6.561   0.578  12.523  0.5577  1.8114  1.0897
15369TIP3   OH267597   1.054   2.527  14.530 -0.2947 -0.2877  0.5359
15369TIP3    H167598   0.972   2.565  14.563  0.1683  0.0612  1.3118
15369TIP3    H267599   1.028   2.442  14.494 -1.2266  0.4258 -0.5457
15370TIP3   OH267600   4.805   0.656   5.699 -0.0285  0.3571  0.4613
15370TIP3    H167601   4.774   0.692   5.616  1.2240  0.9846  0.2429
15370TIP3    H267602   4.808   0.561   5.684 -0.8322  0.3689  0.1649
15371TIP3   OH267603   6.334   4.347  16.027 -0.1333  0.5886  0.6227
15371TIP3    H167604   6.297   4.314  15.945 -0.3975 -0.7207  1.2374
15371TIP3    H267605   6.275   4.313  16.094  1.0525  0.1715  1.4746
15372TIP3   OH267606   0.243   2.481   4.071 -0.1822  0.0938 -0.2632
15372TIP3    H167607   0.329   2.447   4.046 -0.0877 -0.3897  0.6823
15372TIP3    H267608   0.185   2.405   4.068 -0.2578  0.1074  0.5237
15373TIP3   OH267609   4.527   2.023  13.458 -0.6848  0.1278  0.6251
15373TIP3    H167610   4.594   2.047  13.522  0.7556 -0.9559 -0.4116
15373TIP3    H267611   4.486   1.944  13.495  0.1219 -0.4788  0.2462
15374TIP3   OH267612   4.118   0.676   1.593 -0.2450 -0.5707 -0.3987
15374TIP3    H167613   4.062   0.709   1.523 -0.7286  0.8238  0.5986
15374TIP3    H267614   4.057   0.633   1.654 -0.2348  0.5307  0.4448
15375TIP3   OH267615   1.649   4.380  12.162  0.1033  0.1982 -0.5153
15375TIP3    H167616   1.662   4.462  12.209 -0.0115 -0.7935  1.3488
15375TIP3    H267617   1.728   4.370  12.109  0.6521  0.9474  0.1337
15376TIP3   OH267618   0.387   3.021  15.742  0.9973 -0.0195  0.3936
15376TIP3    H167619   0.415   2.937  15.706  0.5107  0.0494 -0.1524
15376TIP3    H267620   0.427   3.024  15.829  0.2174 -1.2620  0.8319
15377TIP3   OH267621   2.568   5.582  15.833 -0.1345 -1.0472 -0.0857
15377TIP3    H167622   2.591   5.526  15.908 -2.2053 -1.1469  0.5174
15377TIP3    H267623   2.536   5.663  15.872  0.3310 -0.4473 -0.9199
15378TIP3   OH267624   4.742   3.765  11.513 -0.0099 -0.2917 -0.0155
15378TIP3    H167625   4.816   3.825  11.512 -1.0739  1.1045  0.8554
15378TIP3    H267626   4.676   3.808  11.459 -0.9465 -0.4418  0.9798
15379TIP3   OH267627   0.109   4.453   0.470  0.2163 -0.6430 -0.0945
15379TIP3    H167628   0.124   4.460   0.565  1.5509  0.4277 -0.3578
15379TIP3    H267629   0.197   4.441   0.433 -0.1125  0.5645 -1.3265
15380TIP3   OH267630   1.484   0.328  12.846 -0.0535  0.4047  0.3441
15380TIP3    H167631   1.476   0.422  12.862 -0.1568  0.2661  1.1583
15380TIP3    H267632   1.394   0.300  12.827 -0.1778  0.3301  0.9870
15381TIP3   OH267633   1.107   4.813  16.955 -0.0801 -0.3379 -0.2488
15381TIP3    H167634   1.064   4.827  16.870 -0.8361 -0.4010  0.1155
15381TIP3    H267635   1.164   4.888  16.965 -0.6016  0.0931 -0.4479
15382TIP3   OH267636   6.698   2.923  14.812 -0.1185  0.4338 -0.0594
15382TIP3    H167637   6.787   2.915  14.847 -0.0416 -0.4258 -0.4088
15382TIP3    H267638   6.694   3.011  14.774 -0.0357  1.1794  1.6002
15383TIP3   OH267639   4.743   0.815  13.875  0.3157  0.0633 -0.2803
15383TIP3    H167640   4.753   0.876  13.948 -0.0953 -0.4536  0.2107
15383TIP3    H267641   4.660   0.770  13.892  0.6418 -0.6771 -0.6066
15384TIP3   OH267642   3.274   0.807  15.230  0.0848 -0.3615 -0.1804
15384TIP3    H167643   3.358   0.848  15.252 -0.1904 -0.3490  0.8914
15384TIP3    H267644   3.290   0.713  15.242 -0.4681 -0.2669  1.5939
15385TIP3   OH267645   0.195   5.624  13.073 -0.0034  0.5911 -0.4840
15385TIP3    H167646   0.175   5.674  13.152  0.3236  0.3586 -0.2467
15385TIP3    H267647   0.263   5.563  13.101  0.7178  1.0729 -1.1524
15386TIP3   OH267648   4.915   6.423   4.861 -0.3823 -0.2998  0.1189
15386TIP3    H167649   4.875   6.507   4.840  2.5648  0.9250 -1.1555
15386TIP3    H267650   4.841   6.363   4.872 -2.5626  2.2437  0.3206
15387TIP3   OH267651   4.558   3.690  16.890 -0.5501  0.0144  0.6296
15387TIP3    H167652   4.555   3.595  16.897  0.0065 -0.1530 -0.9708
15387TIP3    H267653   4.540   3.708  16.797 -0.0494  1.4372  0.7772
15388TIP3   OH267654   3.253   2.665   3.375  0.1138 -0.4744 -0.3997
15388TIP3    H167655   3.268   2.706   3.289 -1.5766  1.3104  0.0886
15388TIP3    H267656   3.318   2.704   3.432  0.1862 -0.4170 -0.5213
15389TIP3   OH267657   2.551   4.545  14.821  0.2181 -0.3849  0.0392
15389TIP3    H167658   2.543   4.594  14.903  4.0729 -0.1011  0.4352
15389TIP3    H267659   2.520   4.606  14.754 -1.2685  0.0494  1.0681
15390TIP3   OH267660   0.816   1.732  12.033  0.4288 -0.3419 -0.1539
15390TIP3    H167661   0.878   1.785  11.983  0.1486 -1.2068 -1.4839
15390TIP3    H267662   0.835   1.641  12.007 -1.5494 -0.6131 -0.8202
15391TIP3   OH267663   6.484   2.979   0.442  0.0758  0.1053 -0.8679
15391TIP3    H167664   6.408   2.930   0.412  0.7861 -0.9675 -0.9529
15391TIP3    H267665   6.472   3.067   0.405  0.4467 -0.8902 -3.6011
15392TIP3   OH267666   6.452   5.440  16.313  0.0147 -0.7104 -0.2839
15392TIP3    H167667   6.401   5.520  16.322 -0.5951 -1.1056 -0.1484
15392TIP3    H267668   6.391   5.377  16.274 -0.2579 -1.8178  1.7754
15393TIP3   OH267669   5.344   2.698   0.532  0.0915  0.5545  0.3817
15393TIP3    H167670   5.254   2.728   0.517  0.5017  1.2186 -0.9832
15393TIP3    H267671   5.354   2.696   0.627 -1.5974 -0.2740  0.5832
15394TIP3   OH267672   0.904   2.415   4.333 -0.5233 -0.3797 -0.2449
15394TIP3    H167673   0.843   2.408   4.260 -0.5200  1.0650 -0.4192
15394TIP3    H267674   0.990   2.400   4.294 -0.4460  1.0776 -0.7284
15395TIP3   OH267675   4.896   1.695   4.067 -0.3234 -0.0604 -0.0346
15395TIP3    H167676   4.891   1.602   4.089  0.6995 -0.4794 -1.4051
15395TIP3    H267677   4.955   1.732   4.133 -1.5038 -0.1560  1.1108
15396TIP3   OH267678   4.957   6.710   5.358  0.0981 -0.0524 -0.0093
15396TIP3    H167679   4.926   6.798   5.379 -2.5729 -1.2070  1.3684
15396TIP3    H267680   4.910   6.687   5.278  1.8170  0.1884 -1.1529
15397TIP3   OH267681   4.060   2.721   5.416 -0.0789  0.5880 -0.7070
15397TIP3    H167682   4.034   2.629   5.423  3.0723 -0.3503  0.2587
15397TIP3    H267683   4.027   2.749   5.331 -2.9300 -0.7190 -0.1715
15398TIP3   OH267684   2.729   5.558  13.879 -0.2124 -0.3865 -0.4306
15398TIP3    H167685   2.713   5.550  13.973 -2.7853  1.9871 -0.4963
15398TIP3    H267686   2.696   5.477  13.842 -1.3336 -0.4358  0.5867
15399TIP3   OH267687   4.029   2.495  11.644 -0.3986 -0.3397  0.7144
15399TIP3    H167688   4.000   2.404  11.635 -0.4854 -0.2466  0.0658
15399TIP3    H267689   4.057   2.521  11.556 -0.7585  0.3943  0.8124
15400TIP3   OH267690   4.679   5.732   2.198 -0.3282 -0.3679  0.5717
15400TIP3    H167691   4.605   5.690   2.242  0.1550 -0.0656  1.7026
15400TIP3    H267692   4.717   5.662   2.144 -1.7052 -0.4014 -0.3992
15401TIP3   OH267693   2.529   2.776  16.112 -0.3757  0.2743  0.1437
15401TIP3    H167694   2.588   2.738  16.046  0.8959  1.3070  0.6323
15401TIP3    H267695   2.480   2.701  16.147 -0.2225 -0.4491 -1.1295
15402TIP3   OH267696   6.284   2.841   5.674  0.1768  0.3848  0.6992
15402TIP3    H167697   6.233   2.811   5.750  0.9167 -0.7396  0.7656
15402TIP3    H267698   6.322   2.924   5.703 -0.1075  0.3110  1.3095
15403TIP3   OH267699   2.934   0.618   4.951  0.4751  0.0607 -0.0513
15403TIP3    H167700   2.977   0.534   4.934  0.2529 -0.5661  2.2115
15403TIP3    H267701   2.851   0.594   4.992 -1.3325  1.3074 -2.6917
15404TIP3   OH267702   2.070   1.688   5.742 -0.0979  0.1265  0.2229
15404TIP3    H167703   2.042   1.648   5.824  0.1885 -1.3807 -0.3784
15404TIP3    H267704   2.041   1.626   5.674 -0.0630  1.1866 -0.7864
15405TIP3   OH267705   3.686   1.398   5.349 -0.0293 -0.1129  0.0292
15405TIP3    H167706   3.623   1.415   5.279  0.3397 -0.3103 -0.3552
15405TIP3    H267707   3.752   1.467   5.340 -0.9802  1.0588  1.4099
15406TIP3   OH267708   6.549   2.916   1.317 -0.5537 -0.3386 -0.3454
15406TIP3    H167709   6.620   2.921   1.254 -0.1209 -0.2775  0.1414
15406TIP3    H267710   6.572   2.841   1.373 -0.8447 -0.2861 -0.1522
15407TIP3   OH267711   3.937   1.298   0.396 -0.1664 -0.0865 -0.3680
15407TIP3    H167712   4.026   1.294   0.362  0.1230  1.7418  0.0910
15407TIP3    H267713   3.894   1.365   0.343 -0.6229  0.5550  0.7707
15408TIP3   OH267714   0.592   6.246  10.949 -0.1500  0.0485  0.0636
15408TIP3    H167715   0.663   6.183  10.937  0.7124  0.8752  0.6185
15408TIP3    H267716   0.542   6.242  10.868  0.6978 -0.3683 -0.4552
15409TIP3   OH267717   0.846   6.348   4.545 -0.0321 -0.1341  0.2379
15409TIP3    H167718   0.795   6.340   4.464  0.8756 -0.8885 -0.2691
15409TIP3    H267719   0.785   6.390   4.606 -0.4808  1.2056 -1.0500
15410TIP3   OH267720   4.517   0.313  15.301  0.2647 -0.3942 -0.3907
15410TIP3    H167721   4.512   0.290  15.394 -0.4034 -0.2934 -0.3967
15410TIP3    H267722   4.426   0.320  15.273  0.4068  1.8786 -0.4750
15411TIP3   OH267723   6.679   4.562   1.109 -0.1489 -0.5636 -0.1645
15411TIP3    H167724   6.698   4.589   1.019  1.1637  1.9122  0.7378
15411TIP3    H267725   6.696   4.468   1.111  2.0588 -0.2956 -1.9889
15412TIP3   OH267726   0.810   3.763   2.003 -0.1554 -0.0430 -0.3271
15412TIP3    H167727   0.793   3.721   2.087 -0.3969 -0.2103 -0.4596
15412TIP3    H267728   0.806   3.857   2.022 -0.3689 -0.0799 -0.1843
15413TIP3   OH267729   2.093   3.930  13.189 -0.4105  0.1733  0.7535
15413TIP3    H167730   2.157   3.987  13.232 -0.8775  1.6695 -0.4041
15413TIP3    H267731   2.039   3.991  13.137 -0.8622 -1.3521 -0.6518
15414TIP3   OH267732   0.244   0.559   0.193  0.5537  0.7564 -0.1592
15414TIP3    H167733   0.170   0.499   0.199 -0.9109  2.3873 -1.2655
15414TIP3    H267734   0.283   0.558   0.281  0.2627 -1.3493  0.0035
15415TIP3   OH267735   1.725   5.229   0.739 -0.1221 -0.1865  0.2835
15415TIP3    H167736   1.749   5.288   0.810  2.5479  0.3391 -0.9129
15415TIP3    H267737   1.804   5.222   0.686 -1.6950 -1.3221 -2.1133
15416TIP3   OH267738   6.334   0.261  11.726 -0.3902  0.5032  0.7940
15416TIP3    H167739   6.382   0.190  11.683 -3.3292 -0.3432 -1.3939
15416TIP3    H267740   6.361   0.339  11.679 -0.6089  0.1563  0.0844
15417TIP3   OH267741   4.229   2.215   5.477  0.3345 -0.1588 -0.3952
15417TIP3    H167742   4.226   2.297   5.427  0.6844 -0.1190 -0.3520
15417TIP3    H267743   4.153   2.165   5.445  2.0382 -1.2998 -3.0279
15418TIP3   OH267744   0.846   1.162   3.365  0.1677 -0.2003 -0.1394
15418TIP3    H167745   0.866   1.113   3.286 -1.4799 -1.4930  0.1855
15418TIP3    H267746   0.799   1.240   3.335  1.2639  0.3251 -0.5367
15419TIP3   OH267747   4.435   3.119  14.270  0.3716  0.2014 -0.2273
15419TIP3    H167748   4.373   3.164  14.328  0.0506  0.2002 -0.5634
15419TIP3    H267749   4.481   3.058  14.328  1.3915  1.5092  0.3956
15420TIP3   OH267750   4.904   0.759   0.605 -0.2480  0.0388  0.3024
15420TIP3    H167751   4.953   0.762   0.687  1.0909  0.1817 -0.4748
15420TIP3    H267752   4.823   0.805   0.625 -0.0040 -0.0357  1.5797
15421TIP3   OH267753   0.149   4.758   0.475 -0.0462  0.3334  0.0415
15421TIP3    H167754   0.054   4.749   0.464 -0.1163  0.3451  0.5922
15421TIP3    H267755   0.165   4.725   0.563  0.8729 -2.5341 -1.1002
15422TIP3   OH267756   5.329   4.653   6.477  0.4228  0.4245 -0.1863
15422TIP3    H167757   5.301   4.580   6.533  1.2833 -1.6105 -2.2598
15422TIP3    H267758   5.425   4.652   6.483  0.4681  0.9519 -0.7505
15423TIP3   OH267759   4.671   2.131  12.813  0.0208  0.0835  0.3715
15423TIP3    H167760   4.705   2.044  12.792  0.2769  0.2951 -0.1125
15423TIP3    H267761   4.662   2.131  12.908 -1.3176 -0.9605  0.2850
15424TIP3   OH267762   1.195   3.691  16.096  0.3913  0.1709 -0.5625
15424TIP3    H167763   1.275   3.654  16.058 -0.1629 -1.0867 -0.5293
15424TIP3    H267764   1.221   3.717  16.185  0.9147  0.3478 -0.7618
15425TIP3   OH267765   5.659   0.041   3.420  0.2748 -0.6024 -0.2615
15425TIP3    H167766   5.634  -0.045   3.456  1.6728 -1.1766 -0.6062
15425TIP3    H267767   5.681   0.022   3.329 -0.5740  0.3631 -0.6877
15426TIP3   OH267768   0.451   4.407   4.474  0.1263  0.2614 -0.1261
15426TIP3    H167769   0.464   4.491   4.430 -1.7463  0.5579 -0.1797
15426TIP3    H267770   0.442   4.430   4.567 -0.3020  0.1273 -0.1318
15427TIP3   OH267771   4.556   0.498  17.217  0.0488 -0.3105 -0.0843
15427TIP3    H167772   4.590   0.517  17.129  1.2627 -1.6888  0.0483
15427TIP3    H267773   4.491   0.429  17.203 -2.5766  1.9990 -0.2787
15428TIP3   OH267774   2.987   1.692  16.452  0.2179  0.1165 -0.2621
15428TIP3    H167775   3.040   1.612  16.461 -1.9025 -1.4961 -1.1842
15428TIP3    H267776   2.998   1.717  16.360 -1.1754 -0.7225 -0.6942
15429TIP3   OH267777   0.916   2.136  15.171  0.2845  0.2376 -0.3367
15429TIP3    H167778   0.951   2.057  15.213  2.2222  1.1384 -0.1251
15429TIP3    H267779   0.855   2.173  15.235  3.0837  1.5225  1.8107
15430TIP3   OH267780   1.283   1.408   3.852 -0.1578  0.0320 -0.0167
15430TIP3    H167781   1.293   1.394   3.757  3.0771  1.4436 -0.0401
15430TIP3    H267782   1.216   1.476   3.859 -1.3355 -0.9494 -1.1604
15431TIP3   OH267783   2.154   0.359   1.632 -1.2078  0.1091 -0.2136
15431TIP3    H167784   2.197   0.393   1.711 -1.7295  0.2187  0.0251
15431TIP3    H267785   2.210   0.286   1.604 -1.9206 -1.0561  1.2469
15432TIP3   OH267786   0.594   6.567  13.491  0.0574 -0.2232  0.2093
15432TIP3    H167787   0.579   6.645  13.543 -0.0651  1.4127 -2.1320
15432TIP3    H267788   0.686   6.545  13.504  0.4189  1.0843 -0.0688
15433TIP3   OH267789   2.277   4.042   0.773  0.5177 -0.0609  0.9694
15433TIP3    H167790   2.232   4.113   0.817  1.8293  0.7352  1.0955
15433TIP3    H267791   2.244   3.962   0.815 -2.4540  0.2599 -0.5043
15434TIP3   OH267792   1.980   6.211   3.376  0.0655 -0.0546 -0.4442
15434TIP3    H167793   2.060   6.160   3.377  0.4106  0.4779  0.7313
15434TIP3    H267794   1.969   6.241   3.466 -0.7734  0.9233 -0.8464
15435TIP3   OH267795   0.135   3.713   4.224  0.5028  0.0805  0.0070
15435TIP3    H167796   0.125   3.645   4.292  0.7411 -0.6493 -0.6683
15435TIP3    H267797   0.218   3.755   4.246 -0.1936  0.9308  1.0911
15436TIP3   OH267798   0.491   2.166   1.535  0.7152  0.1960  0.0755
15436TIP3    H167799   0.557   2.098   1.526  1.6119  1.0145  0.2752
15436TIP3    H267800   0.432   2.135   1.603 -1.0599 -2.0557 -2.2778
15437TIP3   OH267801   5.158   2.956   1.596  0.5479  0.3328 -0.3607
15437TIP3    H167802   5.202   2.879   1.631  0.1490 -0.0864 -0.7566
15437TIP3    H267803   5.066   2.943   1.617  0.4806  0.7240 -0.3942
15438TIP3   OH267804   5.942   3.169   2.465 -0.2094 -0.4472  0.4580
15438TIP3    H167805   5.960   3.076   2.479  1.0796  0.0263  2.2997
15438TIP3    H267806   6.003   3.194   2.395 -1.5058 -1.2338 -1.0192
15439TIP3   OH267807   5.619   4.429  14.374  0.0124 -0.8091  0.2534
15439TIP3    H167808   5.638   4.487  14.300 -0.3529 -0.0573  0.7380
15439TIP3    H267809   5.673   4.352  14.358  2.4427  0.6469  0.8453
15440TIP3   OH267810   5.207   1.086  11.869  0.0034 -0.2121 -0.4532
15440TIP3    H167811   5.122   1.104  11.910 -0.1608 -0.8687 -0.4870
15440TIP3    H267812   5.272   1.112  11.934 -0.2201  0.4291 -0.4813
15441TIP3   OH267813   1.132   5.033   4.591  0.5999 -0.4361  0.7728
15441TIP3    H167814   1.062   4.996   4.645 -0.5829  1.2798  0.4972
15441TIP3    H267815   1.093   5.042   4.504  1.8745 -1.4187  0.0696
15442TIP3   OH267816   0.547   1.705   2.133 -0.3688 -0.5204 -0.4105
15442TIP3    H167817   0.528   1.791   2.171  0.6378 -0.5869  0.2900
15442TIP3    H267818   0.535   1.717   2.039 -2.3856 -0.2036 -0.1611
15443TIP3   OH267819   1.460   1.322  11.736 -0.5904 -0.1804 -0.1310
15443TIP3    H167820   1.506   1.253  11.782 -1.0953  0.5666  1.5797
15443TIP3    H267821   1.419   1.374  11.805 -1.1703  1.1571 -1.4184
15444TIP3   OH267822   3.558   6.666  10.657 -0.5855  0.3406 -0.1194
15444TIP3    H167823   3.507   6.745  10.673  0.6614  0.9301  1.2009
15444TIP3    H267824   3.499   6.594  10.680 -1.1636  0.9683  0.4143
15445TIP3   OH267825   6.134   5.983  11.438 -0.0916 -0.0042  0.4775
15445TIP3    H167826   6.089   6.054  11.392 -1.0122 -0.9090 -0.0695
15445TIP3    H267827   6.185   5.938  11.371 -0.6632 -0.7327  0.5088
15446TIP3   OH267828   6.429   0.447  13.837  0.4112 -0.2163 -0.0395
15446TIP3    H167829   6.495   0.473  13.772  0.2353 -1.8831 -0.9335
15446TIP3    H267830   6.346   0.479  13.801  0.4784  0.1210  0.0962
15447TIP3   OH267831   2.578   3.312   3.231 -0.8734 -0.3611  0.3496
15447TIP3    H167832   2.634   3.369   3.283 -0.9339  0.2201 -0.2125
15447TIP3    H267833   2.492   3.354   3.234 -0.4178  0.8961 -1.9954
15448TIP3   OH267834   1.856   0.519  15.985  0.0215  0.1513 -0.6343
15448TIP3    H167835   1.900   0.443  16.024 -1.7131 -1.4918 -1.7170
15448TIP3    H267836   1.784   0.538  16.045 -0.6661 -0.2762 -1.3079
15449TIP3   OH267837   6.438   5.109   1.334 -0.1214 -0.8045  0.0068
15449TIP3    H167838   6.364   5.084   1.278  1.0816 -0.9523 -1.5746
15449TIP3    H267839   6.455   5.032   1.387 -0.8460 -0.9035  0.1110
15450TIP3   OH267840   2.962   1.467   3.481 -0.1704 -0.1802 -0.4192
15450TIP3    H167841   2.991   1.508   3.400  1.8820  0.1775  0.4390
15450TIP3    H267842   2.954   1.374   3.460 -0.2550 -0.0005 -1.1868
15451TIP3   OH267843   4.230   3.179   5.544 -0.0387 -0.0943 -0.3405
15451TIP3    H167844   4.157   3.204   5.601 -0.4297 -1.0073 -0.4244
15451TIP3    H267845   4.306   3.175   5.603 -0.1417  0.3997 -0.1670
15452TIP3   OH267846   3.301   2.888  13.252 -0.7726  0.3297 -0.4975
15452TIP3    H167847   3.302   2.946  13.176 -2.6769 -0.4247 -1.1502
15452TIP3    H267848   3.282   2.801  13.217 -1.9063  0.0005  0.8418
15453TIP3   OH267849   1.414   3.502  16.801  0.2731 -0.6632 -0.1220
15453TIP3    H167850   1.458   3.587  16.790  0.4589 -0.8761 -1.1123
15453TIP3    H267851   1.413   3.464  16.713 -1.9948 -0.6388 -0.1502
15454TIP3   OH267852   6.175   1.446   4.815  0.8451  0.5818 -0.4922
15454TIP3    H167853   6.220   1.392   4.751 -0.5831 -1.7344  0.3344
15454TIP3    H267854   6.100   1.482   4.767  0.1994 -0.5363 -0.3515
15455TIP3   OH267855   5.577   2.881   2.898 -0.6165 -0.4917 -0.1251
15455TIP3    H167856   5.652   2.923   2.855 -0.8782  0.7979  0.6258
15455TIP3    H267857   5.500   2.919   2.857 -0.8708  0.6211  1.2946
15456TIP3   OH267858   1.281   0.661  14.341  0.0077  0.0911  0.5743
15456TIP3    H167859   1.343   0.734  14.343  0.6599 -0.4520  2.0495
15456TIP3    H267860   1.198   0.700  14.368  0.0526  0.5127  0.1366
15457TIP3   OH267861   5.769   2.544   5.051  0.0570 -0.2152  0.4509
15457TIP3    H167862   5.828   2.617   5.072  0.0856  0.0634 -0.5199
15457TIP3    H267863   5.818   2.466   5.075  0.9916 -0.0058 -0.6469
15458TIP3   OH267864   3.354   2.532  11.153  0.3643  0.6484 -0.1995
15458TIP3    H167865   3.380   2.440  11.161  1.6197  0.8779 -1.3165
15458TIP3    H267866   3.384   2.558  11.066 -2.8196  1.2402 -1.2626
15459TIP3   OH267867   1.694   3.946  17.222  0.9898  0.1942 -0.2631
15459TIP3    H167868   1.764   3.969  17.283  0.6467  1.2063 -0.2439
15459TIP3    H267869   1.619   3.923  17.278  1.0945 -0.2443 -0.2947
15460TIP3   OH267870   1.545   5.760   1.340 -0.1507  0.3268  0.4164
15460TIP3    H167871   1.450   5.758   1.348 -0.1124 -0.1625  0.7968
15460TIP3    H267872   1.573   5.672   1.365  0.3387  0.2140 -0.4684
15461TIP3   OH267873   5.226   4.910  13.702  0.8988 -0.0919  0.0686
15461TIP3    H167874   5.292   4.933  13.767  1.6817  1.8905 -1.3352
15461TIP3    H267875   5.149   4.962  13.728  0.5557 -0.8103  0.5131
15462TIP3   OH267876   3.611   1.737  15.850 -0.0257  0.8044 -0.3534
15462TIP3    H167877   3.624   1.700  15.937  3.7905  3.8068  0.6467
15462TIP3    H267878   3.673   1.691  15.794 -1.6047 -0.2808 -1.2690
15463TIP3   OH267879   3.711   0.764  11.614 -0.2628  0.1368 -0.5802
15463TIP3    H167880   3.747   0.675  11.616 -2.6573 -0.8917  1.8148
15463TIP3    H267881   3.765   0.809  11.549  2.5969 -2.3642 -0.2012
15464TIP3   OH267882   3.632   3.721  16.472 -0.5340  0.5958 -0.1060
15464TIP3    H167883   3.690   3.704  16.398  2.4885 -0.5673  2.3196
15464TIP3    H267884   3.643   3.814  16.491 -2.3884  1.2388 -1.8182
15465TIP3   OH267885   0.032   1.692   4.909 -0.1275 -0.1541  0.0774
15465TIP3    H167886   0.056   1.776   4.949 -0.2399 -0.1679  0.1724
15465TIP3    H267887  -0.040   1.660   4.962 -1.1486  0.4454 -0.9093
15466TIP3   OH267888   1.914   6.628  10.797 -0.6403  0.2496  0.2495
15466TIP3    H167889   1.993   6.681  10.810 -0.0116 -0.9154  1.4589
15466TIP3    H267890   1.876   6.621  10.885  0.0768 -2.4496  0.4230
15467TIP3   OH267891   2.963   2.348   3.092  0.1139  0.7396 -0.3508
15467TIP3    H167892   2.986   2.335   3.000  1.1237  1.5575 -0.2387
15467TIP3    H267893   2.924   2.435   3.095  1.0593  1.1728  0.1283
15468TIP3   OH267894   0.044   6.347   2.586  0.3467  1.0130  0.1584
15468TIP3    H167895   0.061   6.376   2.496 -1.0505  0.7045 -0.2413
15468TIP3    H267896  -0.016   6.273   2.576  0.0089  1.1049  1.3521
15469TIP3   OH267897   4.330   0.829  12.093  0.7279  0.5033 -0.2270
15469TIP3    H167898   4.398   0.855  12.030  0.4774 -1.2501 -1.2781
15469TIP3    H267899   4.351   0.738  12.113 -1.2556 -0.0385 -0.4918
15470TIP3   OH267900   4.034   1.407  16.496 -0.2237 -0.6862 -0.4273
15470TIP3    H167901   3.972   1.343  16.460 -0.5635 -0.3384 -0.4763
15470TIP3    H267902   3.979   1.466  16.548  0.0420 -0.2538 -0.6343
15471TIP3   OH267903   6.131   0.054   4.522 -1.1341 -0.1255 -0.0315
15471TIP3    H167904   6.085  -0.014   4.572 -0.8894  0.5298  1.1082
15471TIP3    H267905   6.129   0.131   4.578  0.7399  0.1275 -0.2304
15472TIP3   OH267906   3.399   5.837   4.234  0.6090 -0.0164  0.5319
15472TIP3    H167907   3.445   5.870   4.158  1.4274  1.4383  1.6141
15472TIP3    H267908   3.312   5.813   4.202  1.4106 -0.8394 -1.1221
15473TIP3   OH267909   6.493   3.691   3.210 -0.3959  0.0927  0.5013
15473TIP3    H167910   6.564   3.746   3.245 -0.4226  0.9242 -0.7338
15473TIP3    H267911   6.524   3.663   3.124 -0.9605 -0.7509  0.5557
15474TIP3   OH267912   0.523   5.014  13.963  0.4766  0.8853 -0.8926
15474TIP3    H167913   0.545   5.073  13.890  3.1392  0.3480 -0.5917
15474TIP3    H267914   0.604   4.968  13.983 -0.8837 -1.0302  0.6149
15475TIP3   OH267915   2.500   2.123   1.630  0.0620 -0.2409  0.2715
15475TIP3    H167916   2.565   2.053   1.621  0.6586  0.2237  0.9070
15475TIP3    H267917   2.460   2.107   1.715  1.4902  1.2401  1.2792
15476TIP3   OH267918   3.885   4.011  15.035  0.1496 -0.6092 -0.0692
15476TIP3    H167919   3.973   4.020  14.999  0.9438 -0.3719  1.8163
15476TIP3    H267920   3.833   4.075  14.988  1.1324 -0.3036 -0.7667
15477TIP3   OH267921   6.781   5.024   6.646  0.4184  0.2005  0.1492
15477TIP3    H167922   6.842   5.047   6.576  0.9512  1.4849  0.9907
15477TIP3    H267923   6.694   5.027   6.605  0.7283  0.9096 -0.4704
15478TIP3   OH267924   4.889   3.598   2.159  0.0342 -0.5030  0.0146
15478TIP3    H167925   4.964   3.555   2.120 -0.0323 -0.1348 -0.5367
15478TIP3    H267926   4.921   3.684   2.184 -0.0065 -0.6243  0.4889
15479TIP3   OH267927   2.520   5.319   4.300 -0.2273 -0.0988 -0.1843
15479TIP3    H167928   2.556   5.346   4.215  0.7331 -1.8837 -0.3898
15479TIP3    H267929   2.485   5.400   4.338 -0.3896  0.8024 -2.1274
15480TIP3   OH267930   0.125   2.700   1.971 -0.3262  0.0819  0.0916
15480TIP3    H167931   0.064   2.774   1.979 -1.1166 -0.1654 -2.5451
15480TIP3    H267932   0.069   2.626   1.946  0.5710 -1.2325  1.7805
15481TIP3   OH267933   4.432   0.022   2.913 -0.0940  0.5451  0.2152
15481TIP3    H167934   4.392   0.049   2.997 -2.1334 -0.6595 -0.2813
15481TIP3    H267935   4.409   0.092   2.852  0.5896  0.9695  0.4299
15482TIP3   OH267936   1.182   3.422   0.277  0.0913  0.0767 -0.5953
15482TIP3    H167937   1.154   3.330   0.286 -1.1871  0.6101  1.8521
15482TIP3    H267938   1.107   3.465   0.236 -0.9382  0.6632  1.7568
15483TIP3   OH267939   1.081   1.798  14.584 -0.0879 -0.0253 -0.1752
15483TIP3    H167940   1.074   1.767  14.674 -0.8447 -0.5398 -0.3997
15483TIP3    H267941   1.035   1.731  14.532 -0.0354  0.4823 -0.8904
15484TIP3   OH267942   3.977   2.838  12.451 -0.0395 -0.4087  0.2719
15484TIP3    H167943   3.908   2.792  12.403  0.4763 -0.8337 -0.0726
15484TIP3    H267944   3.973   2.928  12.419  0.2255 -0.6637 -0.4864
15485TIP3   OH267945   6.184   3.541   4.662  0.0714 -0.6302  0.5740
15485TIP3    H167946   6.268   3.579   4.637  0.3618 -1.2301  0.6166
15485TIP3    H267947   6.150   3.601   4.730  0.8828 -0.8588  1.1976
15486TIP3   OH267948   5.235   6.214  17.073 -0.1644 -0.3552 -0.2980
15486TIP3    H167949   5.328   6.237  17.085 -0.7438  1.9673  0.3000
15486TIP3    H267950   5.210   6.175  17.156  0.2810 -1.0340 -0.4764
15487TIP3   OH267951   1.846   5.827  14.133  0.2993  0.1323  0.2611
15487TIP3    H167952   1.905   5.778  14.075 -1.6662  0.2964 -2.0368
15487TIP3    H267953   1.817   5.901  14.081 -2.3560 -0.2523  1.0625
15488TIP3   OH267954   2.625   6.492   4.075 -0.3774 -0.1185 -0.3022
15488TIP3    H167955   2.665   6.410   4.047  1.1535  0.8435 -1.0678
15488TIP3    H267956   2.633   6.549   3.998 -4.0756 -0.0978 -0.8657
15489TIP3   OH267957   6.356   2.281   5.247  0.2856  0.0533  0.3586
15489TIP3    H167958   6.337   2.350   5.183 -1.0827  0.9681  1.6727
15489TIP3    H267959   6.446   2.255   5.229 -1.1279 -2.6124 -4.5741
15490TIP3   OH267960   3.104   5.497   2.594 -0.6643  0.1440 -0.2013
15490TIP3    H167961   3.193   5.527   2.577 -0.6592 -0.4440 -1.2563
15490TIP3    H267962   3.102   5.407   2.563 -2.0313  0.5989 -1.5587
15491TIP3   OH267963   6.774   3.373   5.378  0.1597  0.2982 -0.7790
15491TIP3    H167964   6.829   3.393   5.302  1.8298 -0.5191  0.1292
15491TIP3    H267965   6.727   3.293   5.354 -1.4933  1.5703 -1.9556
15492TIP3   OH267966   3.019   5.369   6.368  0.3458  0.1563 -0.3583
15492TIP3    H167967   3.060   5.293   6.411 -1.9848 -0.6727  0.5815
15492TIP3    H267968   2.983   5.420   6.440 -0.5465  0.6567 -1.1453
15493TIP3   OH267969   3.455   3.564   6.768 -0.1627  0.5262 -0.2420
15493TIP3    H167970   3.402   3.644   6.775 -0.5329  0.2785 -0.1763
15493TIP3    H267971   3.412   3.513   6.700 -1.3191 -0.6468  1.2818
15494TIP3   OH267972   4.356   1.711  17.008  0.2122  0.1085  0.5217
15494TIP3    H167973   4.364   1.771  16.934  0.9233 -3.0957 -2.2664
15494TIP3    H267974   4.262   1.708  17.027  0.0380  1.1283 -0.1174
15495TIP3   OH267975   0.078   6.065   0.571  0.1073  0.4554  0.1264
15495TIP3    H167976   0.144   6.117   0.617 -0.4681  1.1783  0.1691
15495TIP3    H267977   0.016   6.040   0.640 -0.5367  1.1892 -0.1596
15496TIP3   OH267978   5.187   5.757  14.118  0.2410  0.5335  0.1491
15496TIP3    H167979   5.104   5.776  14.073  0.1098  0.5773  0.4120
15496TIP3    H267980   5.253   5.772  14.051  0.1827  2.4778  0.4647
15497TIP3   OH267981   3.114   2.427  13.228 -0.1492 -0.3227 -0.1840
15497TIP3    H167982   3.062   2.362  13.275  0.7591 -0.4855  0.6197
15497TIP3    H267983   3.205   2.407  13.251  0.2994 -0.1397 -1.6804
15498TIP3   OH267984   4.908   2.350   2.152  0.0943 -0.3846  0.3157
15498TIP3    H167985   4.872   2.380   2.068  2.1707 -1.7039 -1.1460
15498TIP3    H267986   4.963   2.422   2.182 -0.9652  0.2516  0.7975
15499TIP3   OH267987   3.397   5.248  17.037 -0.8587 -0.8933  0.0392
15499TIP3    H167988   3.310   5.288  17.031 -0.3041  0.4109  0.1596
15499TIP3    H267989   3.382   5.155  17.023 -2.2011 -0.6198 -0.5395
15500TIP3   OH267990   4.699   2.960   5.081 -0.8129  0.0843  0.9959
15500TIP3    H167991   4.704   3.034   5.020  0.1043 -0.0396  0.9088
15500TIP3    H267992   4.605   2.946   5.094 -1.0714 -0.4210 -1.0345
15501TIP3   OH267993   3.218   2.581   0.073 -0.3680 -0.3203 -0.2729
15501TIP3    H167994   3.244   2.510   0.015 -0.8102 -0.8173  0.1324
15501TIP3    H267995   3.301   2.623   0.098 -0.1973  0.2461 -1.6746
15502TIP3   OH267996   5.360   5.596   4.139  0.0151  0.8910  0.1002
15502TIP3    H167997   5.337   5.645   4.219  1.6609  1.4594  0.2599
15502TIP3    H267998   5.283   5.543   4.121 -0.0773 -0.0073  2.6448
15503TIP3   OH267999   1.011   5.778  16.930  0.1401 -0.6221  0.4995
15503TIP3    H168000   1.061   5.845  16.976 -1.7674  0.5171  1.0078
15503TIP3    H268001   0.969   5.726  16.999  0.8829 -1.8094  0.0913
15504TIP3   OH268002   2.385   2.480   3.732 -0.0866  0.8160 -0.0543
15504TIP3    H168003   2.363   2.414   3.798  1.0938 -0.9025 -1.2617
15504TIP3    H268004   2.429   2.550   3.782 -0.9635  0.5062  1.2093
15505TIP3   OH268005   2.861   4.679  14.141  0.3391 -0.5526  0.4988
15505TIP3    H168006   2.840   4.621  14.067  0.5384 -0.6566  0.5246
15505TIP3    H268007   2.777   4.694  14.184 -0.3554  1.9651 -1.5199
15506TIP3   OH268008   5.937   0.610   5.089 -0.5516  0.0182  0.5653
15506TIP3    H168009   5.979   0.683   5.136 -0.6206  1.9604 -2.1352
15506TIP3    H268010   5.886   0.653   5.021 -1.3274 -2.5972 -0.6015
15507TIP3   OH268011   2.179   4.868  15.939 -0.3690  0.0782  0.3255
15507TIP3    H168012   2.212   4.958  15.936 -1.4585  0.4832 -0.1776
15507TIP3    H268013   2.218   4.826  15.862 -1.3493  0.6888 -0.5367
15508TIP3   OH268014   5.997   3.473   3.723  0.0817 -0.3654  0.0718
15508TIP3    H168015   6.053   3.530   3.670 -0.4393 -0.8093 -0.9658
15508TIP3    H268016   6.049   3.394   3.735 -0.3963 -0.8658 -1.0816
15509TIP3   OH268017   1.212   1.300  16.673  0.3721 -0.9804 -0.0050
15509TIP3    H168018   1.197   1.210  16.703  0.3010 -0.3185  2.1419
15509TIP3    H268019   1.285   1.331  16.727 -0.6791  0.7584  0.5085
15510TIP3   OH268020   0.854   1.743  14.200  0.3153  0.2180  0.1020
15510TIP3    H168021   0.924   1.803  14.225  0.0256  0.8099 -0.4953
15510TIP3    H268022   0.786   1.756  14.267  0.7774 -0.3876  0.7063
15511TIP3   OH268023   2.139   5.987  15.881  0.4397  0.0827 -0.0784
15511TIP3    H168024   2.172   5.912  15.831  1.2313  1.5961 -1.9702
15511TIP3    H268025   2.217   6.036  15.906  0.0578 -0.5514  2.6852
15512TIP3   OH268026   4.059   6.384   5.643 -0.0618 -0.8701 -0.0275
15512TIP3    H168027   4.079   6.456   5.703 -0.5809 -0.3061 -0.5159
15512TIP3    H268028   3.965   6.368   5.655 -0.3713 -0.1447 -1.3294
15513TIP3   OH268029   1.884   0.761  13.129  0.3362 -0.0407 -0.4653
15513TIP3    H168030   1.870   0.837  13.072  0.0521  1.9709  2.1017
15513TIP3    H268031   1.801   0.714  13.127 -0.6323  1.5482  0.3489
15514TIP3   OH268032   3.568   6.372  14.958  0.1464  0.5017  0.2412
15514TIP3    H168033   3.585   6.389  15.051  0.6330  0.7195  0.1113
15514TIP3    H268034   3.537   6.281  14.957 -0.3781  0.6666  0.6747
15515TIP3   OH268035   2.773   0.882   1.577  0.1024  0.2079  0.4454
15515TIP3    H168036   2.838   0.932   1.527  0.5497  1.9614  2.6303
15515TIP3    H268037   2.824   0.822   1.630 -0.4268 -2.6269 -2.0162
15516TIP3   OH268038   3.842   6.154   1.186  0.0089 -0.2585 -0.3471
15516TIP3    H168039   3.829   6.225   1.248  0.3432 -0.8465  0.4113
15516TIP3    H268040   3.869   6.079   1.240 -1.8524 -1.4198 -0.9397
15517TIP3   OH268041   3.500   5.954   3.997  0.3612 -0.0038 -0.3468
15517TIP3    H168042   3.440   6.008   3.944 -0.0370 -2.3829 -2.5174
15517TIP3    H268043   3.559   5.914   3.933  3.5330  1.1953  1.6013
15518TIP3   OH268044   6.657   3.808  12.694  0.2818  0.2121  0.0828
15518TIP3    H168045   6.609   3.783  12.615  0.9340 -0.6473 -0.0524
15518TIP3    H268046   6.663   3.728  12.746  1.0011  0.4602  0.3946
15519TIP3   OH268047   2.004   2.022  13.081 -0.6091  0.5568 -0.0866
15519TIP3    H168048   2.038   2.101  13.040  0.2667  1.9200  2.9625
15519TIP3    H268049   2.002   2.043  13.175 -3.1550 -2.0120  0.5759
15520TIP3   OH268050   0.992   1.657  10.407  0.0899  0.3816 -0.4798
15520TIP3    H168051   1.023   1.592  10.344  1.1711  0.3651  0.0477
15520TIP3    H268052   0.940   1.607  10.470  0.5181  0.1044 -0.3454
15521TIP3   OH268053   5.111   5.408   0.759  0.5450  0.0518  0.2530
15521TIP3    H168054   5.095   5.418   0.666  1.1526 -2.3625 -0.1972
15521TIP3    H268055   5.102   5.496   0.796 -1.4199  0.7785 -1.7871
15522TIP3   OH268056   1.479   2.635   3.818  0.2290  1.0597 -0.2287
15522TIP3    H168057   1.500   2.613   3.727  0.7429  1.0644 -0.1169
15522TIP3    H268058   1.516   2.563   3.869 -0.6363  0.7184 -0.0634
15523TIP3   OH268059   0.732   3.564  13.882  0.2470 -0.2676 -0.3709
15523TIP3    H168060   0.777   3.641  13.917 -1.6251  1.8435 -2.2375
15523TIP3    H268061   0.660   3.549  13.944 -0.0879  0.2902 -0.6103
15524TIP3   OH268062   4.726   6.126  14.920  0.1475  0.0544  0.3385
15524TIP3    H168063   4.757   6.216  14.910  0.9655 -0.4304 -2.3005
15524TIP3    H268064   4.646   6.121  14.868  0.2484 -0.7961  0.2415
15525TIP3   OH268065   5.593   4.422  12.355  0.4136  0.2632 -0.2427
15525TIP3    H168066   5.601   4.431  12.260 -0.9764  1.2066 -0.3115
15525TIP3    H268067   5.554   4.505  12.383  0.0090 -0.3349  1.0422
15526TIP3   OH268068   5.646   6.480  14.541 -0.1874 -0.0109  0.5553
15526TIP3    H168069   5.631   6.570  14.511 -1.5169 -0.3480  0.1112
15526TIP3    H268070   5.558   6.445  14.553  0.2643 -1.7677 -0.8766
15527TIP3   OH268071   3.524   6.439  16.458 -0.1127  0.0235 -0.2180
15527TIP3    H168072   3.491   6.460  16.371  0.2334  1.7650  0.0483
15527TIP3    H268073   3.619   6.445  16.450  0.0084 -1.3011 -0.0659
15528TIP3   OH268074   1.942   3.647  16.509  0.3448 -0.6380  0.2030
15528TIP3    H168075   2.002   3.719  16.528 -0.2782  0.9989 -3.2283
15528TIP3    H268076   1.858   3.675  16.545  0.2532  0.1132 -0.5594
15529TIP3   OH268077   2.017   4.817   0.070  0.6921  0.0473  0.4568
15529TIP3    H168078   2.024   4.755  -0.002 -0.2369 -0.7757  1.0546
15529TIP3    H268079   1.936   4.866   0.052  1.1468  0.7436  0.2613
15530TIP3   OH268080   1.473   0.108  11.730 -0.1806 -1.1634  0.4303
15530TIP3    H168081   1.379   0.127  11.723  0.1021  0.2662  0.1870
15530TIP3    H268082   1.493   0.054  11.654 -0.6453 -0.7307 -0.0053
15531TIP3   OH268083   0.158   5.662   0.795 -0.0848 -0.0861  0.3883
15531TIP3    H168084   0.168   5.640   0.703  0.3575  1.6835 -0.0250
15531TIP3    H268085   0.229   5.615   0.839  0.9308  0.6195 -0.4659
15532TIP3   OH268086   6.788   5.950  16.088  0.5163  0.3423  0.1973
15532TIP3    H168087   6.828   5.963  16.173  0.1358 -0.7569  0.5670
15532TIP3    H268088   6.831   6.014  16.031 -1.0312  2.9073  1.7281
15533TIP3   OH268089   2.840   0.292   3.025  0.2033  0.2340 -0.5179
15533TIP3    H168090   2.752   0.263   3.001  0.3394  0.3764 -1.2036
15533TIP3    H268091   2.830   0.385   3.043 -0.3783 -0.3039  2.3882
15534TIP3   OH268092   3.136   2.172   4.326  0.7976 -0.0495  0.1767
15534TIP3    H168093   3.094   2.087   4.341  0.1373  0.1414 -0.5479
15534TIP3    H268094   3.088   2.210   4.253  1.3885  0.7551  0.1960
15535TIP3   OH268095   4.863   4.261   1.515  0.3626  0.3928  0.3207
15535TIP3    H168096   4.806   4.226   1.583 -2.0465  0.9703 -1.2866
15535TIP3    H268097   4.910   4.334   1.557 -0.1604 -0.0297  1.6556
15536TIP3   OH268098   4.423   1.345  15.365  0.0986  0.3100  0.3654
15536TIP3    H168099   4.459   1.311  15.283 -1.2319 -1.0042  0.2746
15536TIP3    H268100   4.424   1.270  15.425 -0.4848  0.8043  1.0132
15537TIP3   OH268101   3.449   1.972  11.136  0.1685  0.2462 -0.7610
15537TIP3    H168102   3.478   2.011  11.053  0.6146 -0.1760 -0.8070
15537TIP3    H268103   3.445   1.878  11.119 -0.2563  0.2078 -0.4565
15538TIP3   OH268104   2.927   5.746  14.149  0.0434 -0.3971 -0.5192
15538TIP3    H168105   2.948   5.722  14.058 -0.0551 -0.4436 -0.5303
15538TIP3    H268106   2.850   5.693  14.170 -0.9256  0.7850 -0.9562
15539TIP3   OH268107   4.906   6.741  17.040  0.2257 -0.2355  0.2747
15539TIP3    H168108   4.898   6.834  17.019 -0.8520 -0.1008  1.1987
15539TIP3    H268109   4.820   6.704  17.017  0.1881 -0.7360  1.1789
15540TIP3   OH268110   2.735   4.720  16.451 -0.1150  0.1318 -0.4184
15540TIP3    H168111   2.708   4.765  16.531  1.6259  1.1287 -0.3281
15540TIP3    H268112   2.666   4.657  16.433 -0.6990  0.1290  1.6825
15541TIP3   OH268113   5.453   5.303   4.368 -0.3997 -0.1937  0.7448
15541TIP3    H168114   5.432   5.245   4.295  0.3251 -0.4972  0.7708
15541TIP3    H268115   5.393   5.376   4.358  0.5513  0.4178 -0.9354
15542TIP3   OH268116   2.914   6.568  11.369 -0.1837 -0.4944 -0.4419
15542TIP3    H168117   2.929   6.610  11.284 -1.8910  1.0852 -0.0463
15542TIP3    H268118   2.825   6.532  11.362 -0.9571  0.9626  1.0952
15543TIP3   OH268119   6.549   3.313  13.084 -0.2579  0.5189 -0.4591
15543TIP3    H168120   6.615   3.249  13.061  0.8357  1.9161 -1.3734
15543TIP3    H268121   6.466   3.270  13.066  0.2800 -1.7835  2.0263
15544TIP3   OH268122   6.191   2.302   6.426  0.2537  0.6966 -0.2769
15544TIP3    H168123   6.162   2.250   6.351 -0.6600  0.5872  0.1380
15544TIP3    H268124   6.116   2.301   6.486  0.1313  2.6428 -0.3322
15545TIP3   OH268125   3.067   0.664  15.552  0.0540 -0.1926 -0.3169
15545TIP3    H168126   3.015   0.706  15.620  0.8639 -0.9672  0.8344
15545TIP3    H268127   3.007   0.602  15.511 -0.8108  1.2137 -1.2298
15546TIP3   OH268128   5.559   0.866   2.134 -0.0314  0.1689  0.1438
15546TIP3    H168129   5.635   0.808   2.144 -1.1429 -1.3777 -0.0454
15546TIP3    H268130   5.551   0.878   2.039 -0.5062 -0.3481  0.1156
15547TIP3   OH268131   6.316   5.641   2.711  0.1328  0.6646 -0.0281
15547TIP3    H168132   6.386   5.613   2.652 -0.4558  1.2152 -1.0151
15547TIP3    H268133   6.257   5.692   2.656 -3.4108 -3.2940 -0.4126
15548TIP3   OH268134   1.672   2.650   5.089  0.2588 -0.4328 -0.2843
15548TIP3    H168135   1.625   2.733   5.079  0.9831  0.0269  0.0496
15548TIP3    H268136   1.688   2.644   5.183  1.1544 -0.4188 -0.4305
15549TIP3   OH268137   3.889   0.078   1.409  0.0129  0.8217  0.4595
15549TIP3    H168138   3.919   0.090   1.499  0.8852 -0.5204  0.3740
15549TIP3    H268139   3.969   0.063   1.359 -0.6401 -1.8963  0.0533
15550TIP3   OH268140   5.387   3.557  15.578 -0.1511  0.7377 -0.6610
15550TIP3    H168141   5.317   3.534  15.638  1.2558 -0.7735  0.5101
15550TIP3    H268142   5.362   3.517  15.494  0.8997 -3.1334  0.6290
15551TIP3   OH268143   6.538   4.169   4.509  0.4205 -0.2758  0.0203
15551TIP3    H168144   6.465   4.190   4.567  0.6628  1.6348 -0.3209
15551TIP3    H268145   6.575   4.088   4.546 -2.1314 -1.6021 -0.1069
15552TIP3   OH268146   5.579   0.577  14.281 -0.8060  0.1563  0.6375
15552TIP3    H168147   5.594   0.671  14.273 -1.5808  0.2593  0.2203
15552TIP3    H268148   5.621   0.539  14.204 -1.4824  0.2968  0.1871
15553TIP3   OH268149   3.582   6.444  14.293  0.0099  0.3213  0.1511
15553TIP3    H168150   3.671   6.477  14.302 -0.2660  0.5553  2.7198
15553TIP3    H268151   3.527   6.520  14.313 -0.8059  0.1227 -1.2024
15554TIP3   OH268152   1.894   1.986  11.295 -0.0148 -0.3116  0.7605
15554TIP3    H168153   1.919   1.911  11.349 -0.1101 -0.6750  0.3081
15554TIP3    H268154   1.799   1.993  11.308  0.1587  0.4602  1.7125
15555TIP3   OH268155   5.117   2.412  17.043 -0.2523 -0.7457  0.3756
15555TIP3    H168156   5.158   2.349  16.984  1.7018  0.0397  0.8247
15555TIP3    H268157   5.056   2.461  16.988  3.1599  1.5742 -1.6955
15556TIP3   OH268158   6.268   4.171  14.269  0.4186 -0.0181  0.8103
15556TIP3    H168159   6.262   4.119  14.350  0.3843 -0.6855  0.3875
15556TIP3    H268160   6.343   4.229  14.284 -1.4659  2.1358  2.5766
15557TIP3   OH268161   5.250   2.874   0.730  0.4938 -0.6380 -0.7958
15557TIP3    H168162   5.259   2.949   0.790 -3.0700  0.6326 -1.6339
15557TIP3    H268163   5.210   2.805   0.784 -0.5072 -0.3131 -1.1089
15558TIP3   OH268164   0.666   6.273   3.709 -0.1170  0.1772 -0.1707
15558TIP3    H168165   0.681   6.202   3.772  2.8975 -0.0071 -0.9334
15558TIP3    H268166   0.708   6.349   3.749  0.0910  0.5463 -1.0727
15559TIP3   OH268167   3.398   2.250   0.689  0.3759  0.1117  0.1223
15559TIP3    H168168   3.418   2.301   0.767 -0.1567  1.5638 -0.6450
15559TIP3    H268169   3.478   2.201   0.670  0.3933 -0.5231  1.7575
15560TIP3   OH268170   1.676   2.263   1.911  0.1737  0.8488  0.4020
15560TIP3    H168171   1.691   2.357   1.919  1.7200  0.7574 -0.9655
15560TIP3    H268172   1.735   2.235   1.841 -2.5828 -0.5810 -1.5586
15561TIP3   OH268173   0.391   1.654   6.147 -0.2591  0.2340  0.0276
15561TIP3    H168174   0.378   1.721   6.215  2.6794 -0.5363  1.4757
15561TIP3    H268175   0.321   1.590   6.164  0.1615  0.2459  2.1647
15562TIP3   OH268176   0.596   5.842  14.427 -0.0283 -0.1447  0.3019
15562TIP3    H168177   0.659   5.781  14.390  0.5909 -0.0810  1.2247
15562TIP3    H268178   0.647   5.898  14.485 -1.0464 -0.6823  1.7991
15563TIP3   OH268179   4.869   0.088   6.014  0.0713 -0.0653 -0.1471
15563TIP3    H168180   4.787   0.137   6.020  0.5637  0.7101  0.3734
15563TIP3    H268181   4.911   0.101   6.099  1.4429  0.8431 -0.9257
15564TIP3   OH268182   6.328   1.388   4.560 -0.6424  0.4876 -0.1130
15564TIP3    H168183   6.335   1.459   4.497 -1.7182  1.0068  0.3133
15564TIP3    H268184   6.339   1.309   4.509  0.8199  0.9587 -0.5593
15565TIP3   OH268185   5.956   5.362   6.566 -0.2962  0.3544  0.8605
15565TIP3    H168186   5.918   5.347   6.479  1.6629 -0.0429  0.0154
15565TIP3    H268187   5.924   5.289   6.618 -1.4120  0.5339  0.4637
15566TIP3   OH268188   6.252   0.565  11.828  0.1810  0.0014 -0.0555
15566TIP3    H168189   6.339   0.587  11.795  0.8662 -2.0868  0.2204
15566TIP3    H268190   6.193   0.592  11.758  1.2101 -0.0954 -0.9947
15567TIP3   OH268191   2.970   6.313  14.842  0.1095 -0.8519 -0.0841
15567TIP3    H168192   3.055   6.271  14.828 -1.1182 -3.2003 -1.1772
15567TIP3    H268193   2.922   6.298  14.761 -1.0666  1.2167  0.1744
15568TIP3   OH268194   0.951   3.997  16.325 -0.5094 -0.1521 -0.1390
15568TIP3    H168195   0.960   4.040  16.410 -0.5840 -0.5920  0.0935
15568TIP3    H268196   0.907   4.062  16.270 -0.6400  0.0596  0.2136
15569TIP3   OH268197   2.597   4.231  14.228 -0.0214 -0.1405  0.2830
15569TIP3    H168198   2.543   4.309  14.216  0.8118  0.1425 -2.1460
15569TIP3    H268199   2.649   4.225  14.148  3.4760 -0.4781  2.3812
15570TIP3   OH268200   4.756   6.579  15.443 -0.4936 -0.1069  0.0091
15570TIP3    H168201   4.718   6.514  15.384 -2.8288 -0.0457  1.2976
15570TIP3    H268202   4.814   6.530  15.500 -1.1725 -0.8577  0.0755
15571TIP3   OH268203   2.854   4.527   5.962  0.0384 -0.0056 -0.5786
15571TIP3    H168204   2.791   4.508   6.031 -0.4567  2.6199 -0.2065
15571TIP3    H268205   2.834   4.464   5.893  0.0757 -2.2247  1.3267
15572TIP3   OH268206   2.041   6.760  13.666  0.3160  0.4317  0.2294
15572TIP3    H168207   2.044   6.665  13.658  0.0468  0.4431 -0.0254
15572TIP3    H268208   2.108   6.792  13.605  1.2665  0.3661  1.2169
15573TIP3   OH268209   5.219   4.810  14.241  0.6997  0.0374  0.4728
15573TIP3    H168210   5.287   4.769  14.187 -1.8989 -0.5369 -2.6325
15573TIP3    H268211   5.231   4.903  14.227  3.5904  0.3793  3.7326
15574TIP3   OH268212   2.149   6.168   1.626 -0.9991  0.6357  0.2509
15574TIP3    H168213   2.171   6.255   1.594  0.4124  0.4136  0.5355
15574TIP3    H268214   2.104   6.125   1.554 -1.9674  1.6867  0.2092
15575TIP3   OH268215   3.999   5.732   1.966  0.2413  0.3285 -0.2665
15575TIP3    H168216   3.917   5.691   1.994  1.9222 -1.9325  1.7368
15575TIP3    H268217   3.999   5.817   2.012 -1.4516  0.9324 -1.2634
15576TIP3   OH268218   4.306   1.812  15.475 -0.0534  0.6901 -0.7360
15576TIP3    H168219   4.241   1.851  15.534  0.6892  0.5959  0.1522
15576TIP3    H268220   4.386   1.861  15.491  1.1609 -1.6613  1.0384
15577TIP3   OH268221   2.585   3.952   2.644 -0.2906  0.1111 -0.1285
15577TIP3    H168222   2.606   4.029   2.696 -0.0410  0.2338 -0.4103
15577TIP3    H268223   2.505   3.918   2.683  0.6240 -0.6009  1.2399
15578TIP3   OH268224   4.256   5.045  15.736  0.0839 -0.2664  0.0765
15578TIP3    H168225   4.221   5.133  15.751  0.8027 -0.2107  1.5368
15578TIP3    H268226   4.350   5.053  15.752  0.1374 -1.3270  0.3720
15579TIP3   OH268227   5.591   2.451  12.368  0.1643  0.1660 -0.1400
15579TIP3    H168228   5.658   2.384  12.384 -1.4735 -1.5997 -0.3081
15579TIP3    H268229   5.566   2.481  12.455 -0.7889 -1.2482  0.1081
15580TIP3   OH268230   5.362   1.158  14.396 -0.3486  0.0816 -0.1026
15580TIP3    H168231   5.440   1.153  14.341  0.4381 -0.0528  1.0116
15580TIP3    H268232   5.329   1.248  14.383  1.5222  1.0614  1.4416
15581TIP3   OH268233   2.796   0.357   0.812  0.1965  0.4830 -0.4793
15581TIP3    H168234   2.850   0.407   0.751 -2.1597  0.9302 -2.3320
15581TIP3    H268235   2.708   0.394   0.803 -0.8609 -1.4802  0.9345
15582TIP3   OH268236   1.774   4.302  11.288  0.2299 -0.1297  0.1180
15582TIP3    H168237   1.843   4.319  11.224  0.5664 -1.1084  0.1958
15582TIP3    H268238   1.799   4.353  11.365 -0.0941  0.9287 -0.4574
15583TIP3   OH268239   4.264   4.813  17.136 -0.0469  0.4141 -0.1255
15583TIP3    H168240   4.353   4.786  17.161 -0.4661 -1.6465 -0.7553
15583TIP3    H268241   4.216   4.816  17.219 -0.1008 -1.3070 -0.0655
15584TIP3   OH268242   1.586   4.861   2.820  0.0605 -0.4281  0.1002
15584TIP3    H168243   1.639   4.785   2.800 -0.2924 -0.6285 -0.0845
15584TIP3    H268244   1.627   4.900   2.898 -0.1119 -1.1478  0.5571
15585TIP3   OH268245   2.358   0.137  15.254 -0.0229  0.2415  0.5156
15585TIP3    H168246   2.362   0.139  15.158  0.1641  0.1519  0.5201
15585TIP3    H268247   2.442   0.173  15.282  0.3902 -0.7615  0.6354
15586TIP3   OH268248   3.559   1.357   2.608 -0.6332 -0.3141  0.0978
15586TIP3    H168249   3.526   1.304   2.535  0.2713  0.6992 -1.0957
15586TIP3    H268250   3.617   1.421   2.567  0.5950 -0.2578  1.8028
15587TIP3   OH268251   3.471   4.971  14.110 -0.5396  0.1118 -0.3518
15587TIP3    H168252   3.440   5.034  14.045 -3.3007  0.8095  1.4776
15587TIP3    H268253   3.397   4.910  14.121  0.3939 -0.8147  1.1023
15588TIP3   OH268254   0.423   5.448   0.725 -0.7273 -0.3346  0.2643
15588TIP3    H168255   0.482   5.376   0.704  0.9454  0.6234  1.4206
15588TIP3    H268256   0.342   5.427   0.679  1.3765 -0.2088 -3.9400
15589TIP3   OH268257   1.191   1.518   4.663  0.7969  0.0423 -0.0601
15589TIP3    H168258   1.136   1.592   4.690 -0.3596 -0.6824 -0.3376
15589TIP3    H268259   1.254   1.508   4.734  0.0494  0.3957  0.6706
15590TIP3   OH268260   5.341   6.746  13.125  0.4497  0.8558  0.4014
15590TIP3    H168261   5.251   6.765  13.101  0.2586  0.9325  1.1575
15590TIP3    H268262   5.364   6.668  13.074  0.1139  1.1150 -0.1451
15591TIP3   OH268263   0.850   2.968   0.359 -0.2049  0.5298 -0.5581
15591TIP3    H168264   0.867   3.047   0.410 -0.2036  0.5498 -0.5896
15591TIP3    H268265   0.757   2.975   0.335 -1.0255 -0.8881  1.8976
15592TIP3   OH268266   5.292   4.702  11.906  0.3031  0.3005  0.0528
15592TIP3    H168267   5.229   4.634  11.884 -0.1519  0.7780 -0.1533
15592TIP3    H268268   5.347   4.710  11.828 -0.9326  1.5754 -0.7420
15593TIP3   OH268269   6.015   1.042  14.781  0.1980  0.6060 -0.0549
15593TIP3    H168270   5.994   1.074  14.693  1.0997  0.0140 -0.5067
15593TIP3    H268271   5.934   1.003  14.813  0.3234 -0.8578 -1.3925
15594TIP3   OH268272   1.900   2.181   5.977  0.2549 -0.5906  0.7836
15594TIP3    H168273   1.983   2.139   6.000 -0.8820 -3.8706 -0.4566
15594TIP3    H268274   1.921   2.238   5.903  1.7162  0.3639  1.8733
15595TIP3   OH268275   6.720   3.142  14.649  0.0021 -0.5795  0.1056
15595TIP3    H168276   6.729   3.199  14.725 -0.8231  1.2221 -1.0894
15595TIP3    H268277   6.807   3.140  14.610 -0.0618  0.2448 -0.0957
15596TIP3   OH268278   4.574   0.991   0.131  0.8108 -0.6727 -0.4275
15596TIP3    H168279   4.495   1.042   0.111  0.0588 -1.4218  0.4834
15596TIP3    H268280   4.540   0.903   0.151  1.5166 -0.2905  3.0456
15597TIP3   OH268281   4.096   6.125   0.363  0.4542  0.6979 -0.2152
15597TIP3    H168282   4.176   6.171   0.390  0.9331  1.0422 -2.0656
15597TIP3    H268283   4.095   6.135   0.268 -0.9618 -0.6919 -0.3660
15598TIP3   OH268284   4.227   4.537  11.552 -0.4659 -0.1651 -0.0206
15598TIP3    H168285   4.255   4.457  11.506  2.2803 -1.2578  3.1925
15598TIP3    H268286   4.290   4.603  11.525 -0.7272  0.0224 -0.1698
15599TIP3   OH268287   4.166   5.545   2.386  0.4180  0.6751  0.3224
15599TIP3    H168288   4.137   5.626   2.344 -0.1997  1.0072  1.3521
15599TIP3    H268289   4.196   5.573   2.473 -1.7732 -0.4310  1.5129
15600TIP3   OH268290   2.158   5.917   2.763  0.3395 -0.7282  0.1460
15600TIP3    H168291   2.212   5.843   2.792  0.4931 -0.3350  0.8878
15600TIP3    H268292   2.193   5.941   2.678 -0.5258 -2.3311 -0.7188
15601TIP3   OH268293   5.574   3.699   0.504  0.0704 -0.2375  0.2653
15601TIP3    H168294   5.594   3.771   0.444 -0.9416 -0.4363 -0.3364
15601TIP3    H268295   5.527   3.635   0.450 -0.6133 -0.5463  1.2021
15602TIP3   OH268296   3.267   5.280  15.308 -0.0586  0.2632 -0.4698
15602TIP3    H168297   3.205   5.251  15.375  1.1233 -0.1950  0.4447
15602TIP3    H268298   3.214   5.335  15.249 -0.9475  1.3646  1.2721
15603TIP3   OH268299   5.228   5.620   2.686 -0.3845 -0.3914  0.2232
15603TIP3    H168300   5.209   5.527   2.684  2.4241 -1.0464 -0.7773
15603TIP3    H268301   5.146   5.662   2.661 -1.3717 -2.6644 -0.5689
15604TIP3   OH268302   3.617   4.787   3.628  0.0033 -0.0906  0.3975
15604TIP3    H168303   3.566   4.760   3.552 -0.3880 -1.2921  1.0451
15604TIP3    H268304   3.554   4.791   3.699  0.1765  2.0233  0.4784
15605TIP3   OH268305   6.319   1.348  12.455  0.1538 -0.0047 -0.1166
15605TIP3    H168306   6.345   1.380  12.542 -0.3810 -0.3743  0.1848
15605TIP3    H268307   6.362   1.263  12.447  1.6215  0.7705 -0.9417
15606TIP3   OH268308   2.132   1.472   4.679  0.6296 -0.0997  0.1261
15606TIP3    H168309   2.076   1.395   4.687  0.0325  0.3020 -0.1159
15606TIP3    H268310   2.092   1.524   4.609  1.6731 -0.1099 -0.4927
15607TIP3   OH268311   3.604   0.569  16.967  0.3650  0.3526  0.1271
15607TIP3    H168312   3.651   0.550  16.886 -0.3343 -1.3528  0.0670
15607TIP3    H268313   3.609   0.488  17.018 -0.4801  0.8958  1.1363
15608TIP3   OH268314   2.207   5.197  16.958 -0.6615  0.0791  0.1406
15608TIP3    H168315   2.276   5.256  16.987 -1.7032  0.9305  0.9818
15608TIP3    H268316   2.210   5.202  16.862 -0.7528  1.5562  0.1884
15609TIP3   OH268317   2.902   0.795  15.783 -0.6834  0.1185  0.2245
15609TIP3    H168318   2.835   0.731  15.759 -0.4346  0.2012 -0.7071
15609TIP3    H268319   2.853   0.877  15.796 -1.0014 -0.2307  1.4216
15610TIP3   OH268320   1.005   4.975  16.747  0.2161 -0.2538 -0.2022
15610TIP3    H168321   0.974   5.042  16.686 -1.7077 -2.8006 -2.2678
15610TIP3    H268322   0.926   4.946  16.793  1.1598 -0.4789  1.3431
15611TIP3   OH268323   0.421   5.618  14.493 -0.3333 -0.4935 -0.2758
15611TIP3    H168324   0.456   5.659  14.413 -0.6314 -1.6596 -1.0275
15611TIP3    H268325   0.487   5.636  14.560 -0.7449  1.7564 -0.3869
15612TIP3   OH268326   3.918   0.837  11.800 -0.3418  0.5667 -0.0985
15612TIP3    H168327   3.831   0.851  11.762 -0.6317  0.2352  0.4228
15612TIP3    H268328   3.901   0.824  11.893  0.2339  0.1019 -0.0558
15613TIP3   OH268329   6.499   2.947  11.788 -0.1168  0.6722 -0.5513
15613TIP3    H168330   6.464   3.013  11.728 -1.1910  0.4315 -0.2121
15613TIP3    H268331   6.471   2.976  11.875 -0.9069 -0.3935 -0.4267
15614TIP3   OH268332   3.450   6.256  14.133  0.4993 -0.0993  0.2367
15614TIP3    H168333   3.466   6.170  14.172 -1.2099 -1.1886 -1.2960
15614TIP3    H268334   3.510   6.315  14.178  2.3362 -2.2415  0.7284
15615TIP3   OH268335   1.354   6.445  15.869 -0.1917 -0.0780 -0.2013
15615TIP3    H168336   1.274   6.487  15.835  0.8737  0.8036 -1.7491
15615TIP3    H268337   1.413   6.442  15.794  1.8184  0.6967  1.2564
15616TIP3   OH268338   5.289   5.153   1.133 -0.1884  0.2583  0.2334
15616TIP3    H168339   5.313   5.180   1.045  0.6693  1.5236  0.8368
15616TIP3    H268340   5.371   5.124   1.173 -0.2859  1.1661  1.1204
15617TIP3   OH268341   5.480   6.362   4.954 -0.2519 -0.0681 -0.6947
15617TIP3    H168342   5.566   6.336   4.919 -0.0835 -0.1552 -0.2228
15617TIP3    H268343   5.419   6.300   4.914  0.4500 -3.1660  2.5485
15618TIP3   OH268344   6.512   0.324  15.352  0.1933  0.2202 -0.6794
15618TIP3    H168345   6.499   0.231  15.334  1.5182 -0.2741  0.7242
15618TIP3    H268346   6.549   0.327  15.440 -0.4927  2.1336 -0.4002
15619TIP3   OH268347   1.134   1.128  13.028  0.2610 -0.4475 -0.1936
15619TIP3    H168348   1.177   1.190  13.088 -2.2642  0.6206  0.6545
15619TIP3    H268349   1.119   1.050  13.082 -1.1198  0.1531  0.3603
15620TIP3   OH268350   0.097   5.789  14.490  0.0575  0.4644 -0.0359
15620TIP3    H168351   0.087   5.708  14.440 -1.8169 -0.1208  1.1808
15620TIP3    H268352   0.145   5.848  14.432 -2.4642  0.0369 -2.7726
15621TIP3   OH268353   2.209   1.218   0.478 -0.1752 -0.4646  0.0783
15621TIP3    H168354   2.145   1.271   0.525 -0.8003 -1.2459  0.1391
15621TIP3    H268355   2.162   1.186   0.401  0.3418 -0.5272 -0.2148
15622TIP3   OH268356   1.573   0.249  11.309  0.1585  0.1995  0.0312
15622TIP3    H168357   1.541   0.327  11.264  0.7904  0.2071 -0.4314
15622TIP3    H268358   1.619   0.282  11.386 -1.4856  0.1547  1.0798
15623TIP3   OH268359   0.388   0.460   1.679 -0.1576 -0.4364 -0.3686
15623TIP3    H168360   0.376   0.552   1.656 -0.4471 -0.3357  0.1658
15623TIP3    H268361   0.483   0.447   1.678 -0.0929 -0.0090  0.0041
15624TIP3   OH268362   3.414   4.453  16.431 -0.2102 -0.0812  0.0149
15624TIP3    H168363   3.445   4.536  16.467 -0.4126 -0.0416  0.0995
15624TIP3    H268364   3.323   4.446  16.461  0.1816 -0.9379  1.0876
15625TIP3   OH268365   1.812   4.504   3.506 -0.0588 -0.1053  0.0158
15625TIP3    H168366   1.735   4.540   3.550 -0.9736 -1.2382 -0.6121
15625TIP3    H268367   1.871   4.478   3.577  0.1949  1.6174  0.4932
15626TIP3   OH268368   5.916   6.153  11.379 -0.8037  0.5864 -0.0086
15626TIP3    H168369   5.920   6.223  11.444  0.1284 -0.1966  0.7989
15626TIP3    H268370   5.871   6.193  11.304 -1.0062  1.7988  0.7352
15627TIP3   OH268371   1.487   5.928   3.623 -0.0601  0.5641 -0.1908
15627TIP3    H168372   1.534   5.870   3.683 -1.7067 -1.9711 -1.2050
15627TIP3    H268373   1.396   5.902   3.631 -0.9382  3.2264 -0.5657
15628TIP3   OH268374   0.842   2.238   5.128  0.2668 -0.3588 -0.8625
15628TIP3    H168375   0.823   2.325   5.091  0.2634  0.4753  0.9838
15628TIP3    H268376   0.762   2.214   5.175  1.0220 -0.3349  0.4905
15629TIP3   OH268377   5.260   5.457  15.148  0.3556 -0.7806  0.0562
15629TIP3    H168378   5.266   5.449  15.243 -2.5924 -2.0625  0.2283
15629TIP3    H268379   5.279   5.369  15.116 -0.6779 -0.8503 -0.3843
15630TIP3   OH268380   4.920   3.219  17.035  0.1911 -0.5378 -0.3577
15630TIP3    H168381   4.840   3.270  17.021 -0.8663 -2.1545 -0.4842
15630TIP3    H268382   4.975   3.239  16.959 -0.6743 -0.4377 -0.9715
15631TIP3   OH268383   4.952   2.527  14.167 -0.5321  0.2799  0.2701
15631TIP3    H168384   4.978   2.448  14.214  3.0678  1.1970  0.0700
15631TIP3    H268385   4.933   2.496  14.078  1.4795 -0.3735  0.0104
15632TIP3   OH268386   3.296   0.973  16.390 -0.3409 -0.3975  0.8316
15632TIP3    H168387   3.368   0.983  16.452  0.8056 -1.6301 -0.2471
15632TIP3    H268388   3.231   1.038  16.418  1.0475  0.5437  2.0057
15633TIP3   OH268389   2.365   2.821   4.807 -0.7303 -0.4545 -0.0159
15633TIP3    H168390   2.325   2.900   4.770 -0.2559  0.0409  0.5050
15633TIP3    H268391   2.387   2.846   4.897 -1.1298 -1.3802  0.3395
15634TIP3   OH268392   4.556   3.956   4.265 -0.2861 -0.4656 -0.2914
15634TIP3    H168393   4.628   3.921   4.318  1.0657 -1.3798 -2.5686
15634TIP3    H268394   4.596   4.026   4.215 -1.3437 -0.0862 -0.6171
15635TIP3   OH268395   5.362   2.587   4.588 -0.3327  0.1625  0.9013
15635TIP3    H168396   5.337   2.569   4.497 -0.4417  1.1036  0.7411
15635TIP3    H268397   5.396   2.503   4.619  0.0379 -0.0892 -0.1146
15636TIP3   OH268398   0.972   0.106  16.486  0.6689 -0.2148 -0.2922
15636TIP3    H168399   1.012   0.060  16.560 -1.3920 -0.6553  0.6073
15636TIP3    H268400   0.895   0.148  16.523 -0.2175 -0.1294 -2.1255
15637TIP3   OH268401   2.865   3.742  14.283 -0.3173  0.1099 -0.0111
15637TIP3    H168402   2.910   3.741  14.199  1.1075  0.3307  0.7158
15637TIP3    H268403   2.909   3.811  14.333 -0.5620 -0.5770  1.1970
15638TIP3   OH268404   6.287   1.380   3.682  0.4102  0.2367  0.1611
15638TIP3    H168405   6.232   1.302   3.687  1.3585 -0.5448 -0.9417
15638TIP3    H268406   6.376   1.346   3.670  0.7197  1.4493 -1.4519
15639TIP3   OH268407   4.664   6.548  12.630  0.1236  0.0723  1.1724
15639TIP3    H168408   4.671   6.452  12.630  0.7676  0.0016 -2.1754
15639TIP3    H268409   4.573   6.566  12.606  0.4332  0.2257  0.0533
15640TIP3   OH268410   3.609   1.372  15.447  0.2747  0.0006 -0.0446
15640TIP3    H168411   3.656   1.292  15.470  1.8398  0.9120  0.0489
15640TIP3    H268412   3.612   1.376  15.352 -0.0748 -0.1930 -0.0672
15641TIP3   OH268413   6.354   4.382  13.611 -0.1234 -0.1624  0.0749
15641TIP3    H168414   6.324   4.348  13.527 -1.0378  0.8988 -0.0534
15641TIP3    H268415   6.449   4.370  13.610 -0.1465 -0.3322 -1.0270
15642TIP3   OH268416   6.795   1.960  16.686 -0.4291  0.1722  0.3807
15642TIP3    H168417   6.764   2.035  16.737 -1.6518 -0.6358  0.8727
15642TIP3    H268418   6.819   1.997  16.601  0.1092  1.2892  0.9935
15643TIP3   OH268419   1.678   4.818   5.081  0.4725 -0.2914  0.6667
15643TIP3    H168420   1.768   4.796   5.105  0.7682 -0.3606 -0.4457
15643TIP3    H268421   1.628   4.805   5.161  1.3407 -0.9072  1.1248
15644TIP3   OH268422   0.341   1.792  13.908 -0.5366 -0.4000 -0.4020
15644TIP3    H168423   0.418   1.824  13.862 -0.7113  1.7910  0.6836
15644TIP3    H268424   0.357   1.813  14.000 -2.2976 -0.1111 -0.1228
15645TIP3   OH268425   5.364   0.604  14.468  0.6436  0.1617 -0.0983
15645TIP3    H168426   5.424   0.570  14.535 -0.3026 -1.0456  0.1799
15645TIP3    H268427   5.413   0.596  14.386  0.9411 -0.6319  0.1458
15646TIP3   OH268428   0.802   6.533  11.347  0.2923  0.3978 -0.3513
15646TIP3    H168429   0.728   6.513  11.290 -1.0983  3.8267  0.0330
15646TIP3    H268430   0.796   6.468  11.418  0.2974 -2.0531 -2.4492
15647TIP3   OH268431   2.471   3.539  16.887 -0.1811 -0.1540 -0.2732
15647TIP3    H168432   2.397   3.479  16.883  0.4725 -0.9122 -1.7089
15647TIP3    H268433   2.529   3.501  16.953 -0.3647 -0.3936 -0.2490
15648TIP3   OH268434   2.557   3.056   4.039 -0.5982 -0.2271 -0.3127
15648TIP3    H168435   2.574   3.070   3.946  1.6274  0.1742  0.0915
15648TIP3    H268436   2.584   3.137   4.081 -0.0119 -0.9724  0.8076
15649TIP3   OH268437   0.616   2.393   4.809  0.7185  0.1971 -0.3249
15649TIP3    H168438   0.681   2.431   4.868  0.9274  0.6379 -0.8338
15649TIP3    H268439   0.540   2.452   4.817  0.5068 -0.1167  0.0010
15650TIP3   OH268440   6.493   4.654   2.372  0.0346  0.3100 -0.0771
15650TIP3    H168441   6.518   4.704   2.449  0.4685  0.7685 -0.5148
15650TIP3    H268442   6.398   4.642   2.382 -0.1422  1.5285 -0.1483
15651TIP3   OH268443   3.337   1.892   1.476 -0.0488 -1.0865  0.2679
15651TIP3    H168444   3.363   1.976   1.515 -2.7723 -0.0176  0.0029
15651TIP3    H268445   3.418   1.842   1.471  1.7492  1.6207  0.1821
15652TIP3   OH268446   5.162   2.688   0.156 -0.1999  0.4357  0.7158
15652TIP3    H168447   5.120   2.703   0.071 -2.3913 -2.7655  1.0265
15652TIP3    H268448   5.101   2.726   0.220  0.1877  0.6730  0.9449
15653TIP3   OH268449   0.104   0.999   6.597  0.3861  0.3788 -0.7302
15653TIP3    H168450   0.092   0.985   6.503  1.3731  1.0233 -0.9683
15653TIP3    H268451   0.074   1.088   6.612 -1.7435 -0.3960 -0.0247
15654TIP3   OH268452   1.560   1.135  16.161  0.5837  0.1878  0.7515
15654TIP3    H168453   1.553   1.191  16.238 -3.8021  2.1734 -0.7503
15654TIP3    H268454   1.568   1.197  16.088 -0.2756 -1.3665 -0.7218
15655TIP3   OH268455   5.774   0.306   5.151  0.1752  0.5976  0.7743
15655TIP3    H168456   5.839   0.321   5.082  0.8733  0.4267  1.3863
15655TIP3    H268457   5.812   0.237   5.205 -1.2980 -0.7521  0.1593
15656TIP3   OH268458   2.296   2.599  11.739  0.5748 -0.2736 -0.0997
15656TIP3    H168459   2.367   2.553  11.785  2.1877  1.2331 -0.9616
15656TIP3    H268460   2.332   2.686  11.721 -2.1112  1.1299  0.8753
15657TIP3   OH268461   4.123   1.516  11.689  0.0395 -0.2460  0.5484
15657TIP3    H168462   4.147   1.592  11.636  0.7804 -1.3980 -0.8395
15657TIP3    H268463   4.190   1.513  11.757  0.3131  0.0478  0.2979
15658TIP3   OH268464   4.671   0.834   3.301 -0.0761 -0.3433 -0.3917
15658TIP3    H168465   4.580   0.841   3.274 -0.5826 -1.7335  0.8076
15658TIP3    H268466   4.667   0.827   3.397  1.2339 -1.0671 -0.3607
15659TIP3   OH268467   1.116   6.802  17.138  0.1856 -0.1198  0.0493
15659TIP3    H168468   1.102   6.888  17.178  0.0346 -0.2916  0.3641
15659TIP3    H268469   1.173   6.820  17.063 -0.4612  0.3628 -0.3406
15660TIP3   OH268470   1.789   2.950   6.038 -0.2622 -1.2127  0.3669
15660TIP3    H168471   1.760   2.915   5.954 -1.2724 -0.2649  0.3003
15660TIP3    H268472   1.836   2.877   6.079  0.8264 -1.5056 -1.2627
15661TIP3   OH268473   0.502   2.812  13.877  0.1615  0.2607 -0.3686
15661TIP3    H168474   0.427   2.755  13.865 -0.6918  1.5530 -1.4985
15661TIP3    H268475   0.541   2.818  13.789  0.5856  0.9447 -0.1389
15662TIP3   OH268476   4.436   1.557   1.670 -0.1592  0.0994  0.0079
15662TIP3    H168477   4.488   1.490   1.714  0.0026  1.0851  1.3844
15662TIP3    H268478   4.464   1.553   1.578  0.3778 -1.1823  0.2032
15663TIP3   OH268479   6.407   3.391   5.438 -0.4781  0.2293  0.6439
15663TIP3    H168480   6.377   3.441   5.363 -0.6237 -1.7433 -0.6800
15663TIP3    H268481   6.368   3.435   5.514 -0.8670  1.8607 -0.4620
15664TIP3   OH268482   2.361   5.914   5.689 -0.0255  0.3359  0.5410
15664TIP3    H168483   2.423   5.860   5.639  1.2040  0.1776  2.1694
15664TIP3    H268484   2.361   5.998   5.644 -2.8613 -1.1840 -2.7765
15665TIP3   OH268485   3.410   0.917   0.566  0.0654  0.0688  0.5756
15665TIP3    H168486   3.336   0.975   0.586 -1.7134 -2.3641  1.5326
15665TIP3    H268487   3.408   0.910   0.470 -2.8129 -2.0354  0.6483
15666TIP3   OH268488   6.375   3.971  14.111 -0.3779  0.2138 -0.2404
15666TIP3    H168489   6.371   4.031  14.036 -3.0424  0.2107 -0.2102
15666TIP3    H268490   6.325   4.016  14.179  1.7244  0.0732  1.5005
15667TIP3   OH268491   6.407   2.039  13.850  0.0296  0.2550  0.3830
15667TIP3    H168492   6.499   2.021  13.869  0.4331  0.6978 -0.9676
15667TIP3    H268493   6.409   2.123  13.804 -0.9924  0.0096 -0.1331
15668TIP3   OH268494   4.963   2.059   2.158 -0.2207 -0.2254  0.1298
15668TIP3    H168495   4.960   2.153   2.177 -0.0264 -0.7074  2.8405
15668TIP3    H268496   5.056   2.041   2.144 -0.0392 -0.3081  1.3841
15669TIP3   OH268497   1.552   5.481   1.392 -0.0267 -0.3719 -0.3861
15669TIP3    H168498   1.597   5.408   1.435  0.0622 -0.4975 -0.6934
15669TIP3    H268499   1.535   5.450   1.303  1.5053  0.5881 -1.0504
15670TIP3   OH268500   0.947   1.372  16.319 -0.4003 -0.0962  0.2387
15670TIP3    H168501   0.921   1.348  16.408  1.0091  0.0735  0.7213
15670TIP3    H268502   0.953   1.289  16.272 -1.9715 -0.1310  0.0291
15671TIP3   OH268503   1.171   3.870  14.032 -0.1254  1.0052 -0.1186
15671TIP3    H168504   1.199   3.961  14.043 -1.2674  1.1648  2.0056
15671TIP3    H268505   1.248   3.818  14.054  0.1628  1.4415 -0.0856
15672TIP3   OH268506   3.680   2.238   3.214 -0.0868 -0.6898  0.5517
15672TIP3    H168507   3.622   2.231   3.139 -0.1226  1.5268  0.2976
15672TIP3    H268508   3.661   2.161   3.267 -2.8202 -0.3603  0.1738
15673TIP3   OH268509   1.801   6.753  16.466 -0.3215 -0.2974 -0.2496
15673TIP3    H168510   1.722   6.699  16.469 -0.5031 -0.3056 -2.8757
15673TIP3    H268511   1.769   6.841  16.448  0.0410  0.6951  3.1625
15674TIP3   OH268512   6.097   0.264  15.863  0.1482  0.0033 -0.0802
15674TIP3    H168513   6.169   0.271  15.802  0.4252 -1.7317  0.0050
15674TIP3    H268514   6.134   0.289  15.948  0.4947 -0.3185 -0.1386
15675TIP3   OH268515   1.569   2.445  12.300  0.2316  0.7116  0.7324
15675TIP3    H168516   1.513   2.368  12.289  0.1758  0.6559  1.3757
15675TIP3    H268517   1.635   2.436  12.231  0.1180  0.1844  0.6837
15676TIP3   OH268518   5.823   4.791  11.659 -0.0931  0.6935 -0.1028
15676TIP3    H168519   5.761   4.858  11.630  1.2619  2.2488  0.4448
15676TIP3    H268520   5.893   4.840  11.701  0.3975 -1.1772  1.3685
15677TIP3   OH268521   2.596   6.402   2.579 -0.0025 -0.3408 -0.1227
15677TIP3    H168522   2.525   6.463   2.599 -0.1011 -0.7780  0.8987
15677TIP3    H268523   2.586   6.384   2.486 -2.2486 -1.6648  0.2971
15678TIP3   OH268524   4.154   2.928  13.554  0.3516 -0.5708 -0.0999
15678TIP3    H168525   4.064   2.950  13.578  0.6671  0.2481  0.3801
15678TIP3    H268526   4.192   3.011  13.525  0.8939 -0.9508 -0.4897
15679TIP3   OH268527   5.644   4.160  17.136  0.9836  0.5027 -0.1883
15679TIP3    H168528   5.625   4.066  17.138  0.8107  0.4285 -2.7680
15679TIP3    H268529   5.561   4.201  17.161  1.4678  0.0432  2.5535
15680TIP3   OH268530   2.804   1.183  16.385  0.2688  0.0160  1.0525
15680TIP3    H168531   2.819   1.214  16.474 -1.4306 -1.6105  1.9845
15680TIP3    H268532   2.742   1.246  16.348 -0.9082 -0.5847  1.9147
15681TIP3   OH268533   1.924   2.760  13.848  0.3562  0.1481  0.5794
15681TIP3    H168534   1.954   2.724  13.931  0.2280 -0.7966  0.2282
15681TIP3    H268535   1.868   2.834  13.873  0.4852  0.0008  1.3238
15682TIP3   OH268536   0.062   1.914   2.977 -0.1021  0.4123  0.9434
15682TIP3    H168537   0.124   1.844   2.960 -0.2343  0.5873 -0.3593
15682TIP3    H268538   0.113   1.994   2.969 -0.1595  0.5003  1.4487
15683TIP3   OH268539   1.472   0.530   0.865  0.2312 -0.0423  0.2457
15683TIP3    H168540   1.386   0.493   0.844  0.3917  0.3103 -1.1471
15683TIP3    H268541   1.510   0.553   0.780  0.5195  2.4698  0.9565
15684TIP3   OH268542   4.520   3.140   2.303  0.0251  0.3172 -0.9404
15684TIP3    H168543   4.456   3.109   2.367  3.0738  0.9532  2.7880
15684TIP3    H268544   4.542   3.063   2.251 -1.1457 -0.7560  0.0957
15685TIP3   OH268545   2.883   1.420  15.127  0.4668 -0.7411 -0.6851
15685TIP3    H168546   2.840   1.336  15.146  0.3863 -0.4369  0.5596
15685TIP3    H268547   2.922   1.408  15.040 -0.5042 -1.6785 -1.0205
15686TIP3   OH268548   3.995   3.296   1.912 -0.5037  0.7627 -0.6105
15686TIP3    H168549   3.954   3.382   1.921 -5.1291 -1.1249 -0.9773
15686TIP3    H268550   3.963   3.264   1.828 -2.4031 -2.8343  1.2763
15687TIP3   OH268551   2.192   3.176   4.051  0.6790  0.3973 -0.8335
15687TIP3    H168552   2.238   3.259   4.063  0.2206  0.5389 -0.0010
15687TIP3    H268553   2.172   3.147   4.140  0.1776 -0.2338 -1.1483
15688TIP3   OH268554   2.974   5.791   3.450  0.0693  0.4629 -0.5088
15688TIP3    H168555   3.065   5.818   3.465  1.0032 -1.9016 -1.3935
15688TIP3    H268556   2.966   5.708   3.497 -1.4469  0.3129 -0.9791
15689TIP3   OH268557   2.323   4.568   4.655 -0.6668 -0.1346  0.2330
15689TIP3    H168558   2.311   4.505   4.726  1.2204 -1.0221 -0.1534
15689TIP3    H268559   2.345   4.650   4.700  0.0818 -0.5793  0.7073
15690TIP3   OH268560   2.191   1.597   6.278  0.4013 -0.0887 -0.0581
15690TIP3    H168561   2.154   1.537   6.213  1.1337  1.0264 -1.5824
15690TIP3    H268562   2.205   1.679   6.230  3.2650  0.0609  0.8185
15691TIP3   OH268563   0.243   2.997   4.237 -0.6069 -0.1507 -0.0577
15691TIP3    H168564   0.317   2.936   4.242 -0.6088 -0.1895 -0.4503
15691TIP3    H268565   0.253   3.054   4.312 -0.1787 -0.1602 -0.1061
15692TIP3   OH268566   5.344   5.998   1.415 -0.1270 -0.9563 -0.2527
15692TIP3    H168567   5.422   5.943   1.402  0.9295  0.2182  0.8662
15692TIP3    H268568   5.341   6.053   1.336  1.7016  0.7320  0.7656
15693TIP3   OH268569   4.405   0.410   5.153  0.4284 -0.3345  0.3352
15693TIP3    H168570   4.463   0.378   5.085  0.2742  1.4587 -0.7162
15693TIP3    H268571   4.321   0.368   5.136 -0.4192  2.1384 -2.4430
15694TIP3   OH268572   0.063   2.979  14.432 -0.0867 -0.0196 -0.1939
15694TIP3    H168573   0.141   2.957  14.483  1.1578  2.4166 -0.9215
15694TIP3    H268574   0.084   2.952  14.343  0.1980  1.1696 -0.5016
15695TIP3   OH268575   6.709   5.996   0.777  0.0127  0.0341  0.4562
15695TIP3    H168576   6.721   5.932   0.847  0.4292 -0.5413 -0.1364
15695TIP3    H268577   6.654   5.952   0.712 -0.1298  0.4576  0.2810
15696TIP3   OH268578   0.072   6.405  11.064 -0.1230  0.5492 -0.2174
15696TIP3    H168579  -0.021   6.380  11.063 -0.5298  1.9989 -0.8818
15696TIP3    H268580   0.092   6.427  10.973  1.0630 -0.3430 -0.1972
15697TIP3   OH268581   2.245   1.934   1.292 -0.1190  0.1302 -0.2799
15697TIP3    H168582   2.159   1.920   1.253 -0.0901 -1.7143  0.2361
15697TIP3    H268583   2.306   1.926   1.218 -0.2857 -0.1695 -0.3878
15698TIP3   OH268584   5.580   4.868  11.969 -0.9307  0.0440  0.0354
15698TIP3    H168585   5.565   4.824  11.885  0.7724 -0.5496  0.0068
15698TIP3    H268586   5.605   4.957  11.945  0.6332 -0.4268 -0.1709
15699TIP3   OH268587   0.242   2.473   0.649  0.1499 -0.6866 -0.1008
15699TIP3    H168588   0.151   2.500   0.644  0.9117  2.0225 -0.8519
15699TIP3    H268589   0.263   2.475   0.743 -0.9497 -3.1404  0.2932
15700TIP3   OH268590   1.457   5.294   0.747 -0.4545 -0.3380  0.7322
15700TIP3    H168591   1.428   5.203   0.743 -1.9666  0.1621 -2.0085
15700TIP3    H268592   1.553   5.289   0.741 -0.4713 -1.7355  1.3011
15701TIP3   OH268593   1.160   2.200  14.426  0.1038  0.4211  0.2860
15701TIP3    H168594   1.100   2.148  14.479  0.0006 -0.5072 -0.6901
15701TIP3    H268595   1.231   2.140  14.403  0.1060  0.7604 -0.6738
15702TIP3   OH268596   5.805   2.113  14.813  0.1643  0.1144  0.0442
15702TIP3    H168597   5.755   2.191  14.787 -2.4814 -1.1756  0.8387
15702TIP3    H268598   5.875   2.146  14.869 -0.7070  1.9693  0.1154
15703TIP3   OH268599   3.355   4.607   4.853  0.2365 -0.6329 -0.0078
15703TIP3    H168600   3.445   4.583   4.873  0.9699 -0.4446 -2.6894
15703TIP3    H268601   3.362   4.683   4.796 -1.5076 -1.4301 -1.4147
15704TIP3   OH268602   1.304   3.653   1.203  0.4971  0.6424  0.1050
15704TIP3    H168603   1.292   3.567   1.243  2.1387  0.1165 -0.4286
15704TIP3    H268604   1.222   3.699   1.219 -0.2944 -0.9014  0.6925
15705TIP3   OH268605   1.541   2.585   4.225 -0.1833 -0.3748 -0.2342
15705TIP3    H168606   1.601   2.568   4.298  2.1428  0.0422 -1.9167
15705TIP3    H268607   1.599   2.598   4.150 -2.3354  1.6757 -1.6830
15706TIP3   OH268608   4.475   0.246   4.143  0.1519  0.0410  0.1393
15706TIP3    H168609   4.504   0.321   4.091 -2.8665  1.1300 -0.1783
15706TIP3    H268610   4.440   0.185   4.078  0.0981 -0.4368  0.6127
15707TIP3   OH268611   5.348   3.746  11.998  0.2622 -0.8896 -0.4003
15707TIP3    H168612   5.361   3.777  12.088  1.8122  1.0183 -1.2172
15707TIP3    H268613   5.347   3.826  11.945 -1.4588 -1.9137 -2.0322
15708TIP3   OH268614   1.604   0.922  12.255 -0.7489  0.1529  0.1372
15708TIP3    H168615   1.560   0.952  12.334  0.0316  0.1913  0.5648
15708TIP3    H268616   1.572   0.980  12.186 -0.6590  0.7828  0.6136
15709TIP3   OH268617   1.507   5.545  16.817 -0.1087  0.2582 -0.4397
15709TIP3    H168618   1.599   5.539  16.841 -0.1204 -0.7761 -0.5749
15709TIP3    H268619   1.507   5.582  16.729  0.2355 -0.3434 -0.7038
15710TIP3   OH268620   4.771   0.298   3.536 -0.2690  0.0729  0.0946
15710TIP3    H168621   4.838   0.279   3.471 -1.2752 -0.8668 -0.7087
15710TIP3    H268622   4.766   0.219   3.589 -0.5355  0.2537  0.3433
15711TIP3   OH268623   4.584   4.406   0.236  0.1199  0.2989 -1.2355
15711TIP3    H168624   4.634   4.487   0.225 -1.1493  1.3339  0.2000
15711TIP3    H268625   4.651   4.338   0.243  1.4381  1.6920  1.2096
15712TIP3   OH268626   3.118   5.673   2.811  0.0341  0.2612  0.0047
15712TIP3    H168627   3.099   5.616   2.886  4.5808 -1.5140  0.1432
15712TIP3    H268628   3.131   5.612   2.738  2.4296  1.2134 -0.4692
15713TIP3   OH268629   0.454   3.530  16.028 -0.2845 -0.0837 -0.3909
15713TIP3    H168630   0.395   3.512  15.955 -0.8578 -0.3326  0.1139
15713TIP3    H268631   0.411   3.600  16.077 -0.3634 -0.5301  0.1966
15714TIP3   OH268632   2.024   4.748  16.363 -0.4842  0.6589  0.3234
15714TIP3    H168633   1.951   4.688  16.379 -0.7729  0.9398  0.0614
15714TIP3    H268634   2.006   4.787  16.278  0.4490  0.0377 -0.1852
15715TIP3   OH268635   4.507   2.448   2.711  0.3093  0.0307 -0.0654
15715TIP3    H168636   4.535   2.385   2.778 -0.1915  0.7463  0.8231
15715TIP3    H268637   4.413   2.435   2.703  0.2427  0.4973 -0.0559
15716TIP3   OH268638   3.647   3.929  14.446 -0.0871 -0.4124  0.0975
15716TIP3    H168639   3.638   3.970  14.360  1.4900 -1.4349 -0.6043
15716TIP3    H268640   3.658   3.836  14.427 -0.9384 -0.8213  1.4954
15717TIP3   OH268641   2.319   0.123   4.068  0.2283 -0.4685  0.1645
15717TIP3    H168642   2.341   0.144   4.159 -0.2287 -3.6789  1.1175
15717TIP3    H268643   2.223   0.119   4.067  0.1512  0.9544 -0.8609
15718TIP3   OH268644   6.091   1.522   4.170 -0.6061 -0.0323  0.3955
15718TIP3    H168645   6.106   1.456   4.102 -0.4586  0.5536 -0.1475
15718TIP3    H268646   6.058   1.598   4.123  0.4064  0.7136  0.8491
15719TIP3   OH268647   5.922   2.749  11.552  0.1621 -0.2772 -0.3777
15719TIP3    H168648   6.005   2.763  11.506 -1.4462  0.7228 -3.2569
15719TIP3    H268649   5.922   2.813  11.623  1.0424  1.0571 -1.5439
15720TIP3   OH268650   0.129   5.726   2.678  0.0332  0.4960  0.5287
15720TIP3    H168651   0.148   5.633   2.694  2.3009  0.3218 -2.2397
15720TIP3    H268652   0.162   5.771   2.755 -0.5273 -0.9183  1.6403
15721TIP3   OH268653   5.065   2.795  15.053  0.2538  1.1426  0.2050
15721TIP3    H168654   5.136   2.829  14.998 -0.8110  0.5103 -1.6390
15721TIP3    H268655   4.990   2.850  15.033  0.1429  1.7743  2.1099
15722TIP3   OH268656   3.636   3.105  11.376  0.8621 -0.4249 -0.0642
15722TIP3    H168657   3.728   3.078  11.373  1.8528  2.4127  0.7414
15722TIP3    H268658   3.638   3.198  11.352 -1.8200 -0.2824 -0.0639
15723TIP3   OH268659   5.615   5.797  11.206 -0.4371 -0.7027 -0.0129
15723TIP3    H168660   5.585   5.881  11.172  1.2087 -0.0389  0.0730
15723TIP3    H268661   5.664   5.758  11.133  0.3612 -0.7308  0.5187
15724TIP3   OH268662   2.477   2.697  15.238  0.1417  0.0520  0.0263
15724TIP3    H168663   2.537   2.734  15.174  0.5130 -1.0840 -0.3134
15724TIP3    H268664   2.430   2.628  15.190 -0.3694 -0.0749  0.6804
15725TIP3   OH268665   0.632   0.217  11.118  0.1263  0.0915 -0.4353
15725TIP3    H168666   0.541   0.247  11.114  0.3206  1.1223  1.5513
15725TIP3    H268667   0.683   0.298  11.131  1.0990 -0.6571  0.6437
15726TIP3   OH268668   5.327   0.142   1.174  0.4175  0.6747 -0.3840
15726TIP3    H168669   5.281   0.194   1.240 -1.5218 -0.6342 -0.6263
15726TIP3    H268670   5.403   0.107   1.221  0.5108  1.8658  0.4019
15727TIP3   OH268671   0.426   0.312  16.848  1.2461  0.2185 -0.1331
15727TIP3    H168672   0.428   0.322  16.944 -0.9778 -2.1106  0.2648
15727TIP3    H268673   0.494   0.247  16.829  1.8444  0.8503 -0.1882
15728TIP3   OH268674   5.225   4.917   0.882 -0.0935  0.7196 -0.3034
15728TIP3    H168675   5.318   4.914   0.905 -0.9221  1.3411  3.8561
15728TIP3    H268676   5.197   5.006   0.905 -1.6988  0.6778 -1.8474
15729TIP3   OH268677   6.582   0.705  12.087 -0.0495  0.7274 -0.4463
15729TIP3    H168678   6.621   0.706  11.999  0.5729  0.8303 -0.1757
15729TIP3    H268679   6.614   0.623  12.126 -1.6192 -0.1292 -0.8771
15730TIP3   OH268680   4.073   1.013   4.121 -0.1508 -0.6505 -0.3828
15730TIP3    H168681   4.097   0.929   4.080 -1.2420 -0.0838 -2.3003
15730TIP3    H268682   4.012   0.989   4.191  0.1206 -1.5014 -0.4253
15731TIP3   OH268683   5.531   1.098   2.748 -0.1967  0.2996  0.0441
15731TIP3    H168684   5.550   1.010   2.781 -0.6022  0.4875  0.8213
15731TIP3    H268685   5.472   1.084   2.674  1.0847 -0.1561 -0.9207
15732TIP3   OH268686   4.514   2.163   1.555  0.2032 -0.4417 -0.3205
15732TIP3    H168687   4.519   2.099   1.483 -0.8232 -0.9990  0.0931
15732TIP3    H268688   4.481   2.113   1.629  0.9704  0.2055  0.4771
15733TIP3   OH268689   2.925   2.621   3.074  0.1196 -0.5286  0.0178
15733TIP3    H168690   2.863   2.584   3.011 -0.1629 -0.7172  0.3996
15733TIP3    H268691   2.878   2.695   3.114  1.8308  2.5824 -3.1650
15734TIP3   OH268692   4.641   5.490  16.515  0.3674  0.0772  0.2432
15734TIP3    H168693   4.644   5.397  16.537  1.1085  0.0535  0.0713
15734TIP3    H268694   4.565   5.499  16.459  0.7266 -0.5682 -0.3590
15735TIP3   OH268695   4.071   0.343   2.446 -0.1385  0.6202  0.5997
15735TIP3    H168696   4.057   0.345   2.352  0.2148  0.8156  0.5497
15735TIP3    H268697   3.983   0.345   2.484 -0.3837 -1.7066  0.2496
15736TIP3   OH268698   4.695   0.295   5.941  0.3633 -0.2959 -0.4489
15736TIP3    H168699   4.608   0.330   5.920 -0.2535 -0.6841  1.3578
15736TIP3    H268700   4.706   0.220   5.882 -0.9131 -0.7915 -0.0766
15737TIP3   OH268701   2.793   0.350   4.585 -0.0721 -0.2155 -0.0072
15737TIP3    H168702   2.762   0.414   4.649  0.4197  1.1234 -1.0555
15737TIP3    H268703   2.881   0.379   4.563  0.5465 -1.8555  0.2147
15738TIP3   OH268704   4.764   2.192  12.511 -0.2877  0.5111  0.2357
15738TIP3    H168705   4.700   2.132  12.550 -0.1550 -0.3735 -0.8457
15738TIP3    H268706   4.846   2.170  12.554 -0.1618 -0.3922 -0.4309
15739TIP3   OH268707   3.872   4.478  14.096 -0.0683  0.0275 -0.1274
15739TIP3    H168708   3.931   4.553  14.093  1.4079 -1.1251 -1.7334
15739TIP3    H268709   3.788   4.512  14.066  0.4040  1.1671 -0.2038
15740TIP3   OH268710   6.112   0.471   1.896  0.4369 -0.2522 -0.4336
15740TIP3    H168711   6.185   0.419   1.930 -0.5497 -1.6591 -0.3696
15740TIP3    H268712   6.087   0.427   1.815  0.3160  0.8374 -1.0055
15741TIP3   OH268713   2.500   1.306   5.870 -0.2949 -0.0124  0.0469
15741TIP3    H168714   2.457   1.311   5.785 -0.6109 -2.3477 -0.0092
15741TIP3    H268715   2.586   1.347   5.856 -1.6957  3.0489 -0.3204
15742TIP3   OH268716   5.075   6.039  14.087  0.0186  0.0222  0.1789
15742TIP3    H168717   5.017   5.984  14.034  0.1489 -0.7361  0.8061
15742TIP3    H268718   5.093   5.986  14.165 -1.4936  1.7341  1.7901
15743TIP3   OH268719   4.986   3.101  11.495  0.4218  0.3762 -0.3320
15743TIP3    H168720   5.060   3.140  11.542  1.9742 -1.4165 -1.1517
15743TIP3    H268721   5.014   3.011  11.476 -2.7578 -1.1070  1.0923
15744TIP3   OH268722   5.395   0.386  12.817  0.7387  0.1445  0.1973
15744TIP3    H168723   5.446   0.313  12.783 -0.3549  0.4588 -2.3642
15744TIP3    H268724   5.326   0.344  12.868 -1.0873 -0.9347 -2.8578
15745TIP3   OH268725   6.129   5.798   0.485 -0.1842  0.1600  0.1564
15745TIP3    H168726   6.199   5.798   0.420 -0.3865 -0.0565 -0.0602
15745TIP3    H268727   6.169   5.758   0.563  0.6128  2.0402  0.7733
15746TIP3   OH268728   5.769   4.016   4.201  0.6732 -1.0120  0.3401
15746TIP3    H168729   5.709   4.069   4.253 -0.5812 -1.5830 -0.4905
15746TIP3    H268730   5.839   3.993   4.262 -0.1841 -0.7147  1.4688
15747TIP3   OH268731   4.663   6.538   5.828 -0.1217  0.2526 -0.1072
15747TIP3    H168732   4.688   6.446   5.831 -1.4508 -0.1092  1.7951
15747TIP3    H268733   4.611   6.545   5.748  2.6431  0.1842 -2.0520
15748TIP3   OH268734   6.771   0.750  12.844  0.0838  0.2562  0.0229
15748TIP3    H168735   6.768   0.679  12.909 -0.0322 -0.4698 -0.7593
15748TIP3    H268736   6.685   0.747  12.803  0.1122  0.7997 -0.0754
15749TIP3   OH268737   0.070   2.213  13.187  0.5020  0.4589 -0.6638
15749TIP3    H168738  -0.018   2.198  13.152  0.8196 -0.3041 -1.1613
15749TIP3    H268739   0.107   2.125  13.197  2.1567  0.8364 -2.9217
15750TIP3   OH268740   1.752   1.808  15.546  0.1474 -0.0984 -0.3545
15750TIP3    H168741   1.762   1.742  15.478  0.4912  0.1708 -0.5699
15750TIP3    H268742   1.657   1.817  15.558  0.1057 -0.9148 -0.0364
15751TIP3   OH268743   6.707   0.566   3.093 -0.2687 -0.3335 -0.6840
15751TIP3    H168744   6.753   0.607   3.019  0.3599  0.9380  0.3751
15751TIP3    H268745   6.616   0.557   3.062  0.1803 -0.7383 -1.9511
15752TIP3   OH268746   5.262   1.857   5.442 -0.6371  0.1434 -0.0214
15752TIP3    H168747   5.326   1.856   5.513 -2.6120 -0.4947  1.8661
15752TIP3    H268748   5.233   1.948   5.437 -0.8287  0.1012  0.3121
15753TIP3   OH268749   2.103   0.627  13.027 -0.0815 -0.4776 -0.2269
15753TIP3    H168750   2.187   0.661  13.059 -1.4307  2.3404  0.5359
15753TIP3    H268751   2.037   0.687  13.061 -2.7257 -3.7036  0.9470
15754TIP3   OH268752   4.197   6.787  12.279  0.2035  0.3428  0.0772
15754TIP3    H168753   4.183   6.877  12.250 -1.6387  0.0538 -0.0132
15754TIP3    H268754   4.177   6.734  12.202  0.3732 -0.1918  0.3963
15755TIP3   OH268755   6.367   4.027   6.099 -0.0703 -0.0364  0.2365
15755TIP3    H168756   6.401   4.113   6.124  2.0563 -0.6388 -0.3090
15755TIP3    H268757   6.273   4.032   6.114  0.0770  2.2010  0.7128
15756TIP3   OH268758   6.006   5.026   5.947 -0.0531  0.3287 -0.1345
15756TIP3    H168759   6.037   5.073   6.025  1.6947 -0.7635 -0.1162
15756TIP3    H268760   5.914   5.052   5.939  0.1466  1.7023  1.3616
15757TIP3   OH268761   4.411   3.221   2.037  0.0358 -0.4474  0.3131
15757TIP3    H168762   4.442   3.274   1.964  0.1865 -1.4153 -0.3492
15757TIP3    H268763   4.345   3.164   1.998  1.7788 -2.6391  0.3751
15758TIP3   OH268764   1.062   3.012  15.305 -0.2183 -0.5219 -0.3396
15758TIP3    H168765   1.122   2.958  15.356  1.7889 -0.1803 -2.1906
15758TIP3    H268766   1.001   2.949  15.266 -0.6514 -0.9572  0.9924
15759TIP3   OH268767   5.952   1.851  12.766  0.1043  0.3470 -0.3799
15759TIP3    H168768   5.999   1.891  12.839 -0.2389 -0.4547  0.2893
15759TIP3    H268769   6.017   1.848  12.695  0.3239  1.4897 -0.2541
15760TIP3   OH268770   4.573   6.001  12.619 -0.1837  0.1580  0.0020
15760TIP3    H168771   4.588   6.068  12.686 -1.6164  0.7412 -0.2293
15760TIP3    H268772   4.478   5.991  12.615 -0.0123 -2.1437  0.2512
15761TIP3   OH268773   5.520   4.824  13.159 -0.3299  0.4335  0.1169
15761TIP3    H168774   5.547   4.913  13.182  0.3661 -0.2138  1.9807
15761TIP3    H268775   5.565   4.806  13.076 -0.4016  1.7595 -0.2329
15762TIP3   OH268776   6.714   0.895  16.273 -0.1151 -0.1175 -0.0180
15762TIP3    H168777   6.636   0.948  16.285 -0.1123 -0.6078  3.0529
15762TIP3    H268778   6.699   0.818  16.328  2.6041 -0.0873  0.9347
15763TIP3   OH268779   1.258   4.033   3.627 -0.1167 -0.4299  0.1178
15763TIP3    H168780   1.288   4.022   3.717 -0.4816  0.9547  0.4313
15763TIP3    H268781   1.167   4.004   3.628 -0.1616 -0.2850  0.2295
15764TIP3   OH268782   3.586   5.297  12.829 -0.5553 -0.6502  0.2386
15764TIP3    H168783   3.564   5.270  12.918 -0.9684  1.5434  0.8693
15764TIP3    H268784   3.671   5.339  12.836 -0.7661 -0.0989 -0.3066
15765TIP3   OH268785   1.640   1.292  14.612  0.2067  0.6421 -0.3153
15765TIP3    H168786   1.717   1.263  14.660 -2.4264 -1.6726  2.9532
15765TIP3    H268787   1.625   1.223  14.547 -0.1761  0.0963  0.3496
15766TIP3   OH268788   6.509   3.666  15.646  0.7574 -0.4165 -0.6199
15766TIP3    H168789   6.493   3.623  15.561  0.9406  1.1800 -1.5012
15766TIP3    H268790   6.551   3.748  15.623 -0.7268  0.8325  0.9026
15767TIP3   OH268791   6.712   1.650  17.085  0.3142  0.0609  0.6161
15767TIP3    H168792   6.700   1.694  17.001 -0.6378  0.2053  0.8159
15767TIP3    H268793   6.624   1.622  17.110  0.9039 -2.1289  0.4234
15768TIP3   OH268794   0.227   2.749  15.894 -0.2118 -0.0652 -0.1537
15768TIP3    H168795   0.317   2.718  15.891 -0.5074 -0.8912 -0.7550
15768TIP3    H268796   0.217   2.783  15.983  0.7245  0.1591 -0.1216
15769TIP3   OH268797   4.244   3.428   5.991 -0.2725 -0.0107 -0.1388
15769TIP3    H168798   4.264   3.388   5.907 -0.2226 -0.9222  0.2967
15769TIP3    H268799   4.290   3.374   6.055  0.1731  1.0142  0.4293
15770TIP3   OH268800   1.951   4.543   6.061  0.3615  0.1331 -0.1235
15770TIP3    H168801   1.871   4.492   6.048  0.4940 -0.0381 -0.2571
15770TIP3    H268802   1.927   4.608   6.127  0.2496 -0.2339  0.2052
15771TIP3   OH268803   0.305   5.741   4.542  0.3983  0.1149 -0.3370
15771TIP3    H168804   0.275   5.819   4.588  2.5282  1.4732 -1.0989
15771TIP3    H268805   0.398   5.733   4.566  0.3770 -1.8543 -0.7453
15772TIP3   OH268806   0.521   4.844  16.750 -0.0149  0.4268 -0.2732
15772TIP3    H168807   0.472   4.925  16.736  0.6090  0.7531 -0.6258
15772TIP3    H268808   0.613   4.869  16.739  0.1198 -0.6045 -1.7518
15773TIP3   OH268809   2.805   5.865   5.237 -0.0810 -0.8426 -0.6552
15773TIP3    H168810   2.897   5.885   5.221 -0.1158  0.9789  1.0367
15773TIP3    H268811   2.799   5.859   5.333 -1.7005 -1.0821 -0.7547
15774TIP3   OH268812   0.653   3.055   1.808 -0.6625 -0.2914 -0.2675
15774TIP3    H168813   0.686   3.062   1.719 -1.2191 -0.8800 -0.5277
15774TIP3    H268814   0.562   3.028   1.798 -0.2388 -2.1272  0.5158
15775TIP3   OH268815   1.744   4.286  16.417  0.0458  0.2364  0.1364
15775TIP3    H168816   1.666   4.264  16.468  0.2120  0.7089  0.6033
15775TIP3    H268817   1.806   4.216  16.436 -0.1558  0.0132 -0.0122
15776TIP3   OH268818   6.368   4.698   3.578  0.1958 -0.0026  0.5377
15776TIP3    H168819   6.452   4.695   3.531 -0.2551 -0.2702 -0.2843
15776TIP3    H268820   6.391   4.685   3.670  0.8908 -2.3179  0.1146
15777TIP3   OH268821   5.113   1.588  10.586  0.2791  0.2405 -0.0714
15777TIP3    H168822   5.111   1.673  10.630  2.0541 -0.4115  1.3893
15777TIP3    H268823   5.027   1.582  10.544 -0.9150  1.6446  1.9279
15778TIP3   OH268824   5.731   1.537   2.827  0.1269  0.1235 -0.6913
15778TIP3    H168825   5.792   1.511   2.896  2.2026 -0.9615 -2.7628
15778TIP3    H268826   5.656   1.478   2.837  1.1625 -1.1948 -0.3695
15779TIP3   OH268827   0.616   2.523   2.920  0.4255 -0.2663 -0.0471
15779TIP3    H168828   0.532   2.557   2.890  0.4836  0.1068  0.2165
15779TIP3    H268829   0.679   2.591   2.895  0.5885 -0.3440  0.1534
15780TIP3   OH268830   0.940   3.796  15.376  0.3084 -0.0477 -0.5592
15780TIP3    H168831   1.002   3.738  15.332  1.3687  0.6958 -0.0849
15780TIP3    H268832   0.982   3.816  15.460 -0.5054  0.6005 -0.2948
15781TIP3   OH268833   1.149   6.699   3.957  0.0148  0.5617  0.3318
15781TIP3    H168834   1.073   6.717   3.902  0.1748 -1.0218 -0.4852
15781TIP3    H268835   1.164   6.780   4.006 -2.3796  0.8010  0.7690
15782TIP3   OH268836   1.359   3.694   0.621 -0.0879  0.0029  0.5309
15782TIP3    H168837   1.363   3.748   0.700  1.8254 -0.4136  0.7829
15782TIP3    H268838   1.375   3.605   0.653  3.0120  0.0899 -0.4987
15783TIP3   OH268839   2.549   5.896  12.706  0.3265 -0.0604 -0.3025
15783TIP3    H168840   2.598   5.888  12.788 -0.4085 -2.3839 -0.0047
15783TIP3    H268841   2.549   5.807  12.669 -2.2318  0.1879 -1.1024
15784TIP3   OH268842   4.883   1.247  12.340  0.1171 -0.2717  0.3476
15784TIP3    H168843   4.880   1.332  12.295  0.2392  1.0687  2.7353
15784TIP3    H268844   4.959   1.253  12.397 -0.7480 -1.4063  1.6664
15785TIP3   OH268845   3.081   1.498  17.108  0.5679  0.1425 -0.4285
15785TIP3    H168846   3.070   1.583  17.153 -0.5236  0.0766 -0.5505
15785TIP3    H268847   2.999   1.485  17.062  0.7426 -0.9823 -0.4347
15786TIP3   OH268848   6.228   0.780   2.553  0.4647 -0.0095 -0.4561
15786TIP3    H168849   6.275   0.803   2.633 -0.0050 -1.0442  0.1332
15786TIP3    H268850   6.157   0.844   2.548 -1.7728 -2.0863  2.0051
15787TIP3   OH268851   4.487   5.706  13.232 -0.2455  0.1390  0.4401
15787TIP3    H168852   4.434   5.774  13.274 -0.3745  0.6701 -0.5317
15787TIP3    H268853   4.502   5.641  13.300 -0.8497  0.7304  1.1578
15788TIP3   OH268854   1.579   5.661  15.776 -0.2762  0.1719  0.3523
15788TIP3    H168855   1.621   5.643  15.861 -0.9023  0.5517  0.7544
15788TIP3    H268856   1.532   5.581  15.755 -1.5082  0.6435  1.2078
15789TIP3   OH268857   4.213   3.276   0.457 -0.3530  0.2306 -0.1817
15789TIP3    H168858   4.274   3.222   0.408  0.1923  0.7365 -0.0741
15789TIP3    H268859   4.167   3.214   0.514 -0.4601 -0.2510 -0.7828
15790TIP3   OH268860   3.736   0.084  12.337 -0.3166 -1.1207  0.4142
15790TIP3    H168861   3.798   0.111  12.269 -0.8269 -0.3054  0.2628
15790TIP3    H268862   3.659   0.055  12.289 -0.2958 -1.5397  0.6250
15791TIP3   OH268863   4.350   2.754  13.577 -0.1290 -0.2558 -0.0981
15791TIP3    H168864   4.369   2.743  13.483 -0.1059  1.5777 -0.3317
15791TIP3    H268865   4.277   2.815  13.579 -1.0968 -1.4097  1.0602
15792TIP3   OH268866   6.108   4.799   1.708  0.0028 -0.3703 -0.0127
15792TIP3    H168867   6.033   4.822   1.653  0.6194  0.4338 -0.5557
15792TIP3    H268868   6.113   4.869   1.772  0.0599 -0.6267  0.2630
15793TIP3   OH268869   5.742   6.807  14.044 -0.1226  0.0390  0.1518
15793TIP3    H168870   5.715   6.894  14.013 -0.8741 -0.3985 -0.4517
15793TIP3    H268871   5.694   6.746  13.989 -0.2013 -0.7634  1.0892
15794TIP3   OH268872   3.367   0.910  11.957  0.0921 -0.2448  0.0723
15794TIP3    H168873   3.410   0.847  11.898 -2.7598 -1.3553 -0.9747
15794TIP3    H268874   3.323   0.972  11.899 -1.4779 -0.4331  1.0055
15795TIP3   OH268875   1.154   2.733  16.235  0.0867  0.6443 -0.5278
15795TIP3    H168876   1.094   2.796  16.194  0.5910  2.2302  1.0424
15795TIP3    H268877   1.139   2.745  16.329  0.3651 -1.4697 -0.1805
15796TIP3   OH268878   5.135   0.294   5.271 -0.1281  0.0443  0.1545
15796TIP3    H168879   5.123   0.324   5.181  0.3878 -1.1161 -0.3256
15796TIP3    H268880   5.121   0.200   5.267 -0.4502  0.0261  1.3678
15797TIP3   OH268881   5.147   2.652   1.603 -0.0183 -0.3462 -0.3596
15797TIP3    H168882   5.216   2.598   1.565  2.3994  3.7656 -2.5360
15797TIP3    H268883   5.186   2.688   1.683 -0.2655  0.6257 -0.6615
15798TIP3   OH268884   6.012   5.727   2.503  0.6835  0.3677  0.7512
15798TIP3    H168885   6.040   5.792   2.568 -1.9994 -0.4197  2.8580
15798TIP3    H268886   5.949   5.774   2.448 -2.3542 -0.5687  3.1460
15799TIP3   OH268887   5.339   0.539   5.977 -0.0849  0.0113  0.1266
15799TIP3    H168888   5.369   0.492   6.054 -1.3213 -1.3577 -0.1774
15799TIP3    H268889   5.371   0.488   5.903 -1.3014 -0.2975 -0.2147
15800TIP3   OH268890   0.919   6.092  14.644  0.3154  0.4663  0.0723
15800TIP3    H168891   0.892   6.177  14.679 -1.7007  0.1790 -0.6589
15800TIP3    H268892   1.009   6.080  14.675 -0.2349  1.7124  2.2873
15801TIP3   OH268893   0.963   2.497  12.602  0.3954  0.7431  0.0971
15801TIP3    H168894   0.905   2.476  12.675 -0.4977 -0.5417 -0.9308
15801TIP3    H268895   1.023   2.564  12.636  0.2224 -0.0703  2.0909
15802TIP3   OH268896   4.330   3.508   2.098  0.1430 -0.3130 -0.0292
15802TIP3    H168897   4.249   3.496   2.148  0.4811  0.6193  0.7763
15802TIP3    H268898   4.312   3.583   2.041 -0.1813 -1.2678 -1.2191
15803TIP3   OH268899   5.646   1.517  13.342  0.2573  0.4538 -0.1290
15803TIP3    H168900   5.641   1.429  13.304 -1.9146  1.0697 -1.4366
15803TIP3    H268901   5.644   1.502  13.437  3.8214 -1.0157 -0.1024
15804TIP3   OH268902   1.791   3.023   4.690 -0.0701 -0.1135  0.0431
15804TIP3    H168903   1.758   3.026   4.779  0.8344 -1.5922  0.4672
15804TIP3    H268904   1.713   3.012   4.635 -0.7800  2.2975  0.4703
15805TIP3   OH268905   1.864   2.551   3.786  0.2901 -0.5386  0.0013
15805TIP3    H168906   1.878   2.578   3.696  1.5008  1.7448  0.8105
15805TIP3    H268907   1.949   2.563   3.829 -0.4351 -0.8795  1.6305
15806TIP3   OH268908   1.298   5.458  15.233 -0.1663 -0.0237  0.3551
15806TIP3    H168909   1.284   5.411  15.315 -0.1581 -1.3010 -0.3510
15806TIP3    H268910   1.347   5.536  15.258 -0.4213 -0.2406  1.5998
15807TIP3   OH268911   1.260   5.563   0.223 -0.0130 -0.0090 -0.3579
15807TIP3    H168912   1.174   5.587   0.258  0.6372  0.5695  0.9024
15807TIP3    H268913   1.262   5.468   0.228 -1.6431 -0.2800 -3.0459
15808TIP3   OH268914   0.564   0.452   0.765  0.4409 -0.5178 -0.0023
15808TIP3    H168915   0.565   0.543   0.795  0.8985 -0.7869  0.8269
15808TIP3    H268916   0.601   0.402   0.838  0.3467 -1.3525 -0.5117
15809TIP3   OH268917   4.080   0.168   3.419  0.4592  1.0942  0.4699
15809TIP3    H168918   4.175   0.175   3.429  0.7278 -0.4258 -0.6824
15809TIP3    H268919   4.063   0.193   3.328  0.1471 -1.4295 -0.2327
15810TIP3   OH268920   6.480   3.222  13.454 -0.3599 -0.1510 -0.3204
15810TIP3    H168921   6.563   3.262  13.428 -1.3153  1.3152 -1.2558
15810TIP3    H268922   6.415   3.265  13.399 -2.0279  0.3224  1.9222
15811TIP3   OH268923   6.231   4.162  13.847 -0.1423 -0.0126 -0.0407
15811TIP3    H168924   6.171   4.134  13.916  0.9998  1.9971  1.8517
15811TIP3    H268925   6.182   4.228  13.798 -0.0905  0.3814  0.4312
15812TIP3   OH268926   6.159   0.727  13.951  0.0207  0.6920 -0.1434
15812TIP3    H168927   6.162   0.675  13.871 -0.8833  0.4157 -0.0075
15812TIP3    H268928   6.238   0.782  13.947  2.1486 -2.0399  0.6432
15813TIP3   OH268929   3.009   0.169   2.788 -0.1363 -0.6530 -0.3580
15813TIP3    H168930   2.994   0.263   2.783  0.1890 -0.5015  1.0742
15813TIP3    H268931   3.042   0.145   2.701  2.2664  1.0395  0.0037
15814TIP3   OH268932   0.527   5.121  11.037 -0.1149 -0.1126  0.2471
15814TIP3    H168933   0.517   5.161  10.951  2.0875  0.4751  0.2080
15814TIP3    H268934   0.563   5.034  11.019  2.2279  0.7293  0.5890
15815TIP3   OH268935   4.211   2.580  12.429 -0.2534 -0.0927  0.1158
15815TIP3    H168936   4.219   2.563  12.335  1.2447 -1.0391  0.3835
15815TIP3    H268937   4.227   2.674  12.438  0.0587 -0.0811 -0.5294
15816TIP3   OH268938   5.433   0.796  16.899 -0.2850 -0.1032 -0.2800
15816TIP3    H168939   5.414   0.706  16.875  0.2876 -0.5207  0.7994
15816TIP3    H268940   5.443   0.795  16.994  0.6107  0.9182 -0.3368
15817TIP3   OH268941   3.806   4.988   0.792 -0.7081  0.1681 -0.2243
15817TIP3    H168942   3.880   5.011   0.735 -0.2309 -0.2372  0.2119
15817TIP3    H268943   3.810   5.050   0.864 -0.1207 -0.5159  0.3568
15818TIP3   OH268944   0.579   6.602  11.689  0.4373 -0.2943 -0.0472
15818TIP3    H168945   0.648   6.668  11.690 -0.3945  0.9002 -3.9618
15818TIP3    H268946   0.521   6.628  11.761  0.8638  2.5240 -0.5802
15819TIP3   OH268947   2.959   1.972  16.782 -0.2326  0.3450 -0.2263
15819TIP3    H168948   2.938   1.879  16.770 -0.4816  0.1199  1.5875
15819TIP3    H268949   2.884   2.018  16.745 -0.1199 -0.1783 -1.1157
15820TIP3   OH268950   4.977   1.082   3.032  0.5700 -0.1688  0.0345
15820TIP3    H168951   4.943   1.110   3.118 -1.6826 -1.2645 -0.4259
15820TIP3    H268952   5.053   1.027   3.053  1.6797  1.6943  1.1609
15821TIP3   OH268953   3.003   1.101   0.849  0.4913 -0.1165 -0.0544
15821TIP3    H168954   3.091   1.077   0.817 -0.5259 -1.6921 -1.8850
15821TIP3    H268955   2.988   1.188   0.813  0.9395 -0.2502 -0.5893
15822TIP3   OH268956   1.025   4.402   4.682 -0.0149 -0.1356 -0.4519
15822TIP3    H168957   0.967   4.408   4.758 -2.6743  0.5524 -2.3833
15822TIP3    H268958   1.061   4.490   4.672  0.0257 -0.1289 -0.2459
15823TIP3   OH268959   4.708   0.075   2.951 -0.0757 -0.2144  0.6504
15823TIP3    H168960   4.726   0.109   2.864 -0.4556  0.4009  0.8048
15823TIP3    H268961   4.619   0.039   2.945  0.6673 -2.0813  0.2303
15824TIP3   OH268962   5.049   1.783   2.879 -0.1886 -0.0654 -0.5175
15824TIP3    H168963   4.961   1.787   2.917 -0.5062  1.2984 -1.3095
15824TIP3    H268964   5.080   1.874   2.882  0.5008 -0.2371 -1.8168
15825TIP3   OH268965   2.927   0.109   4.477  0.0422 -0.4569  0.0562
15825TIP3    H168966   2.856   0.150   4.526  1.3428 -0.0723  1.7008
15825TIP3    H268967   2.917   0.143   4.388 -0.0100  2.0884  0.9543
15826TIP3   OH268968   5.081   1.772   1.363  0.3717 -0.0925  0.4607
15826TIP3    H168969   5.126   1.761   1.279 -0.1467 -1.2777  0.3174
15826TIP3    H268970   4.988   1.777   1.340  0.3051  0.9129  0.8726
15827TIP3   OH268971   0.586   0.763   0.463 -0.4398  0.0137 -0.8516
15827TIP3    H168972   0.537   0.840   0.489  1.1690  0.5563  0.8421
15827TIP3    H268973   0.666   0.797   0.423  0.4521 -0.6971  0.2243
15828TIP3   OH268974   1.158   5.456   3.583  0.1578  0.2518 -0.2630
15828TIP3    H168975   1.189   5.367   3.598 -1.0210 -0.5079 -2.0076
15828TIP3    H268976   1.215   5.491   3.515  1.1035  1.1604  0.9395
15829TIP3   OH268977   4.614   5.345   1.992 -0.0634 -0.6509 -0.1684
15829TIP3    H168978   4.603   5.276   2.057  1.5268 -2.0112 -1.2443
15829TIP3    H268979   4.654   5.301   1.917 -0.9374  1.0504 -1.7170
15830TIP3   OH268980   4.204   3.257   2.302 -0.4142 -0.1353  0.3263
15830TIP3    H168981   4.109   3.248   2.288 -0.3624  0.6799 -0.6549
15830TIP3    H268982   4.212   3.290   2.392 -1.0891  0.3218  0.2234
15831TIP3   OH268983   3.888   2.171   2.043 -0.2635 -0.0128  0.2767
15831TIP3    H168984   3.833   2.125   1.980 -1.9463 -0.2136  1.7939
15831TIP3    H268985   3.886   2.263   2.014 -1.5009 -0.0025  0.3489
15832TIP3   OH268986   4.219   2.336   2.871  0.0404 -0.1193  0.4024
15832TIP3    H168987   4.161   2.324   2.946 -1.9450  2.8806 -0.4655
15832TIP3    H268988   4.286   2.396   2.902  0.7751 -0.9456  0.4570
15833TIP3   OH268989   5.367   2.349  10.965 -0.4995 -0.2042  0.3286
15833TIP3    H168990   5.430   2.344  10.893 -0.8388 -0.9599  0.0796
15833TIP3    H268991   5.401   2.419  11.021 -0.0773  0.2014 -0.4106
15834TIP3   OH268992   3.199   2.758  14.392  0.5426  0.0277 -0.5228
15834TIP3    H168993   3.255   2.812  14.336  1.7153 -1.3754 -0.7946
15834TIP3    H268994   3.247   2.751  14.475 -0.6287  1.1373  0.2807
15835TIP3   OH268995   5.706   0.786  10.488 -0.2350 -0.2164  0.2827
15835TIP3    H168996   5.772   0.805  10.421  1.4224  0.3527  2.0087
15835TIP3    H268997   5.754   0.740  10.557 -1.2422  1.5762  2.3103
15836TIP3   OH268998   5.599   2.341   2.550  0.2755  0.3398  0.0721
15836TIP3    H168999   5.571   2.404   2.616  0.5075  1.6185 -0.9995
15836TIP3    H269000   5.694   2.334   2.563  0.1421 -0.4172  0.7009
15837TIP3   OH269001   4.671   1.748  14.440  0.0712  0.0280  0.4427
15837TIP3    H169002   4.699   1.838  14.424  0.0991  0.0519  0.6266
15837TIP3    H269003   4.723   1.720  14.515 -0.3910  0.0641  0.7772
15838TIP3   OH269004   5.767   0.534  13.195  0.3943  0.2664  0.0260
15838TIP3    H169005   5.827   0.485  13.138 -0.7197  2.1982 -3.0178
15838TIP3    H269006   5.682   0.492  13.181  0.0770  0.8596  0.1833
15839TIP3   OH269007   0.170   6.732  12.144 -0.4221 -0.4175 -0.1221
15839TIP3    H169008   0.174   6.824  12.120  2.9967 -0.6154 -0.8028
15839TIP3    H269009   0.159   6.732  12.239  0.8100  0.7489  0.0450
15840TIP3   OH269010   6.327   3.588  13.561 -0.1390 -0.4375  0.5620
15840TIP3    H169011   6.332   3.514  13.501  0.0856  0.4429 -0.5501
15840TIP3    H269012   6.273   3.556  13.634 -2.1879 -0.9490 -1.0547
15841TIP3   OH269013   1.277   1.496  12.406  0.2461  0.4768 -0.4432
15841TIP3    H169014   1.224   1.527  12.332 -1.0908 -0.5399  0.0560
15841TIP3    H269015   1.236   1.414  12.432  1.3281  0.2998  0.7781
15842TIP3   OH269016   2.849   6.706   4.830  0.1352 -0.4509 -0.0457
15842TIP3    H169017   2.822   6.655   4.754 -0.0119  0.3605 -0.5504
15842TIP3    H269018   2.941   6.681   4.844  1.0224  1.3134 -2.1379
15843TIP3   OH269019   5.995   2.912  15.630 -0.4501  0.4104 -0.2006
15843TIP3    H169020   5.903   2.929  15.611 -0.1136  1.2138 -1.2013
15843TIP3    H269021   6.005   2.818  15.618 -1.2347  0.2394  0.3799
15844TIP3   OH269022   5.292   1.826   1.518 -0.4412 -1.0682 -0.0273
15844TIP3    H169023   5.212   1.799   1.473 -0.3208 -0.4421 -0.6344
15844TIP3    H269024   5.278   1.802   1.610 -1.7912  0.0378  0.0782
15845TIP3   OH269025   4.918   0.992  12.446  0.6929 -0.4430  0.3144
15845TIP3    H169026   4.910   1.076  12.401  3.8854  0.0297  0.3793
15845TIP3    H269027   4.940   0.930  12.377  2.5155 -0.3217  0.7204
15846TIP3   OH269028   0.966   5.825   2.836 -0.2396  0.3627  0.3062
15846TIP3    H169029   1.028   5.752   2.835 -1.9965 -1.2221 -0.8501
15846TIP3    H269030   1.020   5.903   2.844  1.7959 -0.9954  0.5220
15847TIP3   OH269031   3.192   0.049  15.303  0.5978 -0.2793  0.0523
15847TIP3    H169032   3.232   0.121  15.352 -1.2293  0.8069  0.0162
15847TIP3    H269033   3.140   0.002  15.368  0.6068 -0.6975 -0.2385
15848TIP3   OH269034   4.732   4.084   6.691 -0.1351 -0.0893 -0.0842
15848TIP3    H169035   4.775   4.024   6.751 -0.8526 -0.3938  0.1330
15848TIP3    H269036   4.803   4.119   6.637  0.4225 -0.3295  0.4851
15849TIP3   OH269037   0.990   2.380  16.557 -0.1958  0.1466 -0.0834
15849TIP3    H169038   1.030   2.461  16.589  0.6198 -0.7424  1.2528
15849TIP3    H269039   1.062   2.316  16.556 -0.9408 -0.7162 -0.5294
15850TIP3   OH269040   2.319   2.268  12.779 -0.2753 -0.0726 -0.5014
15850TIP3    H169041   2.311   2.176  12.752 -2.3269 -1.1633  3.1428
15850TIP3    H269042   2.302   2.318  12.699 -0.7023 -2.8577 -2.2904
15851TIP3   OH269043   4.075   6.653   4.450  0.0642  0.0211 -0.2211
15851TIP3    H169044   4.089   6.734   4.500  0.2859 -0.4946  0.5696
15851TIP3    H269045   3.987   6.625   4.473  0.1622 -0.2101 -0.1195
15852TIP3   OH269046   2.943   2.736  14.571  0.0917 -0.4369  0.4450
15852TIP3    H169047   3.026   2.782  14.581 -0.4193  0.6078  0.0783
15852TIP3    H269048   2.928   2.734  14.476  0.0509 -1.2822  0.4601
15853TIP3   OH269049   4.332   2.417  10.089 -0.6963 -0.6856  0.2210
15853TIP3    H169050   4.309   2.502  10.127 -0.3772 -0.5392  0.0881
15853TIP3    H269051   4.299   2.353  10.152  1.3857 -0.4280  1.6501
15854TIP3   OH269052   1.235   1.991  16.524 -0.9495 -0.7145 -0.0504
15854TIP3    H169053   1.250   1.926  16.456  0.7469 -0.1361 -0.2765
15854TIP3    H269054   1.222   2.073  16.477  0.6444 -0.2351  0.3110
15855TIP3   OH269055   4.415   4.625   1.609 -0.0746 -0.3778  0.5870
15855TIP3    H169056   4.493   4.575   1.634  0.0476 -1.0936 -1.1047
15855TIP3    H269057   4.419   4.630   1.513 -1.0432  1.3497  0.5983
15856TIP3   OH269058   4.569   6.546  14.577  0.1005 -0.7790 -0.6559
15856TIP3    H169059   4.538   6.484  14.510 -1.4110  1.1167 -1.8158
15856TIP3    H269060   4.628   6.605  14.529 -0.0442 -0.1291 -0.0536
15857TIP3   OH269061   4.758   0.104   3.717 -0.0837  0.2227 -0.7059
15857TIP3    H169062   4.742   0.051   3.795 -0.7285  1.9624  0.4196
15857TIP3    H269063   4.844   0.143   3.731 -0.7060  1.5043 -0.2137
15858TIP3   OH269064   4.574   5.871  17.220 -0.7807  0.8514 -0.2178
15858TIP3    H169065   4.503   5.922  17.182 -0.2800 -0.5001 -3.3156
15858TIP3    H269066   4.546   5.780  17.209  1.0107  0.3236 -0.7304
15859TIP3   OH269067   1.345   4.994  16.936  0.1147  0.5069 -0.1505
15859TIP3    H169068   1.343   5.046  16.856  1.5814  0.3692 -0.2973
15859TIP3    H269069   1.374   5.055  17.004  2.6404 -0.2491 -0.4752
15860TIP3   OH269070   6.513   0.353   0.262  0.3491  0.1302 -0.2619
15860TIP3    H169071   6.515   0.259   0.282  0.6235  0.3144  0.6675
15860TIP3    H269072   6.477   0.393   0.341  0.6623  0.8483 -0.4734
15861TIP3   OH269073   2.470   5.774   5.453 -0.1646 -0.3361 -0.0153
15861TIP3    H169074   2.483   5.788   5.359 -2.8353 -1.4391 -0.6271
15861TIP3    H269075   2.506   5.687   5.471 -2.7680 -1.6752 -0.8525
15862TIP3   OH269076   5.661   2.384   1.094 -0.1805  0.0043 -0.0789
15862TIP3    H169077   5.715   2.363   1.171  0.8759  0.7870 -0.5848
15862TIP3    H269078   5.597   2.447   1.127 -0.4913 -0.5497  0.4103
15863TIP3   OH269079   5.409   4.222  13.850 -0.1064 -0.1214 -0.3887
15863TIP3    H169080   5.418   4.288  13.919 -1.1802 -0.1309 -0.2120
15863TIP3    H269081   5.314   4.213  13.838 -0.0059 -1.8997 -0.1592
15864TIP3   OH269082   2.008   5.249  16.368  0.2972 -0.1119 -0.1747
15864TIP3    H169083   1.949   5.287  16.433  1.1620  1.2243 -0.1120
15864TIP3    H269084   1.955   5.242  16.289 -0.3585 -0.3732  0.2798
15865TIP3   OH269085   3.417   6.038  17.219  0.0014 -0.4252 -0.6706
15865TIP3    H169086   3.447   6.129  17.209 -2.3929  0.3776 -1.2203
15865TIP3    H269087   3.413   6.004  17.130 -2.8356  0.2993 -0.9074
15866TIP3   OH269088   2.302   3.854  14.122 -0.1708 -0.0489  0.4263
15866TIP3    H169089   2.370   3.792  14.149 -0.9577 -1.1455 -0.0225
15866TIP3    H269090   2.293   3.913  14.197  1.0423 -0.0836  0.6170
15867TIP3   OH269091   6.413   0.183   4.914 -0.1965  0.5396  0.1855
15867TIP3    H169092   6.466   0.105   4.926  1.0614  1.2958 -0.2261
15867TIP3    H269093   6.447   0.223   4.834 -0.2568  1.9075  0.8067
15868TIP3   OH269094   1.492   5.485   4.400 -0.2526  0.0079 -0.0416
15868TIP3    H169095   1.562   5.465   4.462  0.4648 -0.4948 -1.0068
15868TIP3    H269096   1.412   5.477   4.453  0.1095 -3.2442  0.2121
15869TIP3   OH269097   1.345   0.009   0.032  0.4127  0.1641  0.6389
15869TIP3    H169098   1.388  -0.008  -0.052  0.9231  2.8351  0.2994
15869TIP3    H269099   1.252   0.015   0.010  0.7269  3.3988 -0.3175
15870TIP3   OH269100   1.869   1.308  13.076 -0.0367 -0.2168  0.3856
15870TIP3    H169101   1.810   1.258  13.132 -0.8696  1.0584  0.6787
15870TIP3    H269102   1.954   1.303  13.120 -0.6589  0.6907  1.7506
15871TIP3   OH269103   1.824   3.102   2.938 -0.3750 -0.1998 -0.1349
15871TIP3    H169104   1.734   3.088   2.908  0.2405 -1.5920 -1.4430
15871TIP3    H269105   1.850   3.017   2.975  0.4714  0.1404  0.0644
15872TIP3   OH269106   1.408   6.748   6.028 -0.9593  0.3998 -0.2842
15872TIP3    H169107   1.425   6.765   6.121  0.7356  0.5122 -0.5761
15872TIP3    H269108   1.384   6.833   5.992  0.1951  0.7574 -0.2762
15873TIP3   OH269109   3.232   4.707  11.029  0.5073  0.2398  0.2495
15873TIP3    H169110   3.225   4.647  10.955  0.7182 -0.8001  1.0584
15873TIP3    H269111   3.217   4.793  10.991  1.8752 -0.1274 -1.2295
15874TIP3   OH269112   3.501   1.029   3.034 -0.1251  0.2826  0.5270
15874TIP3    H169113   3.421   1.032   3.086 -0.4764  1.8058 -0.0523
15874TIP3    H269114   3.556   1.099   3.070 -0.0662  0.8646 -0.6497
15875TIP3   OH269115   2.905   4.747   0.404  0.4210 -0.0619  1.0110
15875TIP3    H169116   2.882   4.814   0.469  1.3168  1.4131 -0.1265
15875TIP3    H269117   2.849   4.766   0.329  0.7704 -0.5296  0.6278
15876TIP3   OH269118   2.039   3.712   0.426 -0.4221  0.4651  0.7067
15876TIP3    H169119   1.995   3.795   0.413 -0.0958  0.8330  1.8107
15876TIP3    H269120   2.062   3.682   0.338 -1.2964  1.1187  0.2480
15877TIP3   OH269121   5.892   3.337   3.945  0.7640  0.4942 -0.1490
15877TIP3    H169122   5.882   3.368   3.855  0.9169  0.0136 -0.3393
15877TIP3    H269123   5.958   3.268   3.939  0.7747  0.4580  0.3323
15878TIP3   OH269124   6.535   2.156   3.896 -0.4949  0.0132  0.3739
15878TIP3    H169125   6.440   2.157   3.901 -0.4409  1.1101  1.5009
15878TIP3    H269126   6.561   2.082   3.952 -0.7067 -1.6341 -1.5581
15879TIP3   OH269127   2.737   0.283  16.084  0.6086 -0.3811  0.1925
15879TIP3    H169128   2.669   0.226  16.118 -0.4212  0.0066 -1.1112
15879TIP3    H269129   2.774   0.326  16.161  0.8484 -2.1728  1.1138
15880TIP3   OH269130   1.485   4.459   5.094 -0.2117  0.3494  0.1892
15880TIP3    H169131   1.497   4.387   5.032  2.1369  1.1060 -0.3592
15880TIP3    H269132   1.405   4.438   5.141 -2.7537  0.2174 -3.7448
15881TIP3   OH269133   2.116   6.220  12.037  0.7413 -0.2116 -0.1375
15881TIP3    H169134   2.047   6.225  11.970  0.4925 -1.8605 -0.0363
15881TIP3    H269135   2.095   6.291  12.097 -2.0755 -1.8202  0.9505
15882TIP3   OH269136   3.698   6.023  12.370 -0.1960  0.4436  0.4139
15882TIP3    H169137   3.756   6.096  12.349 -1.7703  1.2525 -1.4976
15882TIP3    H269138   3.686   6.028  12.465  0.5535  2.0364  0.4578
15883TIP3   OH269139   3.991   1.221   0.075  0.2317  0.2045 -0.4941
15883TIP3    H169140   3.988   1.148   0.014  0.4972  1.1195 -1.6483
15883TIP3    H269141   4.012   1.182   0.159  0.8735 -0.9791 -1.1826
15884TIP3   OH269142   5.058   0.882  14.380 -0.1516  0.5837  0.4008
15884TIP3    H169143   5.076   0.975  14.368  0.4984  0.5759  1.2011
15884TIP3    H269144   5.017   0.855  14.298  0.7023  1.3098 -0.2911
15885TIP3   OH269145   2.663   2.092  11.888  0.2835  0.0862 -0.5079
15885TIP3    H169146   2.575   2.128  11.900  0.5778  0.9873 -1.0249
15885TIP3    H269147   2.706   2.151  11.827  1.3907 -0.1316  0.0347
15886TIP3   OH269148   6.053   4.273   5.564  0.0337  0.1667  0.2471
15886TIP3    H169149   6.025   4.361   5.540  0.7373  0.9184  2.0339
15886TIP3    H269150   5.978   4.236   5.611 -0.1209 -0.0679 -0.1743
15887TIP3   OH269151   6.136   4.334   1.085  0.1231 -0.4283  0.2523
15887TIP3    H169152   6.217   4.342   1.136  0.8970  0.4823 -1.0556
15887TIP3    H269153   6.134   4.242   1.058 -0.0535 -0.8088  1.4811
15888TIP3   OH269154   0.745   4.229   0.007  0.3400  0.1775  0.2362
15888TIP3    H169155   0.677   4.166  -0.020  1.2252 -0.1023 -1.5499
15888TIP3    H269156   0.825   4.197  -0.036  1.5695  0.6418  2.0657
15889TIP3   OH269157   2.382   1.144  13.722  0.1082 -0.3408 -1.1099
15889TIP3    H169158   2.476   1.150  13.738 -0.0915  2.6433 -0.4783
15889TIP3    H269159   2.343   1.156  13.809 -0.9129 -1.9430 -1.3010
15890TIP3   OH269160   3.762   2.104  14.407 -0.1717 -0.1770 -0.4197
15890TIP3    H169161   3.854   2.076  14.407 -0.5569 -1.5302  0.7083
15890TIP3    H269162   3.742   2.119  14.314  1.3066  0.6379 -0.6451
15891TIP3   OH269163   5.423   0.885   3.984 -0.2624 -0.2130 -0.1908
15891TIP3    H169164   5.422   0.977   3.958 -1.5515 -0.6358 -1.7763
15891TIP3    H269165   5.354   0.878   4.051  0.7999  0.2116  0.9972
15892TIP3   OH269166   4.293   4.767  14.105 -1.0196 -0.3563  0.5581
15892TIP3    H169167   4.267   4.808  14.187 -0.2906  0.3016  0.4739
15892TIP3    H269168   4.365   4.708  14.129 -1.2494 -0.6682  0.4894
15893TIP3   OH269169   5.857   3.487   0.985 -0.0751 -0.0266 -0.1182
15893TIP3    H169170   5.785   3.428   1.008  0.9753 -1.5302 -0.5851
15893TIP3    H269171   5.891   3.453   0.903  2.9741 -1.1278  1.4586
15894TIP3   OH269172   0.604   5.284  14.119  0.3412  0.0495 -0.2383
15894TIP3    H169173   0.637   5.244  14.199  1.6046 -0.5762 -1.0307
15894TIP3    H269174   0.604   5.213  14.054  0.0267  0.6992 -0.9707
15895TIP3   OH269175   4.611   2.212   5.356  0.5178  0.2551 -0.0201
15895TIP3    H169176   4.701   2.192   5.328  0.9907 -0.2348  1.7615
15895TIP3    H269177   4.560   2.211   5.274  2.0161 -0.0277 -0.9902
15896TIP3   OH269178   2.000   3.502   4.195 -0.6866  0.8169  0.4375
15896TIP3    H169179   1.974   3.574   4.138  0.1196  1.6029  1.0306
15896TIP3    H269180   2.096   3.499   4.188 -0.7410 -0.7204 -0.1822
15897TIP3   OH269181   0.905   1.489   4.833  0.0952  0.2859  0.4839
15897TIP3    H169182   0.823   1.444   4.853 -0.5522  1.1815 -0.0877
15897TIP3    H269183   0.883   1.550   4.764  1.9565 -1.6721 -2.0316
15898TIP3   OH269184   5.239   1.364   0.208  0.2033  0.2338  0.1212
15898TIP3    H169185   5.312   1.426   0.209  2.0734 -1.8013  0.0893
15898TIP3    H269186   5.198   1.377   0.122  2.2153 -0.2908 -1.0020
15899TIP3   OH269187   1.976   1.940   2.887  0.7278 -0.3852  0.2249
15899TIP3    H169188   1.884   1.915   2.875  0.5470 -0.5605  1.7771
15899TIP3    H269189   2.002   1.898   2.969  1.8788  0.5440  0.3697
15900TIP3   OH269190   0.002   1.458   5.193 -0.5591  0.1741  0.6052
15900TIP3    H169191   0.040   1.501   5.117  0.2342 -2.3029 -0.4924
15900TIP3    H269192   0.061   1.479   5.265  0.3617  0.0988 -0.1136
15901TIP3   OH269193   3.989   4.819   2.869 -0.0290  0.4081  0.2401
15901TIP3    H169194   3.917   4.763   2.896 -0.6516  1.4479  0.8013
15901TIP3    H269195   4.031   4.845   2.950 -1.5643  3.0954  0.2976
15902TIP3   OH269196   6.786   1.085  12.724  0.4830  0.4939  0.0982
15902TIP3    H169197   6.783   1.021  12.652 -1.4138 -0.0018  0.5634
15902TIP3    H269198   6.865   1.136  12.707 -0.1327  0.6998 -2.6077
15903TIP3   OH269199   3.440   3.218   0.857 -0.1809 -0.1738 -0.0213
15903TIP3    H169200   3.375   3.177   0.800  0.0394  0.1231 -0.4951
15903TIP3    H269201   3.390   3.250   0.932 -0.4951 -0.4439 -0.1138
15904TIP3   OH269202   2.512   4.309  11.542 -0.4411 -0.0100  0.1821
15904TIP3    H169203   2.488   4.360  11.465 -0.1848  0.0311  0.1277
15904TIP3    H269204   2.582   4.251  11.512 -1.9080 -1.6511 -0.1938
15905TIP3   OH269205   5.480   5.526   3.478  0.2853 -0.2742  0.2743
15905TIP3    H169206   5.527   5.601   3.516  0.7119 -0.3142 -0.1665
15905TIP3    H269207   5.472   5.547   3.385 -1.3949  0.1508  0.4965
15906TIP3   OH269208   0.608   3.102   2.278  0.1692  0.1060 -0.7197
15906TIP3    H169209   0.590   3.047   2.354  0.2990  1.5151  0.3674
15906TIP3    H269210   0.526   3.103   2.228 -1.1779  2.1160  1.3566
15907TIP3   OH269211   5.756   1.863   1.163 -0.0037 -0.2728  0.4688
15907TIP3    H169212   5.831   1.903   1.207 -0.6261  2.0521 -0.4615
15907TIP3    H269213   5.793   1.827   1.083  0.1840  0.6411  0.1317
15908TIP3   OH269214   3.981   5.133   0.953  0.1179  0.2561  0.1908
15908TIP3    H169215   3.904   5.130   1.009 -0.1975  0.6512 -0.2091
15908TIP3    H269216   4.042   5.071   0.992 -0.3012  0.1349  0.6626
15909TIP3   OH269217   4.801   1.088  11.169  0.4013 -0.0870 -0.2600
15909TIP3    H169218   4.880   1.141  11.161 -0.4325  1.3113  0.3235
15909TIP3    H269219   4.730   1.152  11.180 -1.0854 -1.1859 -2.5720
15910TIP3   OH269220   4.768   0.168  15.285  0.6650 -0.2729  0.3035
15910TIP3    H169221   4.706   0.234  15.315 -0.2489 -0.0053 -1.9826
15910TIP3    H269222   4.734   0.085  15.319 -0.5412 -0.0444 -0.3082
15911TIP3   OH269223   3.158   6.596  13.987 -0.0180 -0.4930 -0.3349
15911TIP3    H169224   3.172   6.539  14.062  2.4300 -0.6619 -0.8408
15911TIP3    H269225   3.240   6.643  13.976 -1.3137  1.7512 -1.1193
15912TIP3   OH269226   2.701   1.478   5.749 -0.1549  0.2160  0.1505
15912TIP3    H169227   2.749   1.492   5.668 -0.1018 -2.0761 -0.2945
15912TIP3    H269228   2.765   1.495   5.818  0.0787  1.2186 -0.2929
15913TIP3   OH269229   4.106   3.024  14.669 -0.0698  0.0768 -0.4149
15913TIP3    H169230   4.036   2.964  14.694  0.9837  0.0045  2.7804
15913TIP3    H269231   4.073   3.111  14.689  0.3191  0.1387 -0.0291
15914TIP3   OH269232   6.530   0.241  15.623  0.4651  0.9023  0.5089
15914TIP3    H169233   6.542   0.305  15.693  0.8373 -0.4374  1.7130
15914TIP3    H269234   6.436   0.228  15.618  0.4770  0.5205  1.2233
15915TIP3   OH269235   3.522   6.563   4.189 -0.7370  0.1297 -0.2596
15915TIP3    H169236   3.463   6.506   4.140 -1.6031 -0.3748  1.3011
15915TIP3    H269237   3.467   6.602   4.257  0.5719  0.2157  0.7937
15916TIP3   OH269238   4.506   2.022  12.013 -0.3552  0.3514 -0.1568
15916TIP3    H169239   4.437   2.087  11.996 -1.0496  0.0391  1.3475
15916TIP3    H269240   4.539   2.043  12.100 -0.5398 -1.2413  0.3273
15917TIP3   OH269241   5.056   0.833  12.251  0.2125  0.2961  0.8177
15917TIP3    H169242   5.147   0.862  12.259 -0.0160  0.9683  1.0337
15917TIP3    H269243   5.037   0.841  12.157  0.5814 -0.5132  0.6590
15918TIP3   OH269244   3.965   1.584   5.076  0.5428 -0.6981 -0.2681
15918TIP3    H169245   3.976   1.513   5.013  2.4379  0.2937 -1.1453
15918TIP3    H269246   3.946   1.661   5.021 -2.9675 -0.6758  0.7265
15919TIP3   OH269247   4.255   5.022  13.145  0.2411  0.2822 -0.4626
15919TIP3    H169248   4.294   5.081  13.210 -0.0264  0.6126 -0.5939
15919TIP3    H269249   4.301   4.939  13.156  0.6125  0.5133 -0.2618
15920TIP3   OH269250   3.310   6.148   1.111 -0.4369 -0.2983 -0.1496
15920TIP3    H169251   3.342   6.235   1.089  0.1016 -0.2403  0.8122
15920TIP3    H269252   3.217   6.150   1.087 -0.7120  0.9214  0.8837
15921TIP3   OH269253   4.700   6.062  15.825  0.2340  0.5266 -0.1423
15921TIP3    H169254   4.606   6.049  15.830  0.2919 -0.2456 -0.8022
15921TIP3    H269255   4.721   6.121  15.897 -0.4389 -1.1412  1.4822
15922TIP3   OH269256   0.736   1.181  16.102  0.5847 -0.1060  0.0059
15922TIP3    H169257   0.672   1.251  16.097  2.4791  1.6621 -2.3635
15922TIP3    H269258   0.688   1.103  16.073 -0.7647  0.9253 -0.6663
15923TIP3   OH269259   6.662   6.646  16.303  0.4865 -0.1574 -0.0932
15923TIP3    H169260   6.625   6.654  16.215 -1.5486 -2.7148  0.3840
15923TIP3    H269261   6.591   6.673  16.361  0.8710 -0.9709  0.7907
15924TIP3   OH269262   5.663   2.360   1.740  0.1647  0.4574 -0.0813
15924TIP3    H169263   5.648   2.394   1.828 -0.5387 -0.5930  0.2158
15924TIP3    H269264   5.694   2.271   1.754  2.6544  1.1087 -0.8231
15925TIP3   OH269265   2.279   6.478   5.407  0.3941 -0.7144  0.6271
15925TIP3    H169266   2.324   6.462   5.489 -1.9539 -0.2457  2.0922
15925TIP3    H269267   2.186   6.465   5.427 -0.3191 -0.0056 -1.8041
15926TIP3   OH269268   0.664   6.022  15.047 -0.7706 -0.3710  0.2030
15926TIP3    H169269   0.653   6.048  15.139  0.9963 -0.1601  0.3943
15926TIP3    H269270   0.732   6.082  15.014 -1.0618 -0.7462 -1.1154
15927TIP3   OH269271   2.515   0.815   2.049  0.0327  0.4563 -0.3870
15927TIP3    H169272   2.457   0.739   2.045  0.1086  0.1946  1.9504
15927TIP3    H269273   2.515   0.850   1.960 -1.6539 -1.0494 -1.0482
15928TIP3   OH269274   4.316   1.768  12.308  0.4542 -0.2907  0.9177
15928TIP3    H169275   4.234   1.730  12.340 -0.1638 -0.8337 -1.1369
15928TIP3    H269276   4.299   1.862  12.303 -0.4889 -0.5031 -0.5377
15929TIP3   OH269277   4.057   5.802  16.057  0.4654  0.6892 -0.1160
15929TIP3    H169278   4.087   5.716  16.088  1.2845  0.6798 -0.8836
15929TIP3    H269279   3.965   5.789  16.036  0.2323  0.3513  1.0268
15930TIP3   OH269280   2.836   3.815   2.692 -0.1498  0.4568  0.2835
15930TIP3    H169281   2.744   3.838   2.677 -0.3879 -1.0747 -0.8422
15930TIP3    H269282   2.832   3.736   2.746  0.5739  1.4557  1.8549
15931TIP3   OH269283   5.990   4.308  15.822 -0.2181 -0.1572  0.2255
15931TIP3    H169284   5.982   4.279  15.913 -0.2406  1.7809  0.9023
15931TIP3    H269285   5.939   4.245  15.772  0.5263 -1.7873  1.4222
15932TIP3   OH269286   1.126   6.392  14.738 -0.3572 -0.6410 -0.5264
15932TIP3    H169287   1.098   6.379  14.829  0.3295  0.3831 -0.1408
15932TIP3    H269288   1.157   6.307  14.709  0.3984 -0.7618  0.5711
15933TIP3   OH269289   6.233   0.585  14.939  0.1685 -0.4319 -0.1205
15933TIP3    H169290   6.214   0.660  14.883  0.5805 -0.4935 -0.3477
15933TIP3    H269291   6.205   0.612  15.026 -1.4825 -0.7277 -0.5311
15934TIP3   OH269292   2.750   0.702  10.519  0.1389  0.7823 -0.3530
15934TIP3    H169293   2.710   0.784  10.548 -2.5970 -0.3504 -0.6062
15934TIP3    H269294   2.754   0.648  10.598  0.0871  0.4771 -0.5563
15935TIP3   OH269295   1.141   4.792   0.488 -0.4093 -0.2579  0.1576
15935TIP3    H169296   1.064   4.849   0.483 -0.9050 -1.0419 -2.7325
15935TIP3    H269297   1.106   4.707   0.514 -0.4115 -0.4234 -0.3816
15936TIP3   OH269298   4.005   2.183  11.989  0.0518 -0.1163  0.1332
15936TIP3    H169299   3.940   2.160  11.923 -1.2874 -1.1508  1.7257
15936TIP3    H269300   4.022   2.101  12.035 -0.1403  0.8286  1.9672
15937TIP3   OH269301   1.689   2.656   0.160 -0.5004 -0.5548 -0.4251
15937TIP3    H169302   1.778   2.663   0.124 -0.7475 -1.9507 -1.4065
15937TIP3    H269303   1.691   2.577   0.215 -0.7794  0.2047  0.7104
15938TIP3   OH269304   4.938   1.716   0.603 -0.1487  0.4809 -0.1580
15938TIP3    H169305   4.983   1.685   0.524  0.5848  1.1737 -0.0180
15938TIP3    H269306   5.003   1.708   0.672 -0.8036 -0.1606  0.3962
15939TIP3   OH269307   0.647   4.580  16.002 -0.5853  0.3856  0.6414
15939TIP3    H169308   0.582   4.637  15.963  1.5103  1.6604 -1.1906
15939TIP3    H269309   0.683   4.530  15.929  1.9563  1.2745  1.1912
15940TIP3   OH269310   6.633   4.054  13.851 -0.0932 -0.1631  0.0992
15940TIP3    H169311   6.691   4.090  13.784 -2.1860 -0.6780 -2.1414
15940TIP3    H269312   6.675   3.973  13.880  0.9305  0.1545 -0.4637
15941TIP3   OH269313   3.837   1.606  15.064  0.3356 -0.2933 -0.2717
15941TIP3    H169314   3.785   1.663  15.007  1.0886  0.4816 -0.2044
15941TIP3    H269315   3.809   1.517  15.041  0.2044  0.0339 -1.4274
15942TIP3   OH269316   5.711   2.868  14.657  0.4410 -0.8842 -0.0563
15942TIP3    H169317   5.752   2.806  14.596  2.0139  0.7336 -0.7125
15942TIP3    H269318   5.668   2.932  14.601 -0.8526 -1.1294  0.6168
15943TIP3   OH269319   0.674   1.541   4.249  0.5471 -1.0845  0.2460
15943TIP3    H169320   0.604   1.508   4.193 -0.9446 -0.2948  1.5481
15943TIP3    H269321   0.720   1.605   4.195 -1.7125  0.6857  0.2424
15944TIP3   OH269322   3.177   5.794   0.977  0.2245  0.3919  0.1963
15944TIP3    H169323   3.171   5.711   0.929  2.8427 -0.5712  1.3063
15944TIP3    H269324   3.228   5.851   0.919 -0.6831  0.9041 -0.1210
15945TIP3   OH269325   0.960   5.223  10.725 -0.3403  0.3372 -0.3466
15945TIP3    H169326   1.010   5.265  10.795 -1.1286 -1.0781  1.1323
15945TIP3    H269327   0.985   5.131  10.730 -3.2658 -0.5069  0.6961
15946TIP3   OH269328   5.235   1.505  13.904 -0.1406  0.0570 -0.6200
15946TIP3    H169329   5.228   1.451  13.825  2.3363 -3.0527  1.0724
15946TIP3    H269330   5.158   1.481  13.955 -0.0259 -0.4601 -0.6829
15947TIP3   OH269331   1.491   2.733   5.544  0.4809  0.3678 -0.3369
15947TIP3    H169332   1.521   2.692   5.625  2.5976 -0.8999 -1.6752
15947TIP3    H269333   1.396   2.734   5.551  0.6247  0.5389  2.2488
15948TIP3   OH269334   1.822   6.239  12.883  0.1622 -0.6286  0.1728
15948TIP3    H169335   1.916   6.237  12.866  0.2048 -0.7438  0.4145
15948TIP3    H269336   1.796   6.330  12.867  0.5603 -0.2912  1.3828
15949TIP3   OH269337   3.740   2.466   0.783  0.1260 -0.1199  0.4632
15949TIP3    H169338   3.651   2.440   0.758  0.2577 -0.5145  0.3933
15949TIP3    H269339   3.787   2.474   0.700  0.5579 -1.4127  0.5541
15950TIP3   OH269340   0.506   5.762   4.079  0.0719  0.6877 -0.0623
15950TIP3    H169341   0.595   5.797   4.071 -0.1244  1.0639 -0.6325
15950TIP3    H269342   0.462   5.824   4.137 -0.1083  1.0687 -0.6020
15951TIP3   OH269343   5.131   5.387   3.837 -0.9438 -0.2555 -0.0365
15951TIP3    H169344   5.206   5.438   3.808 -1.1167 -0.0012 -0.0393
15951TIP3    H269345   5.062   5.452   3.853 -1.1319 -0.4767  0.0594
15952TIP3   OH269346   3.817   6.629   0.203  0.0803  0.1565 -0.1603
15952TIP3    H169347   3.746   6.672   0.250  2.0240  0.2769  2.9996
15952TIP3    H269348   3.876   6.700   0.178  1.0124 -0.2025  0.9065
15953TIP3   OH269349   4.270   3.978  14.784 -1.1458 -0.1890 -0.5478
15953TIP3    H169350   4.322   4.050  14.747 -0.6185 -0.4708 -0.3577
15953TIP3    H269351   4.190   4.020  14.815 -0.7047  0.3642 -0.1508
15954TIP3   OH269352   2.106   3.829  11.859 -0.2421  0.1895 -0.2500
15954TIP3    H169353   2.131   3.763  11.795  0.8517 -0.2073  0.5710
15954TIP3    H269354   2.010   3.829  11.856 -0.2340  0.4132 -2.1034
15955TIP3   OH269355   6.262   5.060  12.236  0.1963  0.5074  0.1004
15955TIP3    H169356   6.216   5.137  12.202 -1.3640 -0.0026  0.9619
15955TIP3    H269357   6.251   5.066  12.331 -0.2226 -0.9186  0.1664
15956TIP3   OH269358   2.776   1.449  15.508 -0.3372  0.2632 -0.2593
15956TIP3    H169359   2.756   1.394  15.584  0.7909 -0.3010 -0.3391
15956TIP3    H269360   2.725   1.528  15.521  0.5449  0.5771  1.5858
15957TIP3   OH269361   6.657   6.294  16.904 -0.2513  0.0219  0.4178
15957TIP3    H169362   6.690   6.264  16.989 -1.3149 -0.0133  0.8377
15957TIP3    H269363   6.708   6.372  16.884 -0.3949  0.3807  1.3869
15958TIP3   OH269364   4.755   2.798   2.784  0.5664  0.6296 -0.5149
15958TIP3    H169365   4.721   2.826   2.699  1.4363  0.5826 -0.8933
15958TIP3    H269366   4.762   2.703   2.777 -1.8375  0.3116  0.5620
15959TIP3   OH269367   1.454   5.631   6.007  0.3846 -0.2003 -0.0831
15959TIP3    H169368   1.429   5.544   6.037  2.0624 -0.5004  0.5618
15959TIP3    H269369   1.549   5.635   6.022  0.4270  1.5349 -0.6145
15960TIP3   OH269370   6.711   3.122   4.468  0.5457 -0.0926 -0.3099
15960TIP3    H169371   6.636   3.131   4.409 -0.6748 -0.3727  1.1569
15960TIP3    H269372   6.770   3.062   4.422  0.7007  1.4412 -2.2489
15961TIP3   OH269373   5.301   2.322   6.464  0.8957 -0.2963  0.1642
15961TIP3    H169374   5.216   2.302   6.505  1.1133  1.3870  1.5550
15961TIP3    H269375   5.358   2.250   6.492  0.4807 -0.3055  1.0362
15962TIP3   OH269376   2.993   3.162  14.026  0.0865 -0.4985 -0.4860
15962TIP3    H169377   3.030   3.075  14.012  0.0771 -0.7250  0.7249
15962TIP3    H269378   3.042   3.220  13.968 -0.3023 -1.3954 -1.7437
15963TIP3   OH269379   0.007   1.398   5.638  0.5870 -0.0200  0.0890
15963TIP3    H169380  -0.036   1.449   5.708  1.2991 -0.0310  0.5414
15963TIP3    H269381   0.016   1.310   5.675  1.1303  0.0186  0.0489
15964TIP3   OH269382   2.859   3.027   3.641  0.0722  0.4026  0.3009
15964TIP3    H169383   2.953   3.042   3.654  0.0681  0.2617  0.4866
15964TIP3    H269384   2.846   2.935   3.660 -0.0950  0.4085  0.2157
15965TIP3   OH269385   0.914   6.575  14.693  0.1689 -0.0006 -0.0397
15965TIP3    H169386   0.988   6.519  14.717  0.6082  0.5206 -0.1626
15965TIP3    H269387   0.945   6.624  14.617  0.1085  1.0711  0.6156
15966TIP3   OH269388   0.155   3.495  13.192 -0.0559  0.4180 -0.2111
15966TIP3    H169389   0.165   3.417  13.138  0.5909  0.6427 -0.4339
15966TIP3    H269390   0.175   3.465  13.281 -0.3064  0.2229 -0.2204
15967TIP3   OH269391   0.072   0.128   4.313  0.2855 -0.0404 -0.1112
15967TIP3    H169392   0.112   0.214   4.317 -0.5151  0.4725 -1.8206
15967TIP3    H269393  -0.009   0.136   4.364 -0.2992  0.5673 -1.0928
15968TIP3   OH269394   5.822   0.773  13.387  0.1320  0.0173 -0.4649
15968TIP3    H169395   5.794   0.685  13.412  0.5604  0.3663  1.4564
15968TIP3    H269396   5.917   0.773  13.400 -0.0685  1.2792  1.6230
15969TIP3   OH269397   5.453   3.889   6.571  0.1654 -0.1062  0.0309
15969TIP3    H169398   5.454   3.984   6.559 -0.2598 -0.1467 -0.3509
15969TIP3    H269399   5.365   3.862   6.544  0.1531 -0.5617  0.5033
15970TIP3   OH269400   5.106   4.704  13.932  0.0356  0.4173  0.2352
15970TIP3    H169401   5.201   4.692  13.927  0.1174  1.3934 -1.0909
15970TIP3    H269402   5.074   4.623  13.971  1.3246 -0.3238 -0.1752
15971TIP3   OH269403   1.504   6.083   0.768 -0.0835  0.3958 -1.1720
15971TIP3    H169404   1.497   6.178   0.764  0.1650  0.4130 -1.1573
15971TIP3    H269405   1.597   6.064   0.758 -0.0440  0.1896 -0.4513
15972TIP3   OH269406   2.517   3.965  16.104 -0.0511 -0.4599 -0.4471
15972TIP3    H169407   2.597   3.995  16.062 -0.4614  0.7009 -0.4129
15972TIP3    H269408   2.546   3.895  16.163  1.1191  0.7032  0.4104
15973TIP3   OH269409   3.216   4.278  12.543 -0.0516  0.5125 -0.2093
15973TIP3    H169410   3.291   4.323  12.581 -0.9014  1.0667  0.8836
15973TIP3    H269411   3.154   4.268  12.616 -1.3784  0.8125 -1.2449
15974TIP3   OH269412   6.209   4.448  15.107 -0.8644 -0.4993  1.1022
15974TIP3    H169413   6.153   4.508  15.058 -0.9067 -1.3949  0.0257
15974TIP3    H269414   6.284   4.501  15.134 -1.8994  0.5581  2.0155
15975TIP3   OH269415   1.489   0.469  15.727  0.0386 -0.4061 -0.0608
15975TIP3    H169416   1.498   0.559  15.757  0.3391 -0.8074  1.0877
15975TIP3    H269417   1.451   0.477  15.639 -0.8634  0.8012  0.4066
15976TIP3   OH269418   1.963   5.215  11.629  0.3927 -0.3673  0.0012
15976TIP3    H169419   1.987   5.302  11.660  1.4405 -0.6995  0.1615
15976TIP3    H269420   1.891   5.188  11.686 -1.7997  1.4515 -1.7402
15977TIP3   OH269421   0.605   5.817   2.987  0.2724  0.1122 -0.1095
15977TIP3    H169422   0.554   5.774   2.919  1.9122  0.6786 -1.7947
15977TIP3    H269423   0.596   5.910   2.969  1.5811  0.2348 -0.2646
15978TIP3   OH269424   2.376   2.337   2.702 -0.4292  0.2001 -0.2331
15978TIP3    H169425   2.370   2.315   2.795  0.1092 -0.6108 -0.3837
15978TIP3    H269426   2.304   2.399   2.688 -0.8752 -0.1120  0.5950
15979TIP3   OH269427   5.160   3.217   5.796 -0.1414 -0.2149 -0.4720
15979TIP3    H169428   5.157   3.166   5.715  0.8815 -1.6356  0.3577
15979TIP3    H269429   5.090   3.282   5.785 -1.9038 -2.1372 -1.3132
15980TIP3   OH269430   1.114   0.661   1.896 -0.4065 -0.1601 -0.0106
15980TIP3    H169431   1.093   0.724   1.965 -0.2738  0.2087 -0.3037
15980TIP3    H269432   1.106   0.576   1.938 -0.9595  0.0378  0.2940
15981TIP3   OH269433   3.143   0.939  12.732  0.2313  0.4642 -0.3140
15981TIP3    H169434   3.117   0.957  12.642 -3.1835 -0.6368  0.2994
15981TIP3    H269435   3.122   0.846  12.745 -0.0103  0.7585  1.7606
15982TIP3   OH269436   5.803   6.270   0.996 -0.2210 -0.2238  0.1007
15982TIP3    H169437   5.847   6.196   1.040 -0.6262 -0.0129  0.8801
15982TIP3    H269438   5.717   6.273   1.037 -1.0538 -0.7528 -1.5585
15983TIP3   OH269439   0.612   0.657  12.522 -0.2903  0.3092 -0.2127
15983TIP3    H169440   0.699   0.646  12.483 -0.2147 -2.1035  0.4689
15983TIP3    H269441   0.552   0.620  12.457 -0.2314 -3.0299  1.4416
15984TIP3   OH269442   1.357   3.209   2.051 -0.0864 -0.5102  0.3574
15984TIP3    H169443   1.332   3.137   1.994  0.8116 -1.7777  1.5051
15984TIP3    H269444   1.275   3.255   2.068 -0.5399 -0.7587 -1.0351
15985TIP3   OH269445   5.648   6.182   0.342 -0.2217 -0.1639 -0.0755
15985TIP3    H169446   5.662   6.118   0.272  1.7650 -0.4501  0.5094
15985TIP3    H269447   5.593   6.250   0.302  0.9433 -0.2708 -1.9784
15986TIP3   OH269448   0.531   2.745   4.509  0.2788 -0.1661 -0.4616
15986TIP3    H169449   0.611   2.736   4.456  0.7232 -1.1401  0.3425
15986TIP3    H269450   0.554   2.707   4.594 -1.7242 -2.7240 -0.9126
15987TIP3   OH269451   4.972   3.885  11.463 -0.3456  0.0607  0.2229
15987TIP3    H169452   5.064   3.860  11.467 -0.3717 -0.9544 -2.8639
15987TIP3    H269453   4.960   3.919  11.374 -3.3156 -1.6087 -0.1421
15988TIP3   OH269454   6.012   2.429   5.234  0.7797 -0.3692 -0.4536
15988TIP3    H169455   6.075   2.494   5.204  0.0089  0.4063 -0.4331
15988TIP3    H269456   6.046   2.399   5.318  0.5368  0.8941  0.1083
15989TIP3   OH269457   5.713   6.790  15.601  0.2423  0.1221  0.0947
15989TIP3    H169458   5.698   6.714  15.545 -1.0805  1.5247 -1.5886
15989TIP3    H269459   5.792   6.831  15.565 -0.9877  1.4009 -1.2874
15990TIP3   OH269460   6.616   1.958  16.257  0.2440 -0.1705  0.0200
15990TIP3    H169461   6.673   2.012  16.202  1.3860 -1.3422  0.0165
15990TIP3    H269462   6.628   1.993  16.345  0.9162 -0.3590  0.0069
15991TIP3   OH269463   6.277   2.465   4.117 -0.3281 -0.1073  0.1450
15991TIP3    H169464   6.268   2.370   4.131  0.4163 -1.2051 -4.9388
15991TIP3    H269465   6.203   2.488   4.061 -0.2013  2.2899  0.8614
15992TIP3   OH269466   4.665   3.979   4.625  0.5035  0.1807 -0.1428
15992TIP3    H169467   4.633   4.048   4.568 -3.6176 -2.4114 -1.4398
15992TIP3    H269468   4.679   3.904   4.567 -3.2362 -2.3829  1.8473
15993TIP3   OH269469   1.744   5.820   2.147 -0.4572  0.3959  0.2936
15993TIP3    H169470   1.777   5.765   2.076  0.9409  0.7315  0.6535
15993TIP3    H269471   1.674   5.872   2.107  0.6034  0.8967 -0.9652
15994TIP3   OH269472   4.600   1.303   0.989 -0.0688 -0.3283  0.1268
15994TIP3    H169473   4.597   1.396   1.012 -3.7416  0.0193 -1.1468
15994TIP3    H269474   4.593   1.302   0.893 -0.0234 -1.9025  0.1167
15995TIP3   OH269475   4.559   4.039   5.579  0.8168 -0.2650 -0.4978
15995TIP3    H169476   4.570   4.045   5.484  1.6530  1.1377 -0.3449
15995TIP3    H269477   4.468   4.011   5.591 -0.6083  3.2350 -1.7175
15996TIP3   OH269478   0.233   2.839   2.453 -0.4358 -0.1057 -0.0783
15996TIP3    H169479   0.296   2.860   2.522 -0.4194 -0.1472 -0.0799
15996TIP3    H269480   0.151   2.820   2.499 -0.4504 -0.0388 -0.0770
15997TIP3   OH269481   3.582   0.056  17.200 -0.7294 -0.1922  0.0965
15997TIP3    H169482   3.578   0.148  17.227 -2.6002  0.8169 -2.9891
15997TIP3    H269483   3.641   0.056  17.125 -1.6705 -1.2360 -0.6774
15998TIP3   OH269484   0.826   2.443  16.876  0.6846 -0.1624  0.0065
15998TIP3    H169485   0.828   2.513  16.941  1.8798 -0.4538  0.3013
15998TIP3    H269486   0.918   2.430  16.852  0.8523 -3.3636  1.8299
15999TIP3   OH269487   0.814   5.432   0.035 -0.0365  0.5335 -0.3309
15999TIP3    H169488   0.884   5.377   0.070 -1.6289  0.0624  2.3690
15999TIP3    H269489   0.745   5.371   0.011 -0.8080  1.1740  0.2076
16000TIP3   OH269490   1.907   0.688   2.260 -0.0649 -0.8358 -0.0050
16000TIP3    H169491   1.873   0.774   2.238  0.6257 -0.7300 -0.6895
16000TIP3    H269492   2.001   0.701   2.274  0.2920 -1.6734 -1.3707
16001TIP3   OH269493   2.438   1.878  16.066  0.4077  0.1263  0.1124
16001TIP3    H169494   2.445   1.796  16.017  1.7577  0.3087 -0.0286
16001TIP3    H269495   2.522   1.922  16.053  0.1484  0.9903  1.1620
16002TIP3   OH269496   2.023   1.210   4.728 -0.2798  0.3041  0.3236
16002TIP3    H169497   2.107   1.165   4.741 -0.2949  0.3138  0.4460
16002TIP3    H269498   1.998   1.186   4.639  0.6364  1.5749 -0.3218
16003TIP3   OH269499   5.877   1.623  14.575  0.3245  0.4966 -0.2322
16003TIP3    H169500   5.887   1.612  14.670 -0.4493 -0.1857 -0.2154
16003TIP3    H269501   5.783   1.639  14.563  0.3131 -0.0817 -0.9432
16004TIP3   OH269502   4.962   1.315   1.641  0.1258 -0.2081 -0.3695
16004TIP3    H169503   4.911   1.379   1.691  0.9297  0.1517 -0.0114
16004TIP3    H269504   5.053   1.332   1.664  0.6838  0.9893 -3.1118
16005TIP3   OH269505   5.971   5.595   4.327  0.5669  0.3233 -0.4271
16005TIP3    H169506   5.996   5.502   4.323  1.7563  0.6310 -0.4514
16005TIP3    H269507   5.923   5.610   4.246 -0.4592 -0.4973  0.0122
16006TIP3   OH269508   1.730   5.921   4.320  0.7431 -0.2364  0.7380
16006TIP3    H169509   1.693   6.001   4.357  0.9614  0.5582 -0.6995
16006TIP3    H269510   1.671   5.851   4.351  0.0439  0.5707  1.2918
16007TIP3   OH269511   4.550   5.606  14.385 -0.2997 -0.4225  0.7031
16007TIP3    H169512   4.464   5.629  14.351  0.0613 -1.0264 -0.7118
16007TIP3    H269513   4.532   5.544  14.456 -1.0308 -2.1997 -0.9136
16008TIP3   OH269514   6.708   5.234  15.400 -0.7479  0.6626  0.2762
16008TIP3    H169515   6.743   5.279  15.477 -0.7920  3.1700 -1.0330
16008TIP3    H269516   6.785   5.215  15.346 -0.6649 -1.5274  1.0749
16009TIP3   OH269517   6.352   2.998   2.072  0.0387  0.0011  0.4927
16009TIP3    H169518   6.306   3.049   2.005 -0.1504 -1.5860 -0.6377
16009TIP3    H269519   6.404   2.935   2.022  1.3218 -0.0319  1.8209
16010TIP3   OH269520   0.933   5.433   0.464  0.3505  0.2728 -0.3742
16010TIP3    H169521   0.842   5.445   0.491  0.8190  0.1045  1.3980
16010TIP3    H269522   0.952   5.508   0.408 -0.7415  0.5396 -0.4012
16011TIP3   OH269523   2.437   2.734  16.972  0.6230  0.1527  0.4937
16011TIP3    H169524   2.480   2.688  17.045  0.9310 -0.0095  0.2107
16011TIP3    H269525   2.348   2.750  17.004  1.0358  0.9637  1.2965
16012TIP3   OH269526   2.580   6.659  14.391  0.0870  0.3488  0.1465
16012TIP3    H169527   2.504   6.667  14.334 -0.2402  0.2862  0.5681
16012TIP3    H269528   2.612   6.570  14.376 -0.2113  0.2123  0.3275
16013TIP3   OH269529   4.858   4.517   1.299  0.0274 -0.3220  0.4316
16013TIP3    H169530   4.786   4.551   1.353  0.0132  0.6249 -0.1713
16013TIP3    H269531   4.913   4.470   1.362 -0.5583 -0.1601  1.0902
16014TIP3   OH269532   0.295   6.616   2.452 -0.0322  0.1638 -0.4931
16014TIP3    H169533   0.216   6.573   2.420  1.4982 -1.7652 -1.9835
16014TIP3    H269534   0.331   6.660   2.375  1.0628 -0.2153 -0.2210
16015TIP3   OH269535   2.072   5.483   2.792 -0.1060  0.1629  0.2677
16015TIP3    H169536   2.093   5.517   2.705 -0.7596  2.3847  0.9048
16015TIP3    H269537   2.007   5.414   2.776  0.3245  0.0304 -1.0280
16016TIP3   OH269538   4.850   3.761  15.227  0.1289 -0.0531  0.2645
16016TIP3    H169539   4.762   3.725  15.225 -0.0722  0.4257  0.2762
16016TIP3    H269540   4.858   3.810  15.145  0.3420 -0.0020  0.3152
16017TIP3   OH269541   6.664   4.919  11.901 -0.6955  0.1555 -0.0910
16017TIP3    H169542   6.575   4.924  11.936 -0.9923  0.3516 -0.8317
16017TIP3    H269543   6.713   4.986  11.949 -1.2418  0.8412 -0.4565
16018TIP3   OH269544   1.462   5.916  14.975  0.0420 -0.1692  0.1203
16018TIP3    H169545   1.419   5.855  15.035  1.5198 -1.8367 -0.4238
16018TIP3    H269546   1.551   5.882  14.966  0.6801  1.6344 -0.8525
16019TIP3   OH269547   3.180   4.857   3.480 -0.2312  0.0880 -0.4031
16019TIP3    H169548   3.101   4.812   3.508 -0.8602  0.4815 -1.4894
16019TIP3    H269549   3.213   4.900   3.559  0.2270 -1.9921  0.5958
16020TIP3   OH269550   0.765   2.830  14.600  0.5708 -0.6502  0.6688
16020TIP3    H169551   0.778   2.905  14.658  0.2590  0.5964 -0.8076
16020TIP3    H269552   0.831   2.841  14.532 -2.6401  1.3432 -2.5119
16021TIP3   OH269553   2.142   2.275  16.947  0.7811  0.5857 -0.2977
16021TIP3    H169554   2.159   2.355  16.997  1.3102  0.1031  0.3199
16021TIP3    H269555   2.109   2.306  16.863 -1.0936  1.3982  0.6801
16022TIP3   OH269556   0.725   1.935  14.003 -0.1212 -0.5724  0.2894
16022TIP3    H169557   0.776   1.868  14.047 -0.4545 -1.0440 -0.0237
16022TIP3    H269558   0.695   1.993  14.073  1.0494 -0.1338  0.4500
16023TIP3   OH269559   4.197   1.156   1.820  0.1008  0.1008 -0.0730
16023TIP3    H169560   4.241   1.078   1.856 -0.8902 -1.0105 -1.1735
16023TIP3    H269561   4.104   1.132   1.819 -0.6105  2.3265  2.0761
16024TIP3   OH269562   6.539   1.977   5.373  0.0273 -0.4907 -0.5559
16024TIP3    H169563   6.571   2.033   5.302 -2.7208  0.1860 -1.3471
16024TIP3    H269564   6.463   2.022   5.409  0.5242 -1.4761  1.9884
16025TIP3   OH269565   5.831   0.258  11.901 -0.3187 -0.3882  0.1578
16025TIP3    H169566   5.855   0.261  11.993 -1.0413 -0.4991  0.3587
16025TIP3    H269567   5.913   0.270  11.854 -0.0856  0.6935  0.8122
16026TIP3   OH269568   4.259   4.615   0.628 -0.1000 -0.0466  0.5361
16026TIP3    H169569   4.298   4.568   0.702  2.0885  1.5974  0.5253
16026TIP3    H269570   4.302   4.579   0.551 -0.1082  0.3745  0.3317
16027TIP3   OH269571   5.880   2.226  16.535  0.0171 -0.5170 -0.0363
16027TIP3    H169572   5.856   2.190  16.621  2.5500 -1.0732  0.5251
16027TIP3    H269573   5.886   2.320  16.550 -1.2417 -0.4003 -0.0992
16028TIP3   OH269574   2.704   6.341   1.104 -0.4213 -0.3672 -0.1040
16028TIP3    H169575   2.630   6.393   1.138 -1.7382 -1.1291 -1.6756
16028TIP3    H269576   2.757   6.404   1.055 -1.5728 -0.3077 -1.3270
16029TIP3   OH269577   1.671   5.345  11.818  0.1221 -0.2648  0.0355
16029TIP3    H169578   1.717   5.415  11.864  0.1064 -0.0881 -0.2132
16029TIP3    H269579   1.583   5.346  11.855  0.2725 -0.5072  0.4085
16030TIP3   OH269580   5.113   5.132  16.557  0.2151  0.1846 -0.3318
16030TIP3    H169581   5.039   5.187  16.530  0.0243 -0.1338 -0.4663
16030TIP3    H269582   5.117   5.063  16.490  0.7381  0.2906 -0.4133
16031TIP3   OH269583   5.923   2.925  12.184 -0.1255  0.0572 -0.4526
16031TIP3    H169584   5.898   2.834  12.200 -1.9037  0.2660 -1.7196
16031TIP3    H269585   5.911   2.969  12.268 -0.8369 -0.5775 -0.2132
16032TIP3   OH269586   4.153   2.715  15.099  0.2847 -0.0101  0.0685
16032TIP3    H169587   4.109   2.797  15.124  0.6482  0.4513 -0.7802
16032TIP3    H269588   4.205   2.738  15.022  1.3265 -0.7568  0.5253
16033TIP3   OH269589   0.148   5.351  16.095 -0.2611  0.3073  0.2743
16033TIP3    H169590   0.056   5.357  16.121 -0.4689  1.3863 -0.5976
16033TIP3    H269591   0.186   5.434  16.122  0.1047  0.4406 -0.5953
16034TIP3   OH269592   5.919   2.837   5.457  0.0627  0.1535  0.0470
16034TIP3    H169593   6.004   2.878   5.440  0.6184 -0.3995  1.3489
16034TIP3    H269594   5.856   2.909   5.447  0.6160  0.4759 -1.3561
16035TIP3   OH269595   1.791   4.041   0.417  0.2945 -0.2182 -0.0901
16035TIP3    H169596   1.814   4.012   0.505 -0.2113 -0.7778 -0.1387
16035TIP3    H269597   1.695   4.045   0.417  0.3215  0.8714 -0.2731
16036TIP3   OH269598   4.959   4.706  12.964 -1.2563 -0.7455  0.5964
16036TIP3    H169599   4.911   4.759  13.027 -1.7399 -0.8327  0.3084
16036TIP3    H269600   4.999   4.637  13.016 -2.5609 -1.4672  0.6822
16037TIP3   OH269601   2.095   1.578   6.532  0.0069 -0.8625 -0.2039
16037TIP3    H169602   2.155   1.507   6.556  0.5878 -0.7455 -1.2464
16037TIP3    H269603   2.118   1.599   6.441 -2.4741 -1.6874 -1.1096
16038TIP3   OH269604   5.470   6.365  12.791  0.6844 -0.4450  0.1235
16038TIP3    H169605   5.397   6.304  12.782  2.0442 -1.9943 -1.1303
16038TIP3    H269606   5.512   6.365  12.705  1.3448  1.4967  0.4034
16039TIP3   OH269607   6.010   0.754  16.401  0.3554  0.3395 -0.9124
16039TIP3    H169608   5.945   0.776  16.335  0.5841  2.3719 -0.5183
16039TIP3    H269609   6.018   0.832  16.455  1.6913 -0.5429  0.2655
16040TIP3   OH269610   2.462   2.761  13.126  0.3410  0.6888  0.2637
16040TIP3    H169611   2.450   2.761  13.031  0.6302  2.0033  0.2086
16040TIP3    H269612   2.529   2.695  13.142  0.3135  0.4811 -0.4508
16041TIP3   OH269613   6.373   6.552  15.957 -0.0253  0.0525  0.7040
16041TIP3    H169614   6.281   6.578  15.950 -0.0698  0.1866  1.6906
16041TIP3    H269615   6.377   6.466  15.914 -0.7075 -0.1625  1.0542
16042TIP3   OH269616   3.388   0.369  12.785 -0.1389 -0.3667  0.1431
16042TIP3    H169617   3.462   0.340  12.732 -0.7969 -0.9276 -0.4848
16042TIP3    H269618   3.427   0.395  12.868  0.8617  0.1354 -0.4610
16043TIP3   OH269619   2.392   5.934  15.398 -0.8091 -0.1688  0.0535
16043TIP3    H169620   2.400   5.892  15.484  1.0701 -1.3058 -0.6279
16043TIP3    H269621   2.451   6.009  15.402 -1.3029  0.2259  0.0035
16044TIP3   OH269622   2.729   3.739  13.029  0.5431 -0.7039  0.0023
16044TIP3    H169623   2.802   3.732  12.966 -0.3517 -1.1762 -1.0127
16044TIP3    H269624   2.767   3.785  13.104  1.5431  0.2499 -1.0411
16045TIP3   OH269625   1.597   1.636   4.208 -0.3318  0.3289  0.7664
16045TIP3    H169626   1.583   1.712   4.264 -0.5925  0.4688  0.5127
16045TIP3    H269627   1.527   1.641   4.143 -0.8925 -0.5985  1.2589
16046TIP3   OH269628   4.069   5.742   4.725  0.1003 -0.2990 -0.1553
16046TIP3    H169629   4.119   5.757   4.645  3.8077 -1.3921  1.7526
16046TIP3    H269630   4.046   5.649   4.722  0.8968 -0.5190  0.3552
16047TIP3   OH269631   4.069   5.858   2.869 -0.1791 -0.2767 -0.5409
16047TIP3    H169632   3.986   5.869   2.915  0.3965  1.2610  0.1909
16047TIP3    H269633   4.083   5.940   2.823  0.0217 -1.2286 -2.2566
16048TIP3   OH269634   3.255   5.682  11.556  0.1028  0.0708 -0.3424
16048TIP3    H169635   3.163   5.682  11.580  0.5402  0.0470  1.4170
16048TIP3    H269636   3.291   5.760  11.598  1.2786 -0.9692  0.6588
16049TIP3   OH269637   4.177   5.772   3.245 -0.6990 -0.8712 -0.2753
16049TIP3    H169638   4.238   5.816   3.186 -0.0692  0.0423  0.9994
16049TIP3    H269639   4.223   5.692   3.271  0.8420  0.6003  2.0063
16050TIP3   OH269640   3.855   0.715   4.756 -0.2534  0.3901 -0.2507
16050TIP3    H169641   3.921   0.645   4.762 -1.1239 -1.0376 -4.2664
16050TIP3    H269642   3.779   0.679   4.801 -0.0064 -0.3632 -0.4062
16051TIP3   OH269643   6.500   5.898  16.171 -0.0059  0.4165 -0.3299
16051TIP3    H169644   6.573   5.903  16.110  0.8587  2.8696  0.8025
16051TIP3    H269645   6.524   5.955  16.244 -3.1845  1.6814 -0.0833
16052TIP3   OH269646   5.743   1.106   0.041  0.0085  0.4222  0.6287
16052TIP3    H169647   5.760   1.025   0.089 -1.5643  0.0674  0.6461
16052TIP3    H269648   5.699   1.078  -0.040 -0.2779  1.2318  0.4878
16053TIP3   OH269649   0.610   5.955   2.200  0.2223  0.5620  0.4100
16053TIP3    H169650   0.639   5.946   2.109  0.8315 -1.8813  0.7830
16053TIP3    H269651   0.596   6.049   2.211  0.5973  0.9788 -2.0540
16054TIP3   OH269652   4.648   4.567   3.830 -0.3596 -0.1916 -0.4647
16054TIP3    H169653   4.688   4.650   3.803 -1.0451  1.8471  3.9708
16054TIP3    H269654   4.717   4.522   3.878 -0.8390 -0.9118 -0.4434
16055TIP3   OH269655   2.949   1.920   1.856 -0.1194 -0.2071 -0.1065
16055TIP3    H169656   2.859   1.909   1.824 -0.2613  0.2479  0.1316
16055TIP3    H269657   2.997   1.949   1.778 -0.0293 -1.1282 -0.4020
16056TIP3   OH269658   6.466   4.215   2.227  0.1986 -0.0502 -0.0149
16056TIP3    H169659   6.491   4.306   2.241  0.6339 -0.3896  1.5567
16056TIP3    H269660   6.528   4.164   2.280 -0.3962 -1.2292 -0.4035
16057TIP3   OH269661   1.713   0.861   1.431  0.3008  0.5458 -0.1328
16057TIP3    H169662   1.768   0.783   1.421  0.1679  0.4078  0.1840
16057TIP3    H269663   1.765   0.920   1.486 -0.3656 -0.0941  1.2375
16058TIP3   OH269664   2.280   4.150  16.889  0.3795 -0.2082  0.2447
16058TIP3    H169665   2.242   4.097  16.958  0.5333  0.8210  1.1392
16058TIP3    H269666   2.331   4.217  16.935  0.5412  0.4509 -0.8577
16059TIP3   OH269667   0.139   4.450  14.526  0.5620  0.5261 -0.3242
16059TIP3    H169668   0.082   4.467  14.451  1.6232  1.3131 -0.9902
16059TIP3    H269669   0.161   4.537  14.559  1.7841  0.2643 -0.4069
16060TIP3   OH269670   5.119   5.132  16.097  0.0497 -0.1371  1.1029
16060TIP3    H169671   5.136   5.219  16.133  0.1550  0.0071  0.7083
16060TIP3    H269672   5.199   5.109  16.050 -0.2874 -0.0900  0.5022
16061TIP3   OH269673   0.283   6.547   5.443 -0.1998 -0.2216 -0.7506
16061TIP3    H169674   0.206   6.506   5.403 -0.2442 -1.1312  0.2127
16061TIP3    H269675   0.329   6.474   5.484  0.3026  0.5558  0.0866
16062TIP3   OH269676   6.465   4.048   3.447 -0.3654  0.2482 -0.3368
16062TIP3    H169677   6.399   4.059   3.515  0.2918  1.6680  0.0927
16062TIP3    H269678   6.544   4.089   3.482  0.6862 -1.1531 -0.9605
16063TIP3   OH269679   2.727   5.509   4.159  0.0634  0.1103 -0.2293
16063TIP3    H169680   2.806   5.563   4.169 -0.8275  2.0282 -2.4909
16063TIP3    H269681   2.759   5.427   4.123  1.1168  0.5114 -0.2499
16064TIP3   OH269682   5.595   2.645  13.697  0.0991 -0.3555 -0.2778
16064TIP3    H169683   5.578   2.571  13.639  1.3520 -1.6392  0.9141
16064TIP3    H269684   5.508   2.672  13.728 -0.4259 -0.8054 -1.3350
16065TIP3   OH269685   0.978   3.699   1.814 -0.8528  0.3411 -0.2279
16065TIP3    H169686   0.907   3.711   1.878  0.3643  1.0776  1.0303
16065TIP3    H269687   1.015   3.614   1.835 -0.6194  0.4694 -0.1145
16066TIP3   OH269688   3.571   5.430  16.904 -0.5167 -0.2635  0.3602
16066TIP3    H169689   3.543   5.517  16.932 -0.7012 -0.0614 -0.4493
16066TIP3    H269690   3.506   5.371  16.943 -1.1220  0.0648 -0.1379
16067TIP3   OH269691   1.112   2.431   5.977  0.1769 -0.1478  0.0849
16067TIP3    H169692   1.021   2.425   6.006  0.1301  2.2200  0.6606
16067TIP3    H269693   1.110   2.496   5.906  1.3545 -0.3774 -0.1780
16068TIP3   OH269694   1.615   4.599   5.578  0.0678  0.4627  0.2891
16068TIP3    H169695   1.606   4.523   5.520  1.4629  0.2702  0.2869
16068TIP3    H269696   1.534   4.600   5.629 -0.2564 -0.6349 -0.1722
16069TIP3   OH269697   0.342   2.225  13.724 -0.4878 -0.3655  0.3224
16069TIP3    H169698   0.328   2.182  13.639  1.5079 -0.3677 -0.0476
16069TIP3    H269699   0.310   2.315  13.710  1.9145  0.3425 -1.2434
16070TIP3   OH269700   5.679   4.982   2.920  0.2951  0.3781  0.1983
16070TIP3    H169701   5.719   5.027   2.845  2.1537 -1.6317 -0.1203
16070TIP3    H269702   5.738   4.909   2.938 -2.2523 -1.6243  1.0314
16071TIP3   OH269703   6.740   2.808  11.758  0.0524  0.1302 -0.1514
16071TIP3    H169704   6.762   2.876  11.695 -0.8099 -0.2431 -0.8670
16071TIP3    H269705   6.651   2.828  11.787 -1.1741 -1.9624 -2.1472
16072TIP3   OH269706   2.586   4.559  10.839  0.1913  0.0419 -0.3485
16072TIP3    H169707   2.549   4.644  10.863  0.3540 -0.2964  1.2252
16072TIP3    H269708   2.519   4.495  10.865 -1.8248 -0.2556 -5.2291
16073TIP3   OH269709   0.054   0.568  17.182 -0.3328 -0.7119  0.3077
16073TIP3    H169710   0.016   0.613  17.257  1.8272  1.6168  0.1241
16073TIP3    H269711   0.049   0.475  17.205 -1.5401 -0.1858  2.4120
16074TIP3   OH269712   4.091   1.132   3.614  0.1065 -0.0642 -0.0570
16074TIP3    H169713   4.118   1.213   3.659 -0.4690  0.8382 -1.2726
16074TIP3    H269714   4.043   1.083   3.681 -3.3907  2.5810 -0.2586
16075TIP3   OH269715   4.423   3.645   1.718 -0.4983 -0.2866 -0.7354
16075TIP3    H169716   4.365   3.579   1.679  0.8156 -1.0671 -1.4233
16075TIP3    H269717   4.461   3.691   1.643  1.0604 -0.9240 -0.3709
16076TIP3   OH269718   2.051   6.133  11.625  0.4287 -0.1084  0.1988
16076TIP3    H169719   1.990   6.141  11.698  0.8633  1.0665  0.4504
16076TIP3    H269720   2.027   6.205  11.566  0.6142 -0.5455 -0.4179
16077TIP3   OH269721   5.416   2.622  10.881 -0.1387 -0.7510  0.5508
16077TIP3    H169722   5.500   2.647  10.842 -0.4942  2.4420  1.5155
16077TIP3    H269723   5.437   2.597  10.971 -0.2637  1.3303  1.2111
16078TIP3   OH269724   5.782   0.997   2.426  0.0753  0.5533 -0.4748
16078TIP3    H169725   5.745   1.083   2.441 -0.9955  0.2227 -1.1193
16078TIP3    H269726   5.717   0.936   2.462  1.1395  0.0190  0.6195
16079TIP3   OH269727   2.179   3.000  14.715  0.0091  0.2696  0.0291
16079TIP3    H169728   2.217   2.917  14.743 -1.4657  0.3102  2.4301
16079TIP3    H269729   2.135   2.981  14.633  2.1279 -0.5893 -0.9611
16080TIP3   OH269730   6.663   5.548   5.143  0.0004 -0.7169  0.2212
16080TIP3    H169731   6.587   5.573   5.090 -0.2731 -2.3496 -0.2048
16080TIP3    H269732   6.687   5.628   5.190 -1.6135 -0.0154 -0.0906
16081TIP3   OH269733   5.004   2.484   0.813 -0.5457 -0.2083 -0.0391
16081TIP3    H169734   5.059   2.426   0.866 -1.7563  0.4336  2.0205
16081TIP3    H269735   4.930   2.430   0.786 -0.5516 -0.2147 -0.0107
16082TIP3   OH269736   1.762   5.254   1.538  0.7078 -0.0164  0.4180
16082TIP3    H169737   1.704   5.186   1.502  1.3061  0.1310 -0.9108
16082TIP3    H269738   1.761   5.240   1.632  2.0637 -2.9079  0.1067
16083TIP3   OH269739   1.554   3.893  10.612 -0.0323  0.4609  0.3699
16083TIP3    H169740   1.590   3.822  10.559  0.9715 -0.1683  1.8249
16083TIP3    H269741   1.479   3.925  10.561  0.0743 -0.9833 -0.7791
16084TIP3   OH269742   1.923   3.277   2.759  0.3665 -0.4547 -0.2582
16084TIP3    H169743   2.018   3.262   2.751  0.5967  0.3335  0.8026
16084TIP3    H269744   1.897   3.226   2.836  0.3583  1.0436  0.7698
16085TIP3   OH269745   4.699   5.832  14.471 -0.4258 -0.0688 -0.7006
16085TIP3    H169746   4.793   5.817  14.485 -0.5609 -0.0725  0.2810
16085TIP3    H269747   4.668   5.751  14.430 -0.4560 -1.1148  1.2450
16086TIP3   OH269748   3.704   3.453   0.315 -0.0387  0.9292 -0.2231
16086TIP3    H169749   3.725   3.544   0.337 -0.7186  1.1196 -0.3579
16086TIP3    H269750   3.617   3.439   0.351 -0.3765  0.6584 -1.1173
16087TIP3   OH269751   4.620   4.362   4.827 -0.1460 -0.2449 -0.1094
16087TIP3    H169752   4.668   4.425   4.881  2.0435 -1.0770 -0.9773
16087TIP3    H269753   4.632   4.393   4.737 -0.4048 -0.9987 -0.4170
16088TIP3   OH269754   5.253   5.758   1.032 -0.0492 -0.1435  0.0319
16088TIP3    H169755   5.205   5.768   0.950  3.0952  0.8703 -1.8658
16088TIP3    H269756   5.203   5.693   1.081 -2.4624 -0.2783 -2.3401
16089TIP3   OH269757   2.559   1.215   1.947 -0.0918 -0.3750  0.3158
16089TIP3    H169758   2.635   1.180   1.901  1.4380  1.8397  0.9706
16089TIP3    H269759   2.576   1.309   1.953 -2.0446 -0.0571  2.0888
16090TIP3   OH269760   6.542   5.113   4.203  0.1261 -0.3964  0.3360
16090TIP3    H169761   6.494   5.081   4.127  0.2386 -0.8973  0.4662
16090TIP3    H269762   6.603   5.178   4.168  1.2996 -1.7615 -0.2583
16091TIP3   OH269763   0.793   4.234  15.839 -0.6974 -0.1908  0.5894
16091TIP3    H169764   0.843   4.163  15.881 -1.8254 -0.7509  1.0050
16091TIP3    H269765   0.817   4.312  15.888 -2.2336 -0.8755  2.5587
16092TIP3   OH269766   2.916   5.952   0.906  0.0071 -0.0516  0.0449
16092TIP3    H169767   2.997   5.981   0.865 -0.1850 -0.9383 -1.0043
16092TIP3    H269768   2.937   5.866   0.942  0.0881  0.5761  1.6093
16093TIP3   OH269769   1.237   3.096   4.116 -0.6879 -0.2503  0.4518
16093TIP3    H169770   1.253   3.014   4.069  0.7566 -0.9299  2.0195
16093TIP3    H269771   1.323   3.120   4.151 -0.7955  2.5955 -0.9171
16094TIP3   OH269772   5.324   2.262  13.342 -0.3091  0.7128  0.2337
16094TIP3    H169773   5.313   2.226  13.254 -1.4590 -0.1724  0.7063
16094TIP3    H269774   5.265   2.209  13.396  1.5864  0.1271  1.8480
16095TIP3   OH269775   4.341   0.408  10.574  0.2065 -0.0430 -0.2913
16095TIP3    H169776   4.352   0.317  10.547 -2.4925 -0.2502 -0.9594
16095TIP3    H269777   4.293   0.403  10.657 -2.1894  0.7086 -1.5333
16096TIP3   OH269778   5.712   2.126  17.078  0.2949  0.3345  0.7739
16096TIP3    H169779   5.688   2.147  17.168 -2.3639  0.6539  0.0829
16096TIP3    H269780   5.710   2.210  17.032  0.0148 -0.0379  0.0854
16097TIP3   OH269781   4.310   3.412   6.602 -0.4789 -0.4657 -0.2723
16097TIP3    H169782   4.234   3.387   6.549 -2.3144  1.4735  1.2546
16097TIP3    H269783   4.278   3.483   6.657  2.6311  0.7954  0.1140
16098TIP3   OH269784   4.287   3.449  15.331  0.1581 -0.0378 -0.0225
16098TIP3    H169785   4.229   3.375  15.346  3.0948 -2.8560 -1.3012
16098TIP3    H269786   4.344   3.452  15.408  0.2296  0.7412 -0.0949
16099TIP3   OH269787   1.108   3.051  12.991 -0.0652 -0.2823 -0.2676
16099TIP3    H169788   1.017   3.022  12.991  0.0625 -0.6801 -0.8148
16099TIP3    H269789   1.138   3.038  12.901  0.8878 -1.2880  0.1693
16100TIP3   OH269790   6.055   4.856  12.221  0.0538 -0.0770  0.0950
16100TIP3    H169791   6.035   4.843  12.128  0.3489 -2.1070  0.2744
16100TIP3    H269792   6.124   4.922  12.221  0.6884 -0.7042 -1.2053
16101TIP3   OH269793   2.022   2.793  14.145 -0.5287 -0.1664 -0.5277
16101TIP3    H169794   2.099   2.850  14.154 -0.5673 -0.3891  1.8414
16101TIP3    H269795   1.972   2.808  14.225 -2.8159 -0.3103 -1.8217
16102TIP3   OH269796   1.772   2.266  13.228  0.2371  0.0137  0.4902
16102TIP3    H169797   1.843   2.204  13.248 -0.7767 -1.1006  0.7642
16102TIP3    H269798   1.807   2.351  13.254  1.8400 -0.3568 -0.3110
16103TIP3   OH269799   4.964   3.083  12.264  0.0173  0.2422  0.5728
16103TIP3    H169800   4.898   3.014  12.255  0.2028  0.0473  0.6850
16103TIP3    H269801   4.966   3.103  12.357  1.3321 -0.9779  0.8391
16104TIP3   OH269802   4.122   1.591   3.264 -0.2605  0.0578  0.3681
16104TIP3    H169803   4.096   1.540   3.341  0.7242  1.2375  1.5196
16104TIP3    H269804   4.215   1.609   3.276 -0.6590  2.5083  0.2656
16105TIP3   OH269805   4.268   5.589   3.476 -0.1388 -0.5036 -0.2605
16105TIP3    H169806   4.354   5.631   3.482 -0.0500 -0.8115  1.1030
16105TIP3    H269807   4.221   5.622   3.553 -0.9910 -0.8759 -0.6172
16106TIP3   OH269808   3.989   5.082   3.012 -0.4949 -0.3360 -0.3929
16106TIP3    H169809   3.909   5.069   3.062 -0.5709 -0.2565 -0.4913
16106TIP3    H269810   4.052   5.116   3.075  0.4049 -3.2080  0.4138
16107TIP3   OH269811   0.817   4.951  16.941 -0.0593 -0.1133  0.2643
16107TIP3    H169812   0.814   4.862  16.976 -0.8346 -0.2783 -0.2183
16107TIP3    H269813   0.742   4.996  16.981  0.2967  0.3154  0.4660
16108TIP3   OH269814   0.869   4.659  11.591  0.3535 -0.3654 -0.2333
16108TIP3    H169815   0.850   4.570  11.562 -2.0292 -0.4828  1.4610
16108TIP3    H269816   0.850   4.659  11.684  0.4492  1.9048 -0.1549
16109TIP3   OH269817   6.527   1.047   0.983 -0.0557  0.0580 -0.2639
16109TIP3    H169818   6.565   0.973   0.936 -0.3292  0.5835 -1.3469
16109TIP3    H269819   6.602   1.100   1.009  0.0383  0.5652 -1.4982
16110TIP3   OH269820   0.824   3.156  15.199  0.5462  0.0125  0.0476
16110TIP3    H169821   0.885   3.169  15.271  1.4786  1.0966 -0.8895
16110TIP3    H269822   0.809   3.244  15.164 -1.3054 -0.2739  0.0273
16111TIP3   OH269823   5.536   1.115  14.865  0.0350 -0.1499  0.1539
16111TIP3    H169824   5.592   1.192  14.863 -2.3924  1.7486  0.2996
16111TIP3    H269825   5.501   1.106  14.776 -1.5868  0.4846  0.6790
16112TIP3   OH269826   5.139   6.627   3.840 -0.2874  0.0699  0.0635
16112TIP3    H169827   5.122   6.559   3.776 -0.8283  0.5709 -0.3451
16112TIP3    H269828   5.205   6.590   3.898 -1.0621 -1.0580  0.2602
16113TIP3   OH269829   6.605   6.075  14.519  0.4370 -0.5650 -0.2355
16113TIP3    H169830   6.596   5.981  14.531  0.9183 -0.5655  0.1782
16113TIP3    H269831   6.584   6.090  14.427  1.5962 -1.2497 -0.6352
16114TIP3   OH269832   6.245   4.544   1.960  0.1497  0.5173 -0.2572
16114TIP3    H169833   6.208   4.626   1.994 -0.8074 -0.1901  0.4655
16114TIP3    H269834   6.249   4.557   1.865 -1.4393  0.8533 -0.3032
16115TIP3   OH269835   5.043   5.729  12.152 -0.1832  0.4112 -0.3861
16115TIP3    H169836   5.035   5.802  12.091 -0.3845 -0.8255 -1.8952
16115TIP3    H269837   4.960   5.729  12.200 -0.2342  1.0834 -0.4715
16116TIP3   OH269838   3.800   1.005   5.602  0.6229 -0.1868  0.7403
16116TIP3    H169839   3.741   0.931   5.591 -1.5316  1.3056  1.5257
16116TIP3    H269840   3.748   1.081   5.578  1.4950  1.4283  3.4947
16117TIP3   OH269841   0.029   3.444   0.283  0.4896  0.2429 -0.0963
16117TIP3    H169842   0.030   3.390   0.362 -0.0662  0.1769 -0.1339
16117TIP3    H269843   0.100   3.410   0.229 -0.1221 -0.7187 -0.3042
16118TIP3   OH269844   4.303   1.319  10.892 -0.0640  0.0460  0.1284
16118TIP3    H169845   4.378   1.374  10.913  0.0319  0.3055 -0.8353
16118TIP3    H269846   4.334   1.261  10.823 -1.4286  1.9482 -2.2526
16119TIP3   OH269847   5.990   0.407  15.514  0.5089  0.4395 -0.0879
16119TIP3    H169848   6.072   0.378  15.475  0.0501 -0.3280 -0.5162
16119TIP3    H269849   5.954   0.470  15.452  1.0111  1.1743  0.3493
16120TIP3   OH269850   6.410   0.277  12.728  0.2151 -0.0685 -0.1266
16120TIP3    H169851   6.364   0.306  12.649 -0.2981  0.2781  0.2896
16120TIP3    H269852   6.388   0.343  12.794 -0.8034 -1.2541  0.7869
16121TIP3   OH269853   1.150   2.703  11.424 -0.1845  0.4900  0.1174
16121TIP3    H169854   1.242   2.679  11.433  0.1230  1.5104 -0.1556
16121TIP3    H269855   1.136   2.769  11.492 -0.5629  0.7565 -0.2125
16122TIP3   OH269856   1.553   5.169   2.775  0.0111  0.4913 -0.2009
16122TIP3    H169857   1.582   5.080   2.795 -1.7156 -0.1811 -0.4590
16122TIP3    H269858   1.468   5.177   2.820 -1.1397  1.0264 -2.3262
16123TIP3   OH269859   4.723   4.344   5.523  0.1413 -0.1749 -0.0115
16123TIP3    H169860   4.818   4.348   5.511 -0.0681  0.5002 -1.8403
16123TIP3    H269861   4.710   4.285   5.597  1.9752 -0.3877  0.1770
16124TIP3   OH269862   5.286   3.076  13.367  0.0495 -0.5366  0.2839
16124TIP3    H169863   5.303   3.088  13.461  0.9486 -2.8540  0.4889
16124TIP3    H269864   5.226   3.002  13.362 -0.8060  0.1988 -0.9654
16125TIP3   OH269865   1.636   4.638   4.715  0.4335  0.4463  0.0288
16125TIP3    H169866   1.653   4.548   4.743  0.5694 -0.1402 -1.8137
16125TIP3    H269867   1.638   4.634   4.619 -0.1726  2.2999 -0.0963
16126TIP3   OH269868   0.510   2.949   2.555  0.7765  0.4054 -0.4138
16126TIP3    H169869   0.485   2.948   2.648 -0.7043  0.5585 -0.7923
16126TIP3    H269870   0.588   2.893   2.551  0.6647  0.1250  0.8729
16127TIP3   OH269871   2.939   3.605   3.319 -0.5576 -0.8385 -0.2868
16127TIP3    H169872   2.939   3.598   3.415  0.2289  1.1481 -0.0862
16127TIP3    H269873   2.941   3.699   3.302 -0.3848 -1.1570 -2.2758
16128TIP3   OH269874   2.194   2.158  11.252 -0.5145  0.0384 -0.6036
16128TIP3    H169875   2.240   2.110  11.321 -2.1768 -0.6619  0.0884
16128TIP3    H269876   2.233   2.126  11.171 -0.2493 -1.0678 -0.0671
16129TIP3   OH269877   4.300   4.967  11.699  0.2409  0.6685  0.0672
16129TIP3    H169878   4.228   4.907  11.682  1.0530 -1.6324  3.5128
16129TIP3    H269879   4.264   5.031  11.761  0.3093  1.6997 -0.9173
16130TIP3   OH269880   6.662   1.848  13.171  0.1363  0.1783  0.1025
16130TIP3    H169881   6.641   1.918  13.109  1.8970  1.5296  0.9285
16130TIP3    H269882   6.735   1.801  13.130 -0.7116 -0.9010 -0.2166
16131TIP3   OH269883   2.336   6.114  12.364  0.5638 -0.0935 -0.3519
16131TIP3    H169884   2.300   6.163  12.437  1.9500  0.0558  0.2682
16131TIP3    H269885   2.260   6.081  12.316 -0.3857  1.6443 -0.1005
16132TIP3   OH269886   3.544   4.092   2.238  0.6335 -0.0892  0.2999
16132TIP3    H169887   3.503   4.014   2.200 -1.9241  0.2482  2.1125
16132TIP3    H269888   3.634   4.089   2.208  0.4537 -3.4062 -0.2233
16133TIP3   OH269889   5.622   4.433  14.660 -0.2468 -0.1344 -0.1072
16133TIP3    H169890   5.714   4.418  14.685  0.3002  1.4277 -1.0497
16133TIP3    H269891   5.624   4.439  14.565 -1.2608  0.3629 -0.1034
16134TIP3   OH269892   2.650   6.818   3.232 -0.1575 -0.2247  0.0409
16134TIP3    H169893   2.597   6.754   3.278 -1.5144  0.7240 -0.1334
16134TIP3    H269894   2.683   6.876   3.300 -1.8607  0.9581 -0.0730
16135TIP3   OH269895   2.688   3.740  13.606 -0.3430 -0.3380  0.3387
16135TIP3    H169896   2.716   3.812  13.550  1.3631 -0.7130  0.6373
16135TIP3    H269897   2.594   3.733  13.592 -0.0737  0.0106 -1.9680
16136TIP3   OH269898   0.831   3.721   1.095 -0.2781  0.5176 -0.1594
16136TIP3    H169899   0.820   3.669   1.015  0.2169  0.2646 -0.0698
16136TIP3    H269900   0.829   3.812   1.064 -0.9773  0.4483 -0.3380
16137TIP3   OH269901   6.211   2.176  14.918 -0.6696  1.0530  0.2947
16137TIP3    H169902   6.141   2.196  14.979 -0.9140 -1.0956  0.8166
16137TIP3    H269903   6.217   2.253  14.861 -2.5138  1.8327  1.0818
16138TIP3   OH269904   0.968   1.575  11.379 -0.2314 -0.3908  0.3677
16138TIP3    H169905   0.969   1.668  11.402  2.6571 -0.4067  0.7587
16138TIP3    H269906   0.951   1.574  11.285 -2.7476  0.2953  0.7391
16139TIP3   OH269907   0.313   2.229  15.003  0.3298  0.2667  0.2588
16139TIP3    H169908   0.350   2.202  15.088  0.9487  0.6393  0.1133
16139TIP3    H269909   0.222   2.198  15.006  0.6001 -0.5049  0.6967
16140TIP3   OH269910   4.727   3.565   1.010 -0.2075 -0.0524  0.0691
16140TIP3    H169911   4.778   3.493   1.047 -1.5821  0.0113  2.2840
16140TIP3    H269912   4.734   3.635   1.075  0.3789  1.5685 -1.6250
16141TIP3   OH269913   6.752   5.959  13.572 -0.0287  0.3295  0.1070
16141TIP3    H169914   6.775   5.869  13.596 -0.6409 -0.1627 -1.0941
16141TIP3    H269915   6.677   5.980  13.626 -0.2093 -0.0728  0.0150
16142TIP3   OH269916   5.761   4.221  12.536  0.1138 -0.1087  0.3397
16142TIP3    H169917   5.740   4.314  12.529  1.5601  0.5144  3.1379
16142TIP3    H269918   5.692   4.185  12.592  0.5037 -0.3325  0.6841
16143TIP3   OH269919   5.909   0.715   4.742  0.3877  0.6973 -0.2948
16143TIP3    H169920   5.999   0.745   4.727  0.5492 -0.3762 -1.7379
16143TIP3    H269921   5.908   0.626   4.707 -1.5031  1.0454 -1.2587
16144TIP3   OH269922   1.199   3.679  11.420 -0.3118  0.3224 -0.3911
16144TIP3    H169923   1.130   3.735  11.384 -1.8356 -0.5336  1.0701
16144TIP3    H269924   1.226   3.723  11.500  0.7343  0.5593 -0.8641
16145TIP3   OH269925   3.384   4.108  12.880 -0.1134  0.0717 -0.0613
16145TIP3    H169926   3.324   4.069  12.816 -1.1481  2.0549 -0.3902
16145TIP3    H269927   3.388   4.201  12.856  2.2331  0.2328  0.6615
16146TIP3   OH269928   5.733   6.229   4.917 -0.6968 -0.9183 -0.5839
16146TIP3    H169929   5.825   6.222   4.892 -0.3958  2.1640 -0.7217
16146TIP3    H269930   5.727   6.179   4.998  1.8593  1.0748  1.0016
16147TIP3   OH269931   3.731   3.392  14.344  0.5560  0.1791 -0.7408
16147TIP3    H169932   3.636   3.389  14.329  0.5897  0.9390 -1.1355
16147TIP3    H269933   3.756   3.300  14.353 -0.0882 -0.0807 -1.4857
16148TIP3   OH269934   4.417   0.006   1.965 -0.4301 -0.0204  0.5014
16148TIP3    H169935   4.445   0.008   1.874 -0.2959  1.7817  0.5622
16148TIP3    H269936   4.407  -0.088   1.984  1.6872 -0.5575 -0.6855
16149TIP3   OH269937   0.354   3.961   0.189 -0.3960  0.0190 -0.3709
16149TIP3    H169938   0.340   3.888   0.250  0.2633  1.5570  1.7758
16149TIP3    H269939   0.266   3.985   0.160 -0.7909 -0.4689  0.3829
16150TIP3   OH269940   6.477   1.193  11.089  0.7976  0.2974 -0.0461
16150TIP3    H169941   6.455   1.281  11.059  0.3778  0.9283  1.9386
16150TIP3    H269942   6.398   1.163  11.134  0.8220 -1.2445 -0.9604
16151TIP3   OH269943   2.332   0.082  13.900  1.0164  0.6583 -0.0604
16151TIP3    H169944   2.279   0.098  13.978  1.8163 -0.1577  0.6577
16151TIP3    H269945   2.289   0.134  13.832 -0.9947 -0.3377  0.3689
16152TIP3   OH269946   5.649   5.368   2.188 -0.0154  0.5197 -0.2563
16152TIP3    H169947   5.556   5.377   2.168  0.1084  1.5192 -0.4465
16152TIP3    H269948   5.677   5.457   2.209  0.8172  0.1657  0.1617
16153TIP3   OH269949   4.305   1.032  13.505  0.1508  0.2643 -0.0197
16153TIP3    H169950   4.365   1.085  13.452 -1.3124  0.4925 -1.5230
16153TIP3    H269951   4.352   0.949  13.518  0.9063  0.5380 -0.9230
16154TIP3   OH269952   3.754   4.410  15.880 -0.2536 -0.8436 -0.4460
16154TIP3    H169953   3.681   4.374  15.829 -1.6726  0.3081  0.6858
16154TIP3    H269954   3.731   4.502  15.892 -0.0873 -1.0954  2.4167
16155TIP3   OH269955   6.724   2.877   1.974  0.0117  0.1380  0.7063
16155TIP3    H169956   6.645   2.827   1.951 -0.0885  0.4534  0.3639
16155TIP3    H269957   6.705   2.966   1.946  1.4009 -0.2201 -1.6118
16156TIP3   OH269958   3.339   3.174  14.383 -0.3072 -0.6305 -0.1221
16156TIP3    H169959   3.250   3.157  14.414 -0.5410  0.8376  0.0837
16156TIP3    H269960   3.395   3.142  14.453 -0.8196  2.0740  1.6751
16157TIP3   OH269961   4.898   6.396   3.143  0.0392 -0.6290 -0.8528
16157TIP3    H169962   4.989   6.421   3.126  0.3846 -2.3256 -1.6997
16157TIP3    H269963   4.879   6.330   3.077 -1.4780 -1.0740 -0.0121
16158TIP3   OH269964   6.505   2.321   0.351  0.0366 -0.1183 -0.3159
16158TIP3    H169965   6.436   2.364   0.300 -0.4929 -0.0462  0.4553
16158TIP3    H269966   6.562   2.281   0.285 -0.2341  0.5917 -0.9890
16159TIP3   OH269967   5.269   4.869   1.950 -0.7355  0.6264 -0.0846
16159TIP3    H169968   5.245   4.879   1.858 -1.9669 -1.0264  0.0019
16159TIP3    H269969   5.285   4.775   1.960 -2.8696  0.3888  1.8480
16160TIP3   OH269970   6.352   5.222   2.856  0.1928 -0.3166  0.0451
16160TIP3    H169971   6.441   5.232   2.889 -0.0730  0.6381  0.5019
16160TIP3    H269972   6.351   5.135   2.815  1.0433 -0.7566  0.9240
16161TIP3   OH269973   4.982   4.244  11.236  0.2144  0.1367 -0.2042
16161TIP3    H169974   5.062   4.256  11.185  0.9192  0.0216  0.8443
16161TIP3    H269975   4.951   4.156  11.213  1.2100 -0.4115  0.4687
16162TIP3   OH269976   1.752   4.840  15.542 -0.0650  0.7828 -0.0578
16162TIP3    H169977   1.764   4.788  15.463 -1.0514  1.1605 -0.4618
16162TIP3    H269978   1.753   4.775  15.613 -1.4898  0.1676 -0.5711
16163TIP3   OH269979   5.397   2.570  10.358 -0.6521  0.6881  0.7489
16163TIP3    H169980   5.326   2.540  10.301 -0.3942  1.4236  0.0313
16163TIP3    H269981   5.447   2.631  10.305  0.8995 -0.2760  1.0444
16164TIP3   OH269982   6.199   5.801  14.230 -0.5345 -0.4378 -0.0988
16164TIP3    H169983   6.147   5.728  14.195 -1.4218  0.4399 -0.6506
16164TIP3    H269984   6.164   5.878  14.186  1.3551  0.1773 -0.6172
16165TIP3   OH269985   1.261   5.365   5.620  0.3103 -0.0315  0.2594
16165TIP3    H169986   1.326   5.299   5.596  2.4006  0.3889  3.8936
16165TIP3    H269987   1.313   5.434   5.662 -2.1720  2.2431 -0.1758
16166TIP3   OH269988   1.410   3.653   2.083 -0.3637  0.1654 -0.3005
16166TIP3    H169989   1.341   3.707   2.123 -0.2738 -0.4082  0.6549
16166TIP3    H269990   1.445   3.602   2.156 -0.0723 -0.7858 -1.0969
16167TIP3   OH269991   0.523   0.026   5.079  0.5964 -0.3893 -0.3409
16167TIP3    H169992   0.457   0.095   5.090  1.0058 -0.1333  0.6989
16167TIP3    H269993   0.490  -0.047   5.131  0.6488 -0.6264 -0.6369
16168TIP3   OH269994   4.887   6.115   4.600  0.0225  0.0491 -0.1168
16168TIP3    H169995   4.843   6.192   4.566 -1.8144 -0.9414 -0.1163
16168TIP3    H269996   4.921   6.070   4.522  0.0613  0.2504 -0.2157
16169TIP3   OH269997   3.431   1.939   0.872  0.5361  0.0858  0.1172
16169TIP3    H169998   3.396   1.925   0.784 -0.2294 -0.9229  0.5748
16169TIP3    H269999   3.398   1.866   0.924  2.0882 -0.0832  0.9385
16170TIP3   OH270000   3.013   6.688   0.807 -1.2457 -0.0699  0.6305
16170TIP3    H170001   2.971   6.659   0.726 -0.4835 -0.1371  0.2526
16170TIP3    H270002   2.954   6.756   0.841 -1.5861 -0.0558  0.0375
16171TIP3   OH270003   4.930   4.877   2.983  0.1712  0.0154  0.3788
16171TIP3    H170004   4.960   4.957   2.942  3.0063 -0.8556  0.5465
16171TIP3    H270005   4.894   4.905   3.067  1.2019  1.1178  0.4704
16172TIP3   OH270006   6.301   1.827   6.261 -0.2151  0.2689 -0.3485
16172TIP3    H170007   6.314   1.732   6.271 -2.4847 -0.4465 -3.0256
16172TIP3    H270008   6.288   1.858   6.350  1.5175 -1.7147  0.7157
16173TIP3   OH270009   0.695   4.546   0.472  0.3288 -0.4038 -0.1424
16173TIP3    H170010   0.605   4.568   0.493  0.6571  0.5543  0.3158
16173TIP3    H270011   0.734   4.520   0.555  0.8186  0.4734 -0.0813
16174TIP3   OH270012   4.850   3.485  14.785  0.0808 -0.0305  0.4985
16174TIP3    H170013   4.759   3.497  14.810 -0.0157 -0.0033  0.1497
16174TIP3    H270014   4.851   3.503  14.690  0.5165  0.3454  0.5709
16175TIP3   OH270015   0.875   1.600  13.057 -0.1104 -0.0854  0.4308
16175TIP3    H170016   0.804   1.662  13.046  0.2791 -0.1187 -4.4803
16175TIP3    H270017   0.843   1.519  13.017  2.0897 -0.5596 -0.5451
16176TIP3   OH270018   2.588   0.782  14.945 -0.0271 -0.0020  0.4411
16176TIP3    H170019   2.626   0.859  14.988 -2.0671  0.3655  1.7615
16176TIP3    H270020   2.518   0.818  14.891  0.8675 -0.7155 -1.2465
16177TIP3   OH270021   3.036   2.751   1.606 -0.2765 -0.3939  0.1687
16177TIP3    H170022   2.979   2.729   1.533  1.3962  0.2737 -1.4142
16177TIP3    H270023   3.035   2.846   1.611  1.1537 -0.3302 -0.3129
16178TIP3   OH270024   3.957   6.704   2.761 -0.3128 -0.1035  0.6422
16178TIP3    H170025   3.866   6.734   2.771 -0.5610 -0.8879  0.7629
16178TIP3    H270026   3.993   6.706   2.850  1.1160  4.1987  0.1958
16179TIP3   OH270027   0.558   4.149  15.962 -0.0163 -0.3480  0.8690
16179TIP3    H170028   0.519   4.235  15.978 -0.2541 -0.0156 -1.1807
16179TIP3    H270029   0.615   4.162  15.887 -1.8722 -2.4030 -1.0621
16180TIP3   OH270030   1.496   6.712   5.471  0.2526  0.0866 -0.1450
16180TIP3    H170031   1.418   6.664   5.443 -1.0499  2.3235 -0.5650
16180TIP3    H270032   1.532   6.749   5.391  2.2190 -1.4395 -0.0597
16181TIP3   OH270033   4.881   5.282   6.230 -0.2132  0.0733  0.1946
16181TIP3    H170034   4.886   5.366   6.276 -0.1362  0.8681 -1.2056
16181TIP3    H270035   4.792   5.251   6.247 -0.0677  0.1634  1.1679
16182TIP3   OH270036   3.458   0.657   3.719  0.4799  1.0759 -0.6388
16182TIP3    H170037   3.422   0.588   3.663  0.0482  1.3939 -0.7554
16182TIP3    H270038   3.499   0.610   3.792 -1.4214  0.7170  0.2667
16183TIP3   OH270039   4.092   0.307  12.971 -0.0419  0.3027 -0.0159
16183TIP3    H170040   3.997   0.322  12.977  0.1506  1.2427  1.0952
16183TIP3    H270041   4.125   0.327  13.058  1.2222  0.2105 -0.4493
16184TIP3   OH270042   5.808   5.215   5.165  0.3622 -0.2330 -0.0247
16184TIP3    H170043   5.851   5.294   5.133  1.3546 -0.0774  1.5691
16184TIP3    H270044   5.736   5.200   5.104  1.4185  0.6942 -1.5665
16185TIP3   OH270045   4.882   6.438   0.198 -0.2723 -0.9926  0.1121
16185TIP3    H170046   4.834   6.412   0.119 -3.2469  1.7944  0.7821
16185TIP3    H270047   4.814   6.459   0.261  1.8549  1.7497  1.7224
16186TIP3   OH270048   3.602   5.035   2.294  0.1642 -0.0156  0.5135
16186TIP3    H170049   3.639   5.122   2.308  0.3428  0.4897 -2.4112
16186TIP3    H270050   3.644   4.979   2.359  0.5840  1.9241  1.9805
16187TIP3   OH270051   4.315   5.780  11.556 -0.3759 -0.2063 -0.1859
16187TIP3    H170052   4.334   5.693  11.522 -1.1646 -0.7821  0.7978
16187TIP3    H270053   4.261   5.822  11.488 -0.0459 -0.4947 -0.6316
16188TIP3   OH270054   5.565   4.730  11.401 -0.6987  0.4088  0.4123
16188TIP3    H170055   5.566   4.674  11.479 -0.4847  1.1370  0.9527
16188TIP3    H270056   5.627   4.800  11.422 -1.4789  1.2314  0.0531
16189TIP3   OH270057   6.257   3.175  15.126  0.2542 -0.0813  0.4713
16189TIP3    H170058   6.181   3.162  15.069  1.0468 -0.6854 -0.4918
16189TIP3    H270059   6.225   3.156  15.214 -0.5599 -0.9220  0.0059
16190TIP3   OH270060   1.821   3.836   4.842  0.3006  0.1807  0.2654
16190TIP3    H170061   1.736   3.811   4.879 -0.3316  0.9345 -0.6185
16190TIP3    H270062   1.841   3.919   4.884  0.2784  0.3300 -0.0204
16191TIP3   OH270063   0.747   1.165  16.499 -0.6306 -0.0295  0.8589
16191TIP3    H170064   0.786   1.080  16.482 -0.1186 -0.1358  2.3845
16191TIP3    H270065   0.796   1.199  16.574 -0.4826  1.8349 -0.0343
16192TIP3   OH270066   3.729   4.209  12.281  0.0426 -0.1392 -0.6481
16192TIP3    H170067   3.803   4.261  12.313 -0.4857 -0.7257  1.6538
16192TIP3    H270068   3.760   4.119  12.284 -0.4353 -0.3040 -0.6388
16193TIP3   OH270069   2.837   0.308   1.668 -0.0740  0.5062 -0.1262
16193TIP3    H170070   2.771   0.356   1.719  1.0022  2.2769 -0.2960
16193TIP3    H270071   2.911   0.369   1.662  2.8443 -2.4232  2.5890
16194TIP3   OH270072   4.944   5.618  16.990  0.6135  0.2538 -0.3863
16194TIP3    H170073   4.959   5.640  16.899  0.6908 -1.4890 -0.8320
16194TIP3    H270074   4.991   5.685  17.039  1.2989  0.7154 -1.6382
16195TIP3   OH270075   2.641   3.762   5.462 -0.0411  0.2710 -0.3876
16195TIP3    H170076   2.656   3.669   5.481  0.1133  0.4935  0.6246
16195TIP3    H270077   2.692   3.779   5.383 -0.7658 -0.7143 -1.0813
16196TIP3   OH270078   1.560   3.885  10.877  0.0716 -0.0136 -0.1056
16196TIP3    H170079   1.549   3.903  10.784  1.0560  2.3092  0.1519
16196TIP3    H270080   1.637   3.828  10.882  1.8218  2.1269 -0.6580
16197TIP3   OH270081   2.758   2.595  16.551 -0.4820  0.2897 -0.1430
16197TIP3    H170082   2.794   2.679  16.523  1.0159  0.7618  2.8340
16197TIP3    H270083   2.761   2.540  16.472  2.3359  1.7966 -1.2239
16198TIP3   OH270084   2.566   2.033  14.916  0.9141 -0.1972 -0.1293
16198TIP3    H170085   2.604   2.119  14.898  1.4151 -0.4965 -0.4863
16198TIP3    H270086   2.617   1.999  14.989  1.1272 -0.4607 -0.3998
16199TIP3   OH270087   0.442   6.397  13.617  0.3383  0.4141 -0.1920
16199TIP3    H170088   0.381   6.470  13.611  0.2464  0.2599 -1.3472
16199TIP3    H270089   0.525   6.432  13.586  0.8222  0.5733  1.2074
16200TIP3   OH270090   4.449   0.275  14.765  0.4632  0.2958 -0.3759
16200TIP3    H170091   4.474   0.337  14.833 -1.4668  1.2193 -0.4221
16200TIP3    H270092   4.437   0.329  14.686 -1.8274  0.0445 -0.2747
16201TIP3   OH270093   5.906   0.988  13.813 -0.5927 -0.2584  0.0247
16201TIP3    H170094   5.883   1.004  13.721  0.7677  0.1103 -0.2845
16201TIP3    H270095   5.999   1.011  13.818 -0.0380 -2.4935  0.9476
16202TIP3   OH270096   2.287   4.525  17.280  0.3872 -0.3971  0.1313
16202TIP3    H170097   2.345   4.505  17.353  2.6086 -1.4117 -1.8077
16202TIP3    H270098   2.200   4.530  17.320  1.6962  0.9417  3.1105
16203TIP3   OH270099   5.295   4.550   3.286 -0.1304  0.2245 -0.2539
16203TIP3    H170100   5.274   4.627   3.233  2.6417  1.6190  0.4716
16203TIP3    H270101   5.336   4.488   3.225  1.8227  1.2838 -0.1163
16204TIP3   OH270102   3.543   0.957  16.228  0.3750  0.0027 -0.0353
16204TIP3    H170103   3.495   0.942  16.146 -0.7255 -2.2259  0.9266
16204TIP3    H270104   3.475   0.976  16.293  1.2786  2.6093  0.2845
16205TIP3   OH270105   0.764   4.406   3.171  0.1303 -0.1608  0.2710
16205TIP3    H170106   0.739   4.440   3.257  0.2540  0.5730  0.0160
16205TIP3    H270107   0.681   4.377   3.133  0.2734 -2.1738  1.3401
16206TIP3   OH270108   6.246   6.412   2.979  0.5121  0.4569 -0.4604
16206TIP3    H170109   6.262   6.326   2.941 -0.3408  1.0284 -2.2154
16206TIP3    H270110   6.315   6.467   2.943 -1.0517  1.2975 -2.3020
16207TIP3   OH270111   2.691   2.886  16.904  0.3439  0.1674 -0.3561
16207TIP3    H170112   2.707   2.828  16.979 -1.1396  0.8836  0.5630
16207TIP3    H270113   2.597   2.879  16.889  0.3759  1.2759 -1.1311
16208TIP3   OH270114   3.752   1.111  11.629  0.0100  0.1112  0.3065
16208TIP3    H170115   3.748   1.198  11.589  0.5712 -0.9508 -2.2717
16208TIP3    H270116   3.839   1.107  11.668  0.3710  0.3803 -0.4427
16209TIP3   OH270117   2.341   4.227  15.182 -0.4160 -0.2605  1.1699
16209TIP3    H170118   2.293   4.174  15.246  0.7325 -0.7026  1.6919
16209TIP3    H270119   2.295   4.211  15.099  0.0781 -2.3818  1.2319
16210TIP3   OH270120   2.072   6.483  17.297  0.1769 -0.2947 -0.4184
16210TIP3    H170121   2.013   6.551  17.264  0.7474  1.3602  1.7071
16210TIP3    H270122   2.156   6.501  17.254  0.1782 -0.0099 -0.2978
16211TIP3   OH270123   5.327   6.688   4.900 -0.0379 -0.4549  0.3550
16211TIP3    H170124   5.285   6.621   4.952  0.8694 -0.8721  0.5775
16211TIP3    H270125   5.400   6.719   4.954  1.2832 -1.3078 -0.8447
16212TIP3   OH270126   4.391   6.204   2.925  1.1468  0.1088 -0.5371
16212TIP3    H170127   4.307   6.202   2.970  1.9058  0.7974  1.0073
16212TIP3    H270128   4.371   6.231   2.836 -0.0798  2.5275  0.3693
16213TIP3   OH270129   0.536   6.518   0.031 -0.0527  0.5969  0.6544
16213TIP3    H170130   0.536   6.430  -0.006  0.5442  1.4527 -1.5368
16213TIP3    H270131   0.462   6.562  -0.010 -0.2045  1.1934  1.5400
16214TIP3   OH270132   2.940   3.220  16.351  0.7616 -0.2578  0.1953
16214TIP3    H170133   2.863   3.230  16.408  1.9384  0.7856  1.6663
16214TIP3    H270134   2.904   3.222  16.262 -0.9437 -0.1150  0.8530
16215TIP3   OH270135   5.852   4.995  13.349  0.3593 -0.4627 -0.3145
16215TIP3    H170136   5.876   4.931  13.283  0.8523 -0.5621 -0.0383
16215TIP3    H270137   5.786   5.050  13.306  0.7090 -0.4954 -0.9049
16216TIP3   OH270138   1.518   6.447   1.643  0.1157  0.3524  0.0095
16216TIP3    H170139   1.445   6.385   1.633  0.3460  0.1938 -0.8022
16216TIP3    H270140   1.588   6.408   1.590  0.8093  0.4723  0.8342
16217TIP3   OH270141   4.018   4.655   0.447 -1.2223 -0.6417  0.2298
16217TIP3    H170142   4.064   4.640   0.365 -1.8559 -1.9704  0.0978
16217TIP3    H270143   4.044   4.583   0.504 -2.7868 -1.2224  0.2813
16218TIP3   OH270144   3.474   4.204  15.160  0.3722  0.1069  0.0574
16218TIP3    H170145   3.540   4.268  15.131 -0.2693  0.3398 -0.8975
16218TIP3    H270146   3.489   4.127  15.105  1.4089 -0.7516  1.4775
16219TIP3   OH270147   0.673   5.557  15.824 -0.0381  0.0348 -0.2139
16219TIP3    H170148   0.632   5.475  15.850  0.2474 -0.0674 -0.0780
16219TIP3    H270149   0.694   5.601  15.906 -0.2731  0.2860 -0.2869
16220TIP3   OH270150   4.380   3.742   3.175  0.2283 -0.4030 -0.0513
16220TIP3    H170151   4.293   3.777   3.191  0.8451  0.8495  0.6682
16220TIP3    H270152   4.426   3.751   3.259  0.4469 -2.9437  0.1942
16221TIP3   OH270153   2.253   4.519   1.846  0.1937 -0.3655 -0.6328
16221TIP3    H170154   2.262   4.611   1.821 -2.0677  0.4046  1.0057
16221TIP3    H270155   2.274   4.517   1.939  0.5761 -1.5955 -0.7241
16222TIP3   OH270156   5.213   2.202  12.991 -0.4119 -0.0245 -0.2374
16222TIP3    H170157   5.207   2.107  12.998  0.4025 -0.0243  0.7416
16222TIP3    H270158   5.122   2.232  12.996 -0.5354 -0.5844  2.9303
16223TIP3   OH270159   4.334   6.596  13.491  0.0273 -0.9169 -0.3892
16223TIP3    H170160   4.399   6.657  13.526 -0.3316  0.6507 -2.2638
16223TIP3    H270161   4.383   6.541  13.430  0.3258 -2.4901  1.2056
16224TIP3   OH270162   1.306   5.708  16.035 -0.5458  0.1643 -0.1668
16224TIP3    H170163   1.348   5.627  16.065 -0.9701 -0.5649 -1.4619
16224TIP3    H270164   1.361   5.778  16.070  0.0093 -0.6921  0.7101
16225TIP3   OH270165   5.188   4.018  13.356  0.4690 -0.1142 -0.3610
16225TIP3    H170166   5.158   3.977  13.437 -0.1733 -0.3211 -0.6908
16225TIP3    H270167   5.194   3.946  13.293 -1.5256  0.3696 -1.1931
16226TIP3   OH270168   4.129   1.430   6.508  0.0504  0.2346 -0.0890
16226TIP3    H170169   4.071   1.367   6.549 -0.1513  0.6849  0.3364
16226TIP3    H270170   4.213   1.384   6.498 -0.4917 -0.5697 -1.1289
16227TIP3   OH270171   2.575   2.429  13.635  0.1867  0.6299 -0.3971
16227TIP3    H170172   2.549   2.401  13.723  0.6313  1.1270 -0.0998
16227TIP3    H270173   2.514   2.385  13.577 -0.1247  0.3068  0.1657
16228TIP3   OH270174   1.149   0.472  10.859  0.5593 -0.4713 -0.0638
16228TIP3    H170175   1.129   0.442  10.770  0.9987 -0.9908  0.0089
16228TIP3    H270176   1.208   0.546  10.847 -0.0878  0.0263 -0.2285
16229TIP3   OH270177   6.400   3.945   5.764  0.5650  0.2487 -0.1881
16229TIP3    H170178   6.329   4.009   5.759  0.0382 -0.3222 -0.0876
16229TIP3    H270179   6.378   3.879   5.699  1.3702  0.4112 -0.6471
16230TIP3   OH270180   3.389   2.722  13.997  1.0175 -0.5369 -0.1475
16230TIP3    H170181   3.312   2.699  13.944  0.0018  2.4097 -0.0912
16230TIP3    H270182   3.453   2.756  13.934  2.2021 -2.5694 -0.1371
16231TIP3   OH270183   0.781   6.379   1.930 -0.1049 -0.0275 -0.7753
16231TIP3    H170184   0.796   6.455   1.987  1.7269 -0.0344 -1.2004
16231TIP3    H270185   0.770   6.306   1.990  1.7815 -0.0292 -0.3766
16232TIP3   OH270186   0.454   3.821   0.880 -0.8753  0.3935 -0.7533
16232TIP3    H170187   0.426   3.745   0.931  0.2897  1.0071  0.8650
16232TIP3    H270188   0.537   3.847   0.919 -1.8597  3.3187 -0.3509
16233TIP3   OH270189   6.801   0.405   3.760  0.3892 -0.3154 -0.0253
16233TIP3    H170190   6.807   0.317   3.798 -0.7695 -0.4047  0.0008
16233TIP3    H270191   6.859   0.402   3.684  0.4611 -1.0705  0.0465
16234TIP3   OH270192   5.002   3.025  14.319  0.2433  0.0733 -0.0596
16234TIP3    H170193   4.976   2.933  14.313 -0.4407 -0.0223  2.8146
16234TIP3    H270194   4.968   3.054  14.404 -0.0794  3.1740 -1.1085
16235TIP3   OH270195   0.573   6.495   2.975  0.7610 -0.0680 -0.6931
16235TIP3    H170196   0.652   6.470   3.023 -0.4593 -0.6033  1.1493
16235TIP3    H270197   0.507   6.432   3.004 -0.3754  0.4070 -2.1403
16236TIP3   OH270198   5.444   2.032  11.688 -0.1779  0.2869 -0.1793
16236TIP3    H170199   5.372   2.087  11.657 -0.5638 -0.3546 -0.4394
16236TIP3    H270200   5.489   2.003  11.608 -1.1314 -1.3102 -0.1724
16237TIP3   OH270201   5.753   0.710   1.505 -0.0706  0.0559  0.2400
16237TIP3    H170202   5.697   0.727   1.581  2.5668 -2.2337  2.9520
16237TIP3    H270203   5.727   0.776   1.441 -4.0222  0.7147  2.2128
16238TIP3   OH270204   5.672   0.346   0.439  0.0724 -0.2440  0.2943
16238TIP3    H170205   5.711   0.425   0.402  0.6993 -1.6253 -2.2015
16238TIP3    H270206   5.606   0.379   0.500  1.2955  2.1680  0.4490
16239TIP3   OH270207   5.752   0.664   5.841 -0.5413 -0.2749 -0.4342
16239TIP3    H170208   5.741   0.573   5.868 -0.3409 -0.2179 -0.1499
16239TIP3    H270209   5.847   0.675   5.834 -0.5276  0.1247  0.2889
16240TIP3   OH270210   4.318   5.845  10.488  0.0475 -0.4729  0.2013
16240TIP3    H170211   4.393   5.902  10.507 -0.0799  0.0732 -0.8501
16240TIP3    H270212   4.337   5.810  10.400  0.1193 -2.0649  0.8097
16241TIP3   OH270213   6.580   1.314   5.046  0.5058 -0.2721  0.4277
16241TIP3    H170214   6.558   1.300   5.138  1.0055 -0.2811  0.5508
16241TIP3    H270215   6.605   1.406   5.040  1.2867 -0.4766  0.4748
16242TIP3   OH270216   6.009   2.772  13.198 -0.2559  0.0853  0.3548
16242TIP3    H170217   6.040   2.732  13.280  0.2139 -3.0222 -1.1804
16242TIP3    H270218   6.079   2.754  13.135 -1.3701  0.7850 -1.1420
16243TIP3   OH270219   0.723   4.000  12.479 -0.3249  0.4231 -0.5042
16243TIP3    H170220   0.757   4.077  12.525 -0.2129  0.6418 -0.9396
16243TIP3    H270221   0.686   4.036  12.398  1.3750 -0.1548 -1.5952
16244TIP3   OH270222   0.965   4.780  14.406 -0.5641  0.2961  0.4774
16244TIP3    H170223   0.968   4.687  14.430 -0.2882 -0.4716 -2.2405
16244TIP3    H270224   0.878   4.792  14.367 -0.6786  1.2583  0.9962
16245TIP3   OH270225   3.121   3.024   3.698  0.3194  0.0603  0.4455
16245TIP3    H170226   3.118   3.096   3.761  0.7308 -0.3464  0.9431
16245TIP3    H270227   3.209   3.029   3.661  0.0872  0.2813 -0.0866
16246TIP3   OH270228   5.336   6.778  12.593 -0.6745  0.0138 -0.3527
16246TIP3    H170229   5.243   6.792  12.606 -0.8846 -1.7136  0.1860
16246TIP3    H270230   5.341   6.719  12.518 -0.0661 -0.7136  0.2500
16247TIP3   OH270231   0.203   0.325  11.448  0.4862 -0.1497 -0.4305
16247TIP3    H170232   0.180   0.418  11.437  0.3631 -0.2065 -0.6624
16247TIP3    H270233   0.247   0.321  11.533 -0.1911 -0.0073 -0.0623
16248TIP3   OH270234   0.453   4.545   4.723  0.5642  0.1071  0.7472
16248TIP3    H170235   0.363   4.540   4.691  0.8456  2.5652 -0.6971
16248TIP3    H270236   0.467   4.638   4.742  2.8856 -0.1500  0.6587
16249TIP3   OH270237   0.323   5.628  11.205  0.2135 -0.2441 -0.4082
16249TIP3    H170238   0.250   5.569  11.224  1.5401 -1.8138  0.0743
16249TIP3    H270239   0.346   5.610  11.114  0.2062  0.0027 -0.4598
16250TIP3   OH270240   2.184   3.882   1.987  0.4463  0.4450 -0.2512
16250TIP3    H170241   2.099   3.862   1.949 -0.1883  0.5439  1.0509
16250TIP3    H270242   2.245   3.881   1.913 -0.1402 -2.6709 -0.8226
16251TIP3   OH270243   4.353   1.957   4.289  0.5856  0.4045 -0.1490
16251TIP3    H170244   4.279   1.925   4.341  0.4095  0.4676 -0.3569
16251TIP3    H270245   4.367   1.890   4.223  0.0136  0.8828 -0.7789
16252TIP3   OH270246   1.405   3.204   2.347  0.0125  0.1487 -0.2436
16252TIP3    H170247   1.463   3.132   2.372  0.2877 -0.0329 -1.3311
16252TIP3    H270248   1.404   3.201   2.251  0.0309  1.5984 -0.3092
16253TIP3   OH270249   1.596   1.170  15.794 -0.0403  0.0968  0.4917
16253TIP3    H170250   1.515   1.215  15.770 -0.1775 -0.0237  0.7271
16253TIP3    H270251   1.642   1.233  15.850  0.6193  0.6712 -0.6619
16254TIP3   OH270252   5.150   1.090  14.174  0.3956  0.0381  0.4671
16254TIP3    H170253   5.143   1.186  14.176  1.1200  0.1049  0.2269
16254TIP3    H270254   5.127   1.067  14.084  1.2976  0.0972  0.2050
16255TIP3   OH270255   1.935   3.204   0.361  0.4604  0.1268 -0.2452
16255TIP3    H170256   1.868   3.163   0.416 -0.8461 -0.2122 -2.0126
16255TIP3    H270257   1.930   3.297   0.383  0.5145 -0.1006  0.7688
16256TIP3   OH270258   5.164   1.738  17.112  0.1066 -0.4411 -0.2084
16256TIP3    H170259   5.068   1.735  17.108  0.1162 -2.0809  0.1598
16256TIP3    H270260   5.192   1.737  17.020 -0.2264 -1.3615 -0.3119
16257TIP3   OH270261   2.530   3.169   0.861  0.1598  0.3239 -1.0977
16257TIP3    H170262   2.538   3.074   0.850 -2.2000 -0.2243  0.9434
16257TIP3    H270263   2.619   3.198   0.881  0.6982 -1.6946 -0.2948
16258TIP3   OH270264   6.553   4.593   5.551 -0.2780  0.2680  0.5628
16258TIP3    H170265   6.490   4.523   5.537 -1.4643  1.2192  0.9977
16258TIP3    H270266   6.500   4.669   5.575  1.1481  0.4873  3.4407
16259TIP3   OH270267   1.691   0.851   2.941 -0.2201  0.1849 -0.3191
16259TIP3    H170268   1.669   0.760   2.962  2.1606 -0.7254 -1.4339
16259TIP3    H270269   1.611   0.900   2.960 -1.3302 -2.0099  1.0368
16260TIP3   OH270270   0.319   2.024   1.679  0.1645  0.9502  0.1140
16260TIP3    H170271   0.318   2.014   1.774 -2.8389 -2.1342 -0.0426
16260TIP3    H270272   0.227   2.029   1.654  0.6894 -1.0105 -2.7537
16261TIP3   OH270273   3.720   4.360   4.209 -0.0396 -0.7159 -0.3839
16261TIP3    H170274   3.720   4.444   4.165  1.1666 -1.4862 -1.9292
16261TIP3    H270275   3.628   4.333   4.211 -0.1140 -0.7346 -2.6236
16262TIP3   OH270276   6.039   6.148   0.718 -0.0129 -0.3176 -0.7368
16262TIP3    H170277   6.029   6.088   0.791  0.9318 -0.2034 -0.5031
16262TIP3    H270278   5.951   6.183   0.703 -0.2393 -0.4477  0.2501
16263TIP3   OH270279   3.366   1.426  13.302 -0.0464 -0.3190  0.1570
16263TIP3    H170280   3.430   1.415  13.231 -2.1570 -0.0097 -1.9463
16263TIP3    H270281   3.289   1.462  13.258 -2.3021 -2.3095  2.1836
16264TIP3   OH270282   2.315   0.404  15.285 -0.0436 -0.4732 -0.1191
16264TIP3    H170283   2.325   0.385  15.191  0.9535 -2.1557  0.2900
16264TIP3    H270284   2.265   0.331  15.319 -3.5749  1.8409  0.1348
16265TIP3   OH270285   5.084   6.455  15.354  0.4620  0.4106 -0.5620
16265TIP3    H170286   5.124   6.533  15.315  0.0318 -0.1868 -2.2983
16265TIP3    H270287   5.053   6.404  15.279 -0.5283 -0.7610  0.5924
16266TIP3   OH270288   4.247   4.391   1.129  0.0568  0.3350 -0.1079
16266TIP3    H170289   4.310   4.395   1.057 -0.2436 -0.7768 -0.4542
16266TIP3    H270290   4.166   4.425   1.092 -0.0306  0.0035 -0.2260
16267TIP3   OH270291   3.848   0.214  11.826  0.0986 -0.3793 -0.0977
16267TIP3    H170292   3.921   0.248  11.775  2.0541 -3.2173  0.5229
16267TIP3    H270293   3.774   0.214  11.766  0.8763  1.5281 -1.1337
16268TIP3   OH270294   4.624   1.857  11.565  0.5431 -0.5448  0.3323
16268TIP3    H170295   4.600   1.861  11.473 -0.6735 -1.3299  0.5913
16268TIP3    H270296   4.675   1.937  11.580 -0.2794  0.2136 -0.7320
16269TIP3   OH270297   0.661   5.080   6.390 -0.0221  0.0184 -0.2551
16269TIP3    H170298   0.614   5.012   6.438 -0.3232 -0.1459 -0.7852
16269TIP3    H270299   0.640   5.161   6.437 -1.0152 -0.0185 -0.6062
16270TIP3   OH270300   6.682   2.107   2.647  0.2978 -0.3367 -0.1310
16270TIP3    H170301   6.661   2.041   2.713  0.8694  0.7418  1.1789
16270TIP3    H270302   6.711   2.183   2.698 -0.4383  0.9636 -1.5829
16271TIP3   OH270303   5.948   1.412   0.775 -0.4710  0.6715  0.5031
16271TIP3    H170304   6.041   1.434   0.767  0.5674 -2.7209  1.3738
16271TIP3    H270305   5.920   1.392   0.686  0.1944 -0.0495  0.4388
16272TIP3   OH270306   2.788   0.942   0.401 -0.8211 -0.0840 -0.0114
16272TIP3    H170307   2.716   0.999   0.373 -2.4376 -1.4516  1.1056
16272TIP3    H270308   2.744   0.860   0.425  1.1755 -1.0615  0.4597
16273TIP3   OH270309   5.188   3.531   0.826  0.1643  0.9125  0.2097
16273TIP3    H170310   5.202   3.613   0.872 -1.4617  0.6499  1.2722
16273TIP3    H270311   5.132   3.554   0.751 -2.1159  0.5499  1.6961
16274TIP3   OH270312   4.689   6.808  13.095 -0.0117 -0.2674  0.4769
16274TIP3    H170313   4.703   6.776  13.184 -1.6830  1.5984  1.5144
16274TIP3    H270314   4.703   6.903  13.102 -1.4322  0.0865 -0.9234
16275TIP3   OH270315   3.005   6.758  11.830  0.4766  0.0154  0.1252
16275TIP3    H170316   2.909   6.756  11.825  0.4181  0.9426  0.5875
16275TIP3    H270317   3.033   6.764  11.739  0.1101 -0.4995 -0.0298
16276TIP3   OH270318   4.843   2.902   3.012  0.2349  0.0647  0.1725
16276TIP3    H170319   4.811   2.870   2.928  0.8748  1.5459 -0.6533
16276TIP3    H270320   4.913   2.840   3.036 -0.1746 -0.5530 -0.2025
16277TIP3   OH270321   6.626   4.692   3.461 -0.1253 -0.0337 -0.3278
16277TIP3    H170322   6.707   4.707   3.510  0.6839  1.6346 -2.0375
16277TIP3    H270323   6.648   4.716   3.371 -1.4136 -3.2867 -1.6931
16278TIP3   OH270324   6.525   2.265  10.637  0.3695  0.3879  0.8100
16278TIP3    H170325   6.473   2.186  10.653 -1.4320  1.7278  2.0059
16278TIP3    H270326   6.470   2.319  10.580  2.1513  0.2714 -1.1377
16279TIP3   OH270327   4.109   1.187   0.670  0.4085 -0.0867 -0.3597
16279TIP3    H170328   4.027   1.182   0.720  1.3384 -0.2589  1.2161
16279TIP3    H270329   4.114   1.103   0.624 -0.0631 -0.2657 -0.0967
16280TIP3   OH270330   1.439   5.221   5.493 -0.2663  0.5275 -0.2902
16280TIP3    H170331   1.531   5.214   5.466 -0.2272 -1.4101  0.2465
16280TIP3    H270332   1.390   5.208   5.411 -0.0799 -1.1406 -0.1650
16281TIP3   OH270333   0.531   4.571  14.430 -0.2638 -0.3480 -0.4443
16281TIP3    H170334   0.476   4.605  14.359  0.3743  0.2526 -0.6701
16281TIP3    H270335   0.554   4.482  14.403  2.9346  1.0028 -2.8513
16282TIP3   OH270336   2.710   5.094  14.468 -0.1714  0.1218  0.4453
16282TIP3    H170337   2.777   5.040  14.425 -0.1042 -0.2715  1.0236
16282TIP3    H270338   2.628   5.068  14.426 -0.1181 -0.3188  0.6081
16283TIP3   OH270339   5.760   6.401   5.180  0.1930  0.0100 -0.1810
16283TIP3    H170340   5.666   6.414   5.166 -0.0728 -1.2915  0.2284
16283TIP3    H270341   5.770   6.306   5.186  1.2357  0.1837  1.6852
16284TIP3   OH270342   5.354   6.344  11.439 -0.3773  0.3431  0.8422
16284TIP3    H170343   5.267   6.309  11.460 -0.0791  0.0726  1.6453
16284TIP3    H270344   5.340   6.392  11.358 -1.4613  0.9718  1.3672
16285TIP3   OH270345   2.085   4.162   3.891  0.0676  0.2234  0.1562
16285TIP3    H170346   2.121   4.205   3.968  0.2153  1.0464 -0.3632
16285TIP3    H270347   2.108   4.070   3.902  1.0281  0.5036  0.5605
16286TIP3   OH270348   1.153   1.918  11.159 -0.2631  0.1122 -0.1266
16286TIP3    H170349   1.182   1.831  11.130  0.6016  0.8025 -1.4365
16286TIP3    H270350   1.071   1.901  11.206 -0.3573 -1.3685 -0.7506
16287TIP3   OH270351   0.192   2.730   0.056  0.1123 -0.6836  0.6941
16287TIP3    H170352   0.161   2.674  -0.015 -0.1488  0.2480  0.0405
16287TIP3    H270353   0.225   2.670   0.122 -1.8408 -1.6936  0.8217
16288TIP3   OH270354   4.590   4.021   1.236 -0.0848 -0.0555 -0.1034
16288TIP3    H170355   4.556   4.015   1.146  1.2178 -0.1976 -0.6153
16288TIP3    H270356   4.655   4.091   1.231 -1.1051  1.0319  1.1243
16289TIP3   OH270357   3.229   3.585   4.417 -0.8803  0.2686 -0.3823
16289TIP3    H170358   3.282   3.506   4.406 -0.9783 -0.0774  1.3318
16289TIP3    H270359   3.233   3.604   4.510  0.5005  3.2804 -0.9433
16290TIP3   OH270360   4.908   1.630   2.365 -0.6651  0.0371  0.5120
16290TIP3    H170361   4.899   1.675   2.449  2.1838 -0.0668  0.9659
16290TIP3    H270362   4.922   1.700   2.302  1.6416  0.0297  0.8992
16291TIP3   OH270363   1.123   4.887  13.498 -0.5797 -0.0649 -0.6296
16291TIP3    H170364   1.133   4.964  13.554  0.5120 -0.6114 -0.0401
16291TIP3    H270365   1.206   4.840  13.508 -1.6648 -1.9216 -0.0787
16292TIP3   OH270366   2.615   2.673   1.263 -0.8559 -0.0150  0.2643
16292TIP3    H170367   2.613   2.594   1.209 -0.5374 -0.0417  0.2940
16292TIP3    H270368   2.593   2.642   1.351 -0.3670 -0.1309  0.3496
16293TIP3   OH270369   3.408   4.543  11.906 -0.2587  0.1833  0.2997
16293TIP3    H170370   3.325   4.555  11.859  0.6331 -0.7170 -1.6027
16293TIP3    H270371   3.449   4.630  11.904 -0.2757  0.1874 -0.5813
16294TIP3   OH270372   1.056   5.537   3.096  0.2972  0.0541 -0.7156
16294TIP3    H170373   1.102   5.620   3.112 -0.9610  0.6390 -0.0208
16294TIP3    H270374   0.969   5.550   3.132  0.3742 -1.9268  0.3247
16295TIP3   OH270375   2.104   1.516  15.333 -0.1146 -0.3287 -0.2393
16295TIP3    H170376   2.076   1.592  15.281 -1.7850  0.0799  1.1772
16295TIP3    H270377   2.036   1.451  15.318 -0.1415 -0.5237  0.7161
16296TIP3   OH270378   4.632   0.521   6.139 -0.2623  0.3366 -0.0867
16296TIP3    H170379   4.641   0.486   6.050  1.8929  0.7970 -0.0925
16296TIP3    H270380   4.680   0.604   6.137  0.7084 -0.1540  1.7841
16297TIP3   OH270381   1.810   0.111  10.571 -0.8547  0.6245  0.0788
16297TIP3    H170382   1.826   0.017  10.556  0.4926  0.9021 -0.3702
16297TIP3    H270383   1.731   0.130  10.522 -0.7835 -0.1463 -0.3536
16298TIP3   OH270384   6.364   2.862  10.817 -0.1398  0.4619 -0.5101
16298TIP3    H170385   6.299   2.888  10.751  1.5990  0.1447 -2.4684
16298TIP3    H270386   6.378   2.769  10.801  1.2094  0.6508 -0.5625
16299TIP3   OH270387   0.035   4.498  12.156 -0.6652  0.0013 -0.1064
16299TIP3    H170388   0.127   4.473  12.167 -0.6502  0.2881  0.4860
16299TIP3    H270389   0.038   4.576  12.101 -0.2823  1.8803  2.3948
16300TIP3   OH270390   6.267   2.510   2.461  0.3479  0.2162  0.2682
16300TIP3    H170391   6.321   2.534   2.537  0.6817  1.7974 -0.4199
16300TIP3    H270392   6.233   2.423   2.482  2.8373 -0.6820  0.9202
16301TIP3   OH270393   3.689   5.035  15.160  0.7221  0.5025 -0.1298
16301TIP3    H170394   3.646   4.984  15.229 -0.1618 -1.0426 -1.7285
16301TIP3    H270395   3.618   5.085  15.120  0.5599 -1.1223 -1.9921
16302TIP3   OH270396   4.721   6.428  17.251 -0.3729  0.0626  0.1444
16302TIP3    H170397   4.643   6.379  17.227 -1.7331 -0.2168  4.3459
16302TIP3    H270398   4.694   6.519  17.252 -1.2406 -0.1255  2.9010
16303TIP3   OH270399   3.376   6.657  15.281 -0.6316  0.2971  0.0200
16303TIP3    H170400   3.335   6.717  15.343  0.4031  0.3335  0.6825
16303TIP3    H270401   3.307   6.592  15.262 -1.5486  1.3180 -0.2249
16304TIP3   OH270402   1.417   0.732  13.782 -0.1292  0.1614 -0.3204
16304TIP3    H170403   1.442   0.685  13.862  0.6662  0.3309 -0.4642
16304TIP3    H270404   1.495   0.781  13.758 -0.2839 -0.0749 -1.3441
16305TIP3   OH270405   4.251   5.465  17.034  0.0643  0.1598 -0.4762
16305TIP3    H170406   4.244   5.510  16.950 -0.1315 -2.2100 -1.8171
16305TIP3    H270407   4.229   5.373  17.014  1.2378 -0.7260  1.9219
16306TIP3   OH270408   2.962   1.332   0.712  0.9922  0.3818  0.2603
16306TIP3    H170409   2.921   1.404   0.760 -0.3965 -0.3543  0.2472
16306TIP3    H270410   2.891   1.296   0.658  1.5128 -1.2407  0.5867
16307TIP3   OH270411   5.679   0.122   3.866 -0.1674 -0.1843 -0.1111
16307TIP3    H170412   5.655   0.030   3.879 -0.2385 -0.0268  0.9428
16307TIP3    H270413   5.775   0.122   3.863  0.1270  0.1292  3.9848
16308TIP3   OH270414   4.286   4.281  12.651 -0.2745 -0.0898 -0.1499
16308TIP3    H170415   4.220   4.264  12.719 -1.6505  2.5374 -0.6964
16308TIP3    H270416   4.275   4.209  12.589 -0.8486 -1.0812  1.0453
16309TIP3   OH270417   6.520   3.239  11.299 -0.6109  0.2086 -0.0389
16309TIP3    H170418   6.428   3.228  11.273 -0.6107 -0.8001  0.3259
16309TIP3    H270419   6.537   3.332  11.288 -1.6023  0.3674 -0.3694
16310TIP3   OH270420   3.690   3.501  15.763 -0.0417  1.0880 -0.3437
16310TIP3    H170421   3.743   3.504  15.684 -0.5589 -1.3064 -0.8633
16310TIP3    H270422   3.622   3.437  15.744 -2.3230  2.9782  0.8037
16311TIP3   OH270423   1.561   0.649   5.358 -0.0493  0.0643 -0.2357
16311TIP3    H170424   1.611   0.580   5.402  0.0001  0.2535  0.0081
16311TIP3    H270425   1.488   0.603   5.317 -0.7786  0.0367  1.0743
16312TIP3   OH270426   4.632   4.147   3.864  0.2808  0.1659  0.3153
16312TIP3    H170427   4.707   4.091   3.884  1.4145  1.9515  1.3106
16312TIP3    H270428   4.662   4.203   3.792  0.8366  2.4639  2.2088
16313TIP3   OH270429   3.841   4.993   3.638  0.5417 -0.5428 -0.0832
16313TIP3    H170430   3.761   5.044   3.648  0.0473 -1.1920 -0.5999
16313TIP3    H270431   3.812   4.902   3.641  1.3487 -0.7975  0.3667
16314TIP3   OH270432   3.885   2.419   3.215  0.3331 -0.6162  0.4599
16314TIP3    H170433   3.816   2.360   3.186 -0.1774 -0.5208  1.4704
16314TIP3    H270434   3.886   2.489   3.149  0.0284 -1.0452 -0.0045
16315TIP3   OH270435   0.494   1.794   1.588  0.7060  0.1512 -0.4904
16315TIP3    H170436   0.532   1.746   1.514 -0.5045  0.4415 -1.3162
16315TIP3    H270437   0.429   1.851   1.549 -1.0658 -0.7967  0.9372
16316TIP3   OH270438   4.269   2.190  10.294  0.2590  0.4022  0.0957
16316TIP3    H170439   4.184   2.223  10.264  1.5838  1.5020 -2.8650
16316TIP3    H270440   4.250   2.144  10.375 -2.7997  2.6024  0.8040
16317TIP3   OH270441   4.493   0.163  14.143 -0.0404 -0.3382  0.3038
16317TIP3    H170442   4.454   0.191  14.061  1.1959  1.4995  0.2899
16317TIP3    H270443   4.446   0.211  14.211  0.9088  0.4419  0.4254
16318TIP3   OH270444   1.935   0.209   0.265  0.1751 -1.2522  0.3040
16318TIP3    H170445   1.913   0.265   0.340  1.8599 -0.3071  0.1404
16318TIP3    H270446   2.020   0.172   0.286  0.7583 -0.8436 -1.2009
16319TIP3   OH270447   2.222   5.632   2.159  0.4797 -0.0758  0.3558
16319TIP3    H170448   2.199   5.707   2.105  0.3466 -0.2719  0.1392
16319TIP3    H270449   2.240   5.669   2.246 -0.0084  0.1559  0.3585
16320TIP3   OH270450   0.575   0.743  14.724  0.6021 -0.1935  0.6569
16320TIP3    H170451   0.583   0.692  14.805  0.4300 -0.7811  0.3110
16320TIP3    H270452   0.517   0.815  14.747 -1.6057 -1.7865  0.4015
16321TIP3   OH270453   4.271   1.492  13.890  0.2554  0.0396  0.3690
16321TIP3    H170454   4.203   1.446  13.940  1.1860  0.5637  2.1917
16321TIP3    H270455   4.228   1.572  13.859 -1.1540 -1.5324 -2.1894
16322TIP3   OH270456   6.213   5.111   0.985  0.0648  0.2107 -0.0118
16322TIP3    H170457   6.142   5.063   0.941 -0.9260  0.3040  1.4173
16322TIP3    H270458   6.292   5.065   0.958 -0.8035 -1.9657  0.8748
16323TIP3   OH270459   2.015   3.727  16.068  0.0242 -0.2353  0.1974
16323TIP3    H170460   2.061   3.715  15.985 -1.1818 -1.3328 -0.3381
16323TIP3    H270461   1.943   3.786  16.047 -0.1978 -0.3979  0.5008
16324TIP3   OH270462   1.508   0.743   4.590  0.0924 -0.2046 -0.0041
16324TIP3    H170463   1.544   0.679   4.651  0.0881 -0.7832 -0.6068
16324TIP3    H270464   1.567   0.818   4.596 -0.3330  0.0528  1.2769
16325TIP3   OH270465   1.733   1.615  13.631  0.1537  0.1272 -0.1902
16325TIP3    H170466   1.777   1.681  13.683 -0.5940 -0.0892  0.7381
16325TIP3    H270467   1.729   1.652  13.543  2.4723  0.0067 -0.4049
16326TIP3   OH270468   2.704   1.578   0.638 -0.2189 -0.1393 -0.0055
16326TIP3    H170469   2.661   1.504   0.596 -0.8902 -0.9070  1.9308
16326TIP3    H270470   2.792   1.579   0.600 -0.8001 -0.7188 -1.4473
16327TIP3   OH270471   4.113   5.255  14.050  0.2924 -0.0747  0.0616
16327TIP3    H170472   4.133   5.176  14.099  0.4372 -0.4391 -0.5732
16327TIP3    H270473   4.171   5.252  13.974 -0.1602  0.3082 -0.3109
16328TIP3   OH270474   1.690   1.303   0.575 -0.0387  0.0999 -0.7664
16328TIP3    H170475   1.679   1.367   0.645 -1.5468  0.8518 -1.6469
16328TIP3    H270476   1.604   1.263   0.565  0.4457 -0.8060 -1.4253
16329TIP3   OH270477   5.909   5.207  11.134 -0.6399 -0.7677  0.3699
16329TIP3    H170478   5.887   5.114  11.147  0.0969 -1.0624 -0.3957
16329TIP3    H270479   5.976   5.206  11.066  0.1570  0.2612  1.1212
16330TIP3   OH270480   4.591   2.716  11.724 -0.3865  0.4376 -0.1546
16330TIP3    H170481   4.500   2.701  11.697 -0.3570  1.8266 -1.1538
16330TIP3    H270482   4.583   2.753  11.812 -0.6757 -0.9541  0.4289
16331TIP3   OH270483   3.118   5.854  15.385  0.7301  0.2574 -0.4862
16331TIP3    H170484   3.162   5.918  15.329  1.9377  0.8009  0.9953
16331TIP3    H270485   3.103   5.902  15.467 -0.3358 -0.7218 -0.0846
16332TIP3   OH270486   1.113   0.721  15.387 -0.0455  0.3366 -0.6515
16332TIP3    H170487   1.064   0.639  15.398 -0.9605  0.9374 -0.0194
16332TIP3    H270488   1.045   0.788  15.376  0.3854  1.6457  3.0080
16333TIP3   OH270489   4.897   5.954  15.701 -0.4114  0.2301 -0.4121
16333TIP3    H170490   4.896   5.981  15.609  2.2832  0.7775 -0.3574
16333TIP3    H270491   4.811   5.979  15.735 -1.0417  1.0502 -2.4768
16334TIP3   OH270492   5.738   6.140   2.405  0.3967  0.3646  0.2943
16334TIP3    H170493   5.691   6.124   2.486  0.6126  0.7144  0.4936
16334TIP3    H270494   5.722   6.233   2.386 -0.7954 -0.0314 -0.7995
16335TIP3   OH270495   6.701   6.327  14.811  0.7547 -0.4674  0.3670
16335TIP3    H170496   6.793   6.355  14.806  0.7259 -0.6223 -2.4290
16335TIP3    H270497   6.705   6.238  14.844  1.8656 -1.2649 -1.7223
16336TIP3   OH270498   5.562   5.152  10.582  0.3053 -0.7511  0.0459
16336TIP3    H170499   5.471   5.180  10.595  0.2390 -1.0815  0.2931
16336TIP3    H270500   5.614   5.230  10.602  0.1182 -0.7929  0.7318
16337TIP3   OH270501   5.986   5.824   1.860 -0.3553  0.1617 -0.0893
16337TIP3    H170502   5.959   5.735   1.839 -1.6819  0.7315 -1.0010
16337TIP3    H270503   5.968   5.833   1.954 -0.8016 -0.3391 -0.1187
16338TIP3   OH270504   4.450   6.394   3.627  0.0189  0.9511  0.1204
16338TIP3    H170505   4.542   6.369   3.634 -0.0203  0.7026 -0.2360
16338TIP3    H270506   4.438   6.459   3.697  0.2961  0.4989  0.5951
16339TIP3   OH270507   4.648   2.888   2.263 -0.2563 -0.3677 -0.4726
16339TIP3    H170508   4.638   2.856   2.173 -0.5291  0.3553 -0.7015
16339TIP3    H270509   4.742   2.884   2.280 -0.0528  0.7942 -1.2722
16340TIP3   OH270510   1.672   4.313  14.884  0.5323  0.5281  0.0821
16340TIP3    H170511   1.754   4.363  14.886  0.6651  0.4427 -1.6379
16340TIP3    H270512   1.608   4.374  14.849 -0.0171  0.4002  0.8420
16341TIP3   OH270513   2.246   4.253   4.103 -0.4911  0.0503 -0.1082
16341TIP3    H170514   2.262   4.331   4.049 -0.3449 -1.9156 -3.1968
16341TIP3    H270515   2.329   4.205   4.098 -0.4501 -0.1714  2.0729
16342TIP3   OH270516   3.603   4.010  15.346 -0.2589 -0.0200  0.3899
16342TIP3    H170517   3.578   3.922  15.316 -2.6234  0.5276  0.5650
16342TIP3    H270518   3.540   4.068  15.304  1.4216  1.6803  0.0760
16343TIP3   OH270519   3.515   2.655   4.927 -0.7336  0.1823  0.4538
16343TIP3    H170520   3.485   2.594   4.994  1.5053 -1.0018  0.4777
16343TIP3    H270521   3.522   2.739   4.972 -0.7593 -0.2453  1.2763
16344TIP3   OH270522   2.468   4.573   2.877 -0.0521  0.1903 -0.0440
16344TIP3    H170523   2.546   4.628   2.884 -1.3218  2.1745 -0.7513
16344TIP3    H270524   2.491   4.508   2.810  1.0428  0.6100 -0.1048
16345TIP3   OH270525   5.531   1.228   3.016  0.5530  0.1511 -0.2632
16345TIP3    H170526   5.615   1.260   3.049  1.8248 -1.4791 -1.7315
16345TIP3    H270527   5.505   1.293   2.950  1.1196  0.1999 -0.4419
16346TIP3   OH270528   2.861   0.649  16.302  0.5714  0.2225  0.2393
16346TIP3    H170529   2.897   0.643  16.213  1.3689 -1.3019  0.6252
16346TIP3    H270530   2.934   0.682  16.354  1.2512 -2.1412  0.8912
16347TIP3   OH270531   5.430   1.096  12.042  0.7399  0.1550 -0.4618
16347TIP3    H170532   5.497   1.092  11.974  1.2633  2.6929 -0.1799
16347TIP3    H270533   5.455   1.171  12.096 -0.3441 -1.0167  1.8286
16348TIP3   OH270534   0.533   1.946   4.301  0.5835 -0.0443  0.3910
16348TIP3    H170535   0.526   2.039   4.323 -1.5989 -0.0816  0.0028
16348TIP3    H270536   0.598   1.943   4.230 -0.7907  1.4622 -1.0135
16349TIP3   OH270537   3.337   5.219   2.256  0.0004  0.1013 -0.7977
16349TIP3    H170538   3.385   5.138   2.268  2.1228  1.2163 -1.1958
16349TIP3    H270539   3.311   5.246   2.344  1.4117  0.1879 -0.3924
16350TIP3   OH270540   5.238   2.897   4.666  0.3305 -0.2185 -0.0537
16350TIP3    H170541   5.263   2.860   4.750  2.9286 -0.2232 -0.7455
16350TIP3    H270542   5.253   2.991   4.675 -0.9284  0.0098 -0.0564
16351TIP3   OH270543   3.955   6.056   4.609  0.3050  0.2100  0.2193
16351TIP3    H170544   3.932   5.978   4.559  0.8419 -0.2294  0.6463
16351TIP3    H270545   3.887   6.119   4.588  1.3029  0.5747 -2.2506
16352TIP3   OH270546   0.483   4.728  14.164  0.2382 -0.2949 -0.2484
16352TIP3    H170547   0.498   4.806  14.112 -0.9602  0.6493  0.7627
16352TIP3    H270548   0.409   4.684  14.122 -0.6122  0.3737  0.4949
16353TIP3   OH270549   5.476   3.011   3.626  0.5810 -0.5324 -0.4575
16353TIP3    H170550   5.394   3.034   3.670  1.4163  0.5813  0.5993
16353TIP3    H270551   5.506   2.932   3.672  1.3761  0.5418  0.9657
16354TIP3   OH270552   3.004   1.328   1.931 -0.0219 -0.4345  0.6616
16354TIP3    H170553   3.013   1.423   1.932 -0.8529 -0.3498  0.6208
16354TIP3    H270554   3.024   1.304   1.840  0.0718 -0.2887  0.6426
16355TIP3   OH270555   3.683   0.506  16.155  0.1099  0.5074 -0.1097
16355TIP3    H170556   3.751   0.571  16.174  1.1144 -0.9070  1.3955
16355TIP3    H270557   3.727   0.422  16.166 -1.6072 -0.4495 -0.2772
16356TIP3   OH270558   1.926   5.675   4.625  0.3034 -0.3460  0.3321
16356TIP3    H170559   1.993   5.727   4.581  0.4209 -0.6446  0.1508
16356TIP3    H270560   1.975   5.621   4.687  0.0852  0.4923  1.2694
16357TIP3   OH270561   6.561   4.099  12.994 -0.2221  0.1693  0.5908
16357TIP3    H170562   6.552   4.194  12.983 -2.2320  0.2077  2.0111
16357TIP3    H270563   6.502   4.061  12.930  0.0800 -0.1169  0.4762
16358TIP3   OH270564   3.273   0.798   1.935 -0.1948  0.1892  0.3620
16358TIP3    H170565   3.347   0.749   1.899 -0.3530 -0.2025  0.5701
16358TIP3    H270566   3.298   0.817   2.026  0.1943  1.1564  0.0654
16359TIP3   OH270567   5.747   0.668  16.093  0.1111  0.4335 -0.3350
16359TIP3    H170568   5.712   0.596  16.145 -1.3008  0.9806 -0.4588
16359TIP3    H270569   5.672   0.726  16.080  1.0391  1.5590 -0.8576
16360TIP3   OH270570   0.582   0.752   4.829  0.1049  0.5033 -0.2195
16360TIP3    H170571   0.562   0.702   4.750 -0.7444 -0.2772  0.4605
16360TIP3    H270572   0.550   0.840   4.811  1.0265  0.6523 -1.1939
16361TIP3   OH270573   3.904   1.785   3.453 -1.0406  0.5781 -0.4685
16361TIP3    H170574   3.844   1.711   3.458 -0.8018  0.4862  2.0450
16361TIP3    H270575   3.920   1.810   3.544  3.0738  0.3360 -0.9289
16362TIP3   OH270576   1.501   1.945  16.609 -0.5492 -0.4793 -0.2034
16362TIP3    H170577   1.411   1.954  16.577 -0.9608 -2.4966  0.2489
16362TIP3    H270578   1.543   2.027  16.584 -2.5037  0.5296 -0.4182
16363TIP3   OH270579   2.285   2.354   0.787  0.0661 -0.3346 -0.3077
16363TIP3    H170580   2.198   2.346   0.748  0.5445  0.9521 -1.7189
16363TIP3    H270581   2.269   2.393   0.873 -0.6934  0.9891 -1.0120
16364TIP3   OH270582   4.779   4.413   2.890  0.2263 -0.1875  0.1389
16364TIP3    H170583   4.865   4.455   2.891 -0.4024  1.4540 -2.8034
16364TIP3    H270584   4.784   4.349   2.819 -1.1576  0.3981 -0.5219
16365TIP3   OH270585   2.691   2.149  12.258  0.6209  0.0299 -0.1930
16365TIP3    H170586   2.732   2.224  12.300 -1.5707  1.1955  0.0044
16365TIP3    H270587   2.604   2.144  12.297 -0.4609 -0.5994 -2.4892
16366TIP3   OH270588   6.525   6.577   2.616  0.0823 -0.2567  0.3967
16366TIP3    H170589   6.537   6.491   2.577  1.2652 -0.3884  1.0023
16366TIP3    H270590   6.585   6.634   2.568 -1.5787  0.5559 -0.8586
16367TIP3   OH270591   1.975   4.853   2.999 -0.3199  0.1357 -0.4205
16367TIP3    H170592   1.995   4.759   3.000 -0.7941  0.0294 -0.2677
16367TIP3    H270593   1.889   4.859   3.042 -0.4539  0.5999 -0.7497
16368TIP3   OH270594   4.411   0.488   4.004  0.1878  0.1106 -0.2579
16368TIP3    H170595   4.324   0.500   4.040 -0.1166 -0.7694 -0.6785
16368TIP3    H270596   4.410   0.400   3.966  2.2375 -1.2382  2.4740
16369TIP3   OH270597   2.290   2.172  10.962 -0.2836 -0.3558  0.1007
16369TIP3    H170598   2.195   2.162  10.953 -0.1868 -0.4839 -0.9167
16369TIP3    H270599   2.311   2.248  10.907 -0.0143  0.8325  1.7623
16370TIP3   OH270600   4.778   3.338   6.371  0.3075  0.5628 -0.5531
16370TIP3    H170601   4.809   3.425   6.397  2.5344 -0.5144  0.5743
16370TIP3    H270602   4.811   3.327   6.282  1.0024  0.4271 -0.2807
16371TIP3   OH270603   3.584   3.742   5.639 -0.5035 -0.1007  0.5802
16371TIP3    H170604   3.640   3.722   5.715  0.4242 -0.8229 -0.2723
16371TIP3    H270605   3.524   3.667   5.633  1.6046 -1.7736 -1.3518
16372TIP3   OH270606   3.500   0.232  14.017 -0.4628 -0.4690 -0.4049
16372TIP3    H170607   3.556   0.234  14.095 -0.9471  1.4368 -0.0474
16372TIP3    H270608   3.554   0.191  13.949  1.1183  0.6784  0.1170
16373TIP3   OH270609   4.232   1.199   1.261 -0.0751 -0.5888 -0.1006
16373TIP3    H170610   4.146   1.238   1.277  0.2627 -0.2093  0.8858
16373TIP3    H270611   4.288   1.236   1.329  0.9661 -0.5571 -0.9424
16374TIP3   OH270612   4.531   4.880   1.669  0.1872 -0.1379 -0.5330
16374TIP3    H170613   4.485   4.796   1.677 -1.3007  0.6167 -0.8708
16374TIP3    H270614   4.509   4.911   1.581  0.8520  0.5318 -0.4656
16375TIP3   OH270615   4.569   3.390   5.920 -0.1219 -0.4071  0.2607
16375TIP3    H170616   4.539   3.398   6.011  1.7195 -0.8399  0.9433
16375TIP3    H270617   4.633   3.320   5.922 -0.1725 -0.5280 -1.4307
16376TIP3   OH270618   0.764   6.424   3.214 -0.5923  0.7145  0.1048
16376TIP3    H170619   0.740   6.337   3.246 -0.7583  1.0925  1.0283
16376TIP3    H270620   0.836   6.452   3.271  0.3690  0.6396 -1.0338
16377TIP3   OH270621   3.756   4.316   2.843 -0.2564 -0.3153 -0.1933
16377TIP3    H170622   3.798   4.252   2.901  2.3378  0.5022 -1.0525
16377TIP3    H270623   3.685   4.267   2.802  0.3984 -2.0797  0.6549
16378TIP3   OH270624   0.453   4.863   2.153 -0.0099  0.1920  0.6671
16378TIP3    H170625   0.413   4.784   2.190 -0.6427 -0.2146 -0.8341
16378TIP3    H270626   0.400   4.883   2.076  1.7723  0.5017 -0.5377
16379TIP3   OH270627   5.402   2.959  14.208  0.1641  0.1487 -0.6360
16379TIP3    H170628   5.461   3.028  14.178 -0.5756  1.4368  0.7352
16379TIP3    H270629   5.366   2.993  14.289 -2.3771 -0.6447 -1.3592
16380TIP3   OH270630   0.082   2.632  12.407 -0.1313 -0.1030  0.1370
16380TIP3    H170631   0.086   2.701  12.473 -1.1407  0.1499 -0.0498
16380TIP3    H270632  -0.003   2.590  12.421 -0.4699  0.1133 -1.1421
16381TIP3   OH270633   2.066   5.114   4.406  0.4378 -0.2405 -0.7477
16381TIP3    H170634   1.974   5.109   4.380  0.4051 -1.4055 -0.4876
16381TIP3    H270635   2.111   5.143   4.327  0.2926 -3.3550 -2.1386
16382TIP3   OH270636   4.969   5.451  15.035  0.1314 -0.3728  0.1800
16382TIP3    H170637   4.906   5.523  15.035 -0.0242 -0.5016 -0.6182
16382TIP3    H270638   5.052   5.492  15.056  0.4121  0.3949 -2.1529
16383TIP3   OH270639   3.412   0.252  15.481 -0.2797  0.1505  0.2242
16383TIP3    H170640   3.488   0.307  15.462  1.0419 -1.6578  0.0061
16383TIP3    H270641   3.405   0.255  15.577  0.6979 -0.4386  0.3288
16384TIP3   OH270642   6.092   3.048   1.933 -0.2557  0.0121  0.6985
16384TIP3    H170643   6.013   3.048   1.879 -0.6188  1.0460  1.2083
16384TIP3    H270644   6.060   3.049   2.023  0.3477 -0.1550  0.9229
16385TIP3   OH270645   4.825   2.119  11.636  0.1967  0.5002  0.0829
16385TIP3    H170646   4.776   2.201  11.625 -0.4678 -0.0740 -1.5811
16385TIP3    H270647   4.796   2.086  11.720 -2.1593  0.3183 -0.7043
16386TIP3   OH270648   1.519   3.895  12.448  0.0131  0.0622 -0.0820
16386TIP3    H170649   1.437   3.926  12.410  0.6262  0.4235 -1.1472
16386TIP3    H270650   1.535   3.955  12.521 -0.9616 -0.3717  0.5020
16387TIP3   OH270651   1.683   2.079  13.487 -0.2495  0.0074 -0.7443
16387TIP3    H170652   1.707   2.139  13.558  0.4650  0.5104 -1.3887
16387TIP3    H270653   1.766   2.062  13.442 -0.9257  1.0198 -2.4688
16388TIP3   OH270654   5.564   3.253   6.056  0.4102 -0.2498  0.4350
16388TIP3    H170655   5.553   3.259   6.151 -1.3270 -0.2930  0.2688
16388TIP3    H270656   5.659   3.263   6.042  0.4259  2.7627  1.9531
16389TIP3   OH270657   0.358   1.909  15.586  0.2213  0.8759 -0.2085
16389TIP3    H170658   0.356   1.849  15.512  0.6067  1.0288 -0.3466
16389TIP3    H270659   0.412   1.983  15.556  0.9788  0.6210  0.4639
16390TIP3   OH270660   5.834   2.474  16.650  0.4236  0.1343 -0.1076
16390TIP3    H170661   5.858   2.561  16.618 -0.3183  0.1822 -0.5548
16390TIP3    H270662   5.739   2.473  16.647  0.4399 -1.1442 -1.3412
16391TIP3   OH270663   5.401   6.280   0.032 -0.4934 -0.4308  0.0139
16391TIP3    H170664   5.375   6.290   0.124 -2.5039  0.6862 -0.6044
16391TIP3    H270665   5.328   6.233  -0.008  0.2226 -0.6275 -1.0885
16392TIP3   OH270666   3.251   2.279  10.582  0.0009 -0.1760 -0.4414
16392TIP3    H170667   3.207   2.361  10.561 -0.3270 -0.1877  0.1667
16392TIP3    H270668   3.257   2.232  10.499  1.1469  0.9033 -1.0066
16393TIP3   OH270669   4.908   3.081  13.384  0.1204 -0.6142  0.7696
16393TIP3    H170670   4.896   3.021  13.311  0.5569 -0.9560  0.9764
16393TIP3    H270671   4.971   3.038  13.441  0.5611  0.1040  0.8451
16394TIP3   OH270672   3.996   1.103  11.748 -0.0892 -0.4415 -0.3912
16394TIP3    H170673   3.991   1.009  11.765 -0.8145 -0.3310  0.0157
16394TIP3    H270674   4.069   1.112  11.686  0.7003 -1.1500  0.3987
16395TIP3   OH270675   5.116   2.458   6.153  0.1110  0.1104 -0.4516
16395TIP3    H170676   5.064   2.470   6.074  0.6991  2.1328 -0.5958
16395TIP3    H270677   5.203   2.492   6.130  0.7297 -0.6939  0.5996
16396TIP3   OH270678   4.104   5.778   2.282  0.5166 -0.4817 -0.5958
16396TIP3    H170679   4.177   5.724   2.252  2.5338  1.7069  0.0618
16396TIP3    H270680   4.098   5.849   2.219 -0.5372 -0.1720 -0.1787
16397TIP3   OH270681   0.902   2.177  13.970 -0.2834  0.4196  0.2331
16397TIP3    H170682   0.892   2.087  13.938  1.0465  0.0574  0.8195
16397TIP3    H270683   0.886   2.171  14.064  2.6486  0.2373  0.8035
16398TIP3   OH270684   0.620   1.317   3.431 -0.4385 -0.3949  0.3442
16398TIP3    H170685   0.558   1.383   3.461 -0.4865 -0.1158 -0.3485
16398TIP3    H270686   0.683   1.309   3.503  1.0840  2.3400 -0.5566
16399TIP3   OH270687   6.609   5.271   5.584 -0.5600 -0.1332  0.1111
16399TIP3    H170688   6.577   5.313   5.505 -2.5712 -0.9588  0.4398
16399TIP3    H270689   6.593   5.335   5.654  1.4425  0.6977 -0.1245
16400TIP3   OH270690   3.100   0.131  14.685  0.4434 -0.1184  0.3144
16400TIP3    H170691   3.153   0.058  14.718  1.2360  0.9451  1.5172
16400TIP3    H270692   3.165   0.198  14.662 -0.3204  0.6600  0.3985
16401TIP3   OH270693   4.753   2.917   5.503  0.2524 -0.2766  0.3995
16401TIP3    H170694   4.711   2.888   5.585  2.3171 -0.6611  1.3819
16401TIP3    H270695   4.831   2.964   5.532  0.8609 -0.1494 -1.3619
16402TIP3   OH270696   1.966   3.841  14.886 -0.4133 -0.1728  0.0049
16402TIP3    H170697   1.954   3.927  14.845 -0.2312 -0.4148 -0.5595
16402TIP3    H270698   1.893   3.835  14.949 -0.1729  0.5723  0.3665
16403TIP3   OH270699   0.915   6.132   3.001 -0.2800 -0.5482 -0.0794
16403TIP3    H170700   0.909   6.046   3.043  1.0987  0.1975  1.7811
16403TIP3    H270701   0.986   6.122   2.937  0.1963 -0.6818  0.4598
16404TIP3   OH270702   4.391   5.236   1.707  0.5095  0.3562  0.3629
16404TIP3    H170703   4.349   5.155   1.734  2.4280 -0.2549  1.7813
16404TIP3    H270704   4.406   5.284   1.788  3.3133  0.0886  0.1094
16405TIP3   OH270705   4.473   6.798  13.597 -0.1756  0.4324 -0.5013
16405TIP3    H170706   4.417   6.863  13.640 -1.9668 -1.3587  0.0436
16405TIP3    H270707   4.540   6.778  13.662  0.0961  1.3296 -0.4862
16406TIP3   OH270708   5.065   5.220  14.024 -0.2810  0.1468  0.2590
16406TIP3    H170709   5.005   5.152  13.992 -2.4713  1.2282  1.8067
16406TIP3    H270710   5.090   5.268  13.945 -0.4098 -1.1003 -0.5841
16407TIP3   OH270711   3.925   1.709   0.103  0.2767 -1.0610  0.2929
16407TIP3    H170712   4.016   1.726   0.129 -0.1776 -0.1570  1.3884
16407TIP3    H270713   3.890   1.795   0.081 -0.7035 -1.2045  1.2307
16408TIP3   OH270714   3.109   0.518   6.016 -0.0740  0.4395  0.3565
16408TIP3    H170715   3.089   0.427   5.992  1.1747  0.2075  0.1535
16408TIP3    H270716   3.058   0.570   5.955 -1.9123 -0.0870  1.3666
16409TIP3   OH270717   2.550   3.136   1.956 -0.0968 -0.0374 -0.0771
16409TIP3    H170718   2.610   3.070   1.990 -0.0608 -1.2312 -2.3163
16409TIP3    H270719   2.491   3.154   2.030  1.9327 -0.0617  1.6299
16410TIP3   OH270720   6.740   3.109   4.756  0.4895 -0.2018  0.3220
16410TIP3    H170721   6.724   3.133   4.665 -2.3965  1.3241  1.1152
16410TIP3    H270722   6.803   3.173   4.787 -0.7846  1.1966  0.1420
16411TIP3   OH270723   0.311   6.756  10.485 -0.2511  0.6415  0.1325
16411TIP3    H170724   0.310   6.812  10.407 -2.0639  0.2573 -0.1740
16411TIP3    H270725   0.238   6.788  10.538  0.7767  0.7087  1.5714
16412TIP3   OH270726   5.899   5.943  17.233  0.2075  0.4558 -0.6101
16412TIP3    H170727   5.949   5.886  17.175 -0.1972  2.0418 -2.6530
16412TIP3    H270728   5.848   5.883  17.288  0.7697 -1.1364 -1.7546
16413TIP3   OH270729   1.796   3.672   2.233  0.2323 -0.0842  0.6263
16413TIP3    H170730   1.734   3.599   2.222  1.7794 -1.2334 -1.1955
16413TIP3    H270731   1.745   3.750   2.214 -0.7083 -0.9768 -0.6652
16414TIP3   OH270732   1.852   3.474   3.855  0.0245  0.2526  0.1914
16414TIP3    H170733   1.799   3.532   3.909  1.1206 -0.4992  2.2166
16414TIP3    H270734   1.941   3.508   3.864  0.3200 -0.2561 -0.6815
16415TIP3   OH270735   0.602   0.877  12.300  0.0508 -0.5795  0.2290
16415TIP3    H170736   0.651   0.864  12.219  0.2957 -0.8076  0.4133
16415TIP3    H270737   0.511   0.862  12.276  0.1205 -0.6273 -0.0078
16416TIP3   OH270738   2.302   5.510  14.668 -0.1509  0.4422 -0.3022
16416TIP3    H170739   2.392   5.542  14.662  0.2708 -0.9023 -1.6396
16416TIP3    H270740   2.256   5.553  14.595 -0.0355 -0.5388 -0.9680
16417TIP3   OH270741   5.332   5.895  16.754  0.0001 -0.0631 -0.1270
16417TIP3    H170742   5.370   5.979  16.728 -0.0448  0.0511  0.1692
16417TIP3    H270743   5.258   5.918  16.810 -0.5611 -0.2821 -0.7571
16418TIP3   OH270744   3.454   5.716   5.498  0.2510  0.1058 -1.0736
16418TIP3    H170745   3.401   5.726   5.577  1.7244 -0.8302  0.0937
16418TIP3    H270746   3.429   5.790   5.443 -1.4093  0.3279 -0.1024
16419TIP3   OH270747   1.874   1.010   6.643 -0.2095 -0.3193  0.3607
16419TIP3    H170748   1.860   1.105   6.645  1.9803  0.0632  0.1102
16419TIP3    H270749   1.796   0.975   6.602 -0.1582  1.5906 -1.5204
16420TIP3   OH270750   4.586   3.135   2.695 -0.2113 -0.1446 -0.5141
16420TIP3    H170751   4.582   3.105   2.785  0.6906 -0.4912 -0.5844
16420TIP3    H270752   4.603   3.229   2.702  2.7330 -0.5975 -0.2934
16421TIP3   OH270753   3.857   5.077  12.000 -0.3695 -0.0144 -0.3092
16421TIP3    H170754   3.877   5.170  12.002 -1.4774  0.2340 -0.2070
16421TIP3    H270755   3.899   5.042  12.078 -1.4982  0.7533  0.6919
16422TIP3   OH270756   3.222   6.605  12.759  0.3897 -0.1649  0.2661
16422TIP3    H170757   3.185   6.615  12.847  2.5926 -0.6887  1.3485
16422TIP3    H270758   3.153   6.562  12.708 -1.1570  0.6680  1.5628
16423TIP3   OH270759   3.928   4.448  13.826  0.7113  0.5990  0.4373
16423TIP3    H170760   3.877   4.440  13.906  0.8366 -0.7304  0.3957
16423TIP3    H270761   3.933   4.359  13.791  1.4422  1.0123 -0.5630
16424TIP3   OH270762   4.437   0.413  12.740 -0.3803 -0.1319  0.5040
16424TIP3    H170763   4.422   0.331  12.692  1.0509 -1.0908  1.5998
16424TIP3    H270764   4.520   0.399  12.784 -0.2455  1.8445  0.9354
16425TIP3   OH270765   3.167   2.635   0.565 -0.4808  0.2042 -0.2941
16425TIP3    H170766   3.221   2.556   0.562  0.3844  0.7992 -1.0335
16425TIP3    H270767   3.077   2.603   0.557 -0.2052 -0.7555  0.2845
16426TIP3   OH270768   0.165   3.096  10.221 -0.2107  0.5763  0.3530
16426TIP3    H170769   0.207   3.181  10.208  0.2627 -0.0088 -2.6421
16426TIP3    H270770   0.075   3.109  10.191 -0.6532  0.4171  1.5531
16427TIP3   OH270771   0.836   6.160   2.107  0.1988  0.3172 -0.3918
16427TIP3    H170772   0.920   6.140   2.067 -0.0437  1.0031 -1.2972
16427TIP3    H270773   0.835   6.112   2.189  1.3900  0.1505 -0.4679
16428TIP3   OH270774   3.806   0.093  15.967  0.2200 -0.3304  0.1560
16428TIP3    H170775   3.876   0.131  15.914  0.0238 -0.3275 -0.1049
16428TIP3    H270776   3.807   0.144  16.048  2.3397 -2.0967  1.3577
16429TIP3   OH270777   1.589   0.794  16.956 -0.3915  0.2300 -0.3693
16429TIP3    H170778   1.586   0.851  16.879 -0.8915  1.1839  0.3550
16429TIP3    H270779   1.675   0.811  16.995 -0.6292  0.6444 -0.0294
16430TIP3   OH270780   1.511   0.952   0.285 -0.1645  0.0223 -0.3756
16430TIP3    H170781   1.602   0.940   0.309 -0.0887  0.7135 -0.3041
16430TIP3    H270782   1.509   1.036   0.239 -0.8528  0.2591  0.0784
16431TIP3   OH270783   6.004   0.382   3.786 -0.1880  0.2784 -0.6892
16431TIP3    H170784   5.961   0.306   3.749 -1.4728 -0.4339  2.0383
16431TIP3    H270785   5.987   0.453   3.723 -1.8257 -0.9159 -1.6516
16432TIP3   OH270786   3.335   6.593   1.276 -0.2204  0.2974  0.4334
16432TIP3    H170787   3.294   6.553   1.353 -1.1962  0.9171  0.2477
16432TIP3    H270788   3.382   6.669   1.310 -0.2529  0.2954  0.4829
16433TIP3   OH270789   2.836   1.328   5.053  0.0233  0.4660 -0.2661
16433TIP3    H170790   2.774   1.270   5.097  1.4569 -0.3388  0.7593
16433TIP3    H270791   2.785   1.406   5.034 -1.0885  0.2089  1.3927
16434TIP3   OH270792   0.895   0.066  13.277  0.1974 -0.0961  0.0533
16434TIP3    H170793   0.964   0.054  13.211 -0.7190 -0.0186 -0.9504
16434TIP3    H270794   0.924   0.014  13.352  2.5349  1.8535  0.6117
16435TIP3   OH270795   4.201   3.536  16.709 -0.4526  0.1192 -0.4776
16435TIP3    H170796   4.119   3.495  16.737  0.6186 -1.5275  0.4477
16435TIP3    H270797   4.258   3.462  16.687  0.9124  1.2064 -0.7226
16436TIP3   OH270798   0.479   4.970  14.430  0.1125  0.6446  0.2090
16436TIP3    H170799   0.537   4.897  14.406  1.1283  0.2375  3.3203
16436TIP3    H270800   0.537   5.046  14.432  0.6465  0.3034  2.9613
16437TIP3   OH270801   2.164   1.353  13.882 -0.2759 -0.0884  0.4059
16437TIP3    H170802   2.103   1.280  13.869 -2.0637  0.5618  3.9114
16437TIP3    H270803   2.223   1.323  13.951 -1.3390  1.7932  2.2580
16438TIP3   OH270804   6.279   6.280  16.076  1.0790 -0.0228  0.1874
16438TIP3    H170805   6.189   6.287  16.045  0.7161  3.1594  1.5588
16438TIP3    H270806   6.330   6.255  15.998 -1.1036 -4.3605 -0.1327
16439TIP3   OH270807   4.011   3.216   5.381 -0.0121 -0.7056 -0.1773
16439TIP3    H170808   4.030   3.150   5.314  1.8477 -0.1550 -0.2577
16439TIP3    H270809   4.089   3.215   5.438  0.2600  1.6646 -0.4076
16440TIP3   OH270810   5.342   1.433  14.212  0.3722 -0.1315  0.2754
16440TIP3    H170811   5.416   1.372  14.206  1.2779  0.9880 -0.3087
16440TIP3    H270812   5.315   1.446  14.121  0.4597  0.6555  0.3565
16441TIP3   OH270813   0.224   4.960   3.780  0.6999  0.1820 -0.0429
16441TIP3    H170814   0.220   4.997   3.691 -1.0460 -0.5187 -0.2886
16441TIP3    H270815   0.314   4.977   3.808  1.5382 -0.2268 -2.2329
16442TIP3   OH270816   4.733   1.617  14.117  1.1180 -0.1750  0.1347
16442TIP3    H170817   4.694   1.560  14.050 -0.4238  1.6464 -0.5943
16442TIP3    H270818   4.693   1.588  14.199 -1.5661  1.2977 -0.5252
16443TIP3   OH270819   4.633   2.447  13.777 -0.3580 -0.3208 -0.4706
16443TIP3    H170820   4.587   2.474  13.856  1.3129 -1.2157  0.8810
16443TIP3    H270821   4.564   2.433  13.712 -1.7041  1.2522  0.5586
16444TIP3   OH270822   3.589   5.078   5.912 -0.3865  0.1410 -0.3173
16444TIP3    H170823   3.684   5.082   5.900  0.2014 -1.7235  2.6587
16444TIP3    H270824   3.574   5.118   5.998 -2.1370 -0.7806 -0.1545
16445TIP3   OH270825   5.175   3.254   2.223  0.3517  0.1460  0.1810
16445TIP3    H170826   5.130   3.212   2.297 -1.8477  0.6409 -0.8200
16445TIP3    H270827   5.258   3.285   2.261 -0.0100 -0.9667  2.0491
16446TIP3   OH270828   0.913   0.489  15.762 -0.2683 -0.4324 -0.1717
16446TIP3    H170829   0.844   0.535  15.714 -1.1885 -2.1241 -0.5708
16446TIP3    H270830   0.881   0.485  15.852 -0.3619 -0.6247 -0.2140
16447TIP3   OH270831   5.021   0.613  11.410 -0.1492 -0.1022  0.2342
16447TIP3    H170832   4.937   0.654  11.429  0.0633  0.6517 -0.3803
16447TIP3    H270833   5.076   0.686  11.379  0.4454 -0.7471 -0.2474
16448TIP3   OH270834   5.901   0.560  12.789 -0.0637  0.1448 -0.4226
16448TIP3    H170835   5.889   0.512  12.871  0.2328 -2.6376 -1.8803
16448TIP3    H270836   5.812   0.572  12.755 -0.0938 -0.4094 -0.5595
16449TIP3   OH270837   3.786   6.703  15.099  0.1090  0.0431  0.4280
16449TIP3    H170838   3.746   6.728  15.183 -0.2590  1.1705 -0.0622
16449TIP3    H270839   3.723   6.732  15.034  0.6204 -0.3814 -0.2585
16450TIP3   OH270840   4.317   3.635  12.902  0.0087  0.4245 -0.0864
16450TIP3    H170841   4.239   3.689  12.917  0.6438  0.9796  1.4396
16450TIP3    H270842   4.286   3.561  12.850 -1.2742  1.2748 -0.5722
16451TIP3   OH270843   3.436   3.722   0.617  0.1809 -0.5109  0.2849
16451TIP3    H170844   3.512   3.760   0.660 -0.1810 -0.9356  1.3446
16451TIP3    H270845   3.361   3.757   0.665 -0.3305  0.2087 -0.9859
16452TIP3   OH270846   1.218   0.294  13.659 -0.5645 -0.0897  0.3080
16452TIP3    H170847   1.144   0.268  13.713 -0.2444  1.9391  1.8212
16452TIP3    H270848   1.260   0.366  13.707  2.2550 -0.9850 -0.5899
16453TIP3   OH270849   1.915   2.959  11.560 -0.1106  0.0647  0.0806
16453TIP3    H170850   1.848   2.895  11.534  0.0043 -0.3772  0.8337
16453TIP3    H270851   1.865   3.034  11.591 -0.2465  0.2322 -0.5228
16454TIP3   OH270852   3.310   1.960  12.315 -0.0603 -0.2352 -0.4705
16454TIP3    H170853   3.259   1.917  12.246 -2.6156  0.7030  0.6981
16454TIP3    H270854   3.271   2.048  12.321  1.5267  0.4234  0.7417
16455TIP3   OH270855   6.323   4.137  16.565 -0.0865 -0.0212 -0.0172
16455TIP3    H170856   6.227   4.146  16.566 -0.1555  0.4798 -2.8457
16455TIP3    H270857   6.343   4.106  16.477  2.3578 -0.6171  0.6743
16456TIP3   OH270858   2.609   5.105  15.834 -0.3060  0.4446 -0.1080
16456TIP3    H170859   2.540   5.159  15.794 -1.2036 -0.1579  0.5843
16456TIP3    H270860   2.650   5.162  15.898 -0.5110  0.6514 -0.1575
16457TIP3   OH270861   2.828   3.250   1.342  0.6061 -0.3782 -0.0613
16457TIP3    H170862   2.868   3.269   1.427 -0.1672 -2.7871  0.9471
16457TIP3    H270863   2.901   3.219   1.288  0.8533 -0.2921  0.2180
16458TIP3   OH270864   1.471   2.341  10.227  0.6641  0.5621  0.0180
16458TIP3    H170865   1.516   2.267  10.187 -1.1317 -1.7840  2.0370
16458TIP3    H270866   1.389   2.349  10.176 -0.0397 -0.1804  0.9976
16459TIP3   OH270867   4.814   1.537  16.549  0.4215  0.8736 -0.1844
16459TIP3    H170868   4.800   1.443  16.555 -0.0815  1.0200  1.3819
16459TIP3    H270869   4.885   1.555  16.611  1.5299  1.3606 -1.5260
16460TIP3   OH270870   3.739   5.470   4.542 -0.2548 -0.0148 -0.0485
16460TIP3    H170871   3.657   5.462   4.590 -0.7889  0.2282 -0.9071
16460TIP3    H270872   3.786   5.389   4.561 -0.7910 -0.2514  0.2754
16461TIP3   OH270873   3.408   5.868  12.979  0.4428 -0.1291 -0.1788
16461TIP3    H170874   3.416   5.857  12.884 -0.0107 -0.1814 -0.2113
16461TIP3    H270875   3.495   5.847  13.012  1.0351  1.3317 -0.7099
16462TIP3   OH270876   1.826   2.640  15.065 -0.0191 -0.1628  0.3432
16462TIP3    H170877   1.843   2.591  15.146  1.2815  0.2918  0.3597
16462TIP3    H270878   1.730   2.637  15.055 -0.1023 -1.2182  1.2657
16463TIP3   OH270879   2.239   1.497  12.599 -0.1416 -0.2307 -0.0771
16463TIP3    H170880   2.319   1.510  12.649 -0.3564 -1.4779  0.6306
16463TIP3    H270881   2.169   1.532  12.655 -0.4824 -2.3907  0.9310
16464TIP3   OH270882   1.863   5.748  17.057  0.4631  0.1224  0.2732
16464TIP3    H170883   1.839   5.825  17.005  2.5706  0.5280 -0.1715
16464TIP3    H270884   1.799   5.682  17.031 -0.5712  1.3146 -0.3370
16465TIP3   OH270885   6.135   6.807   3.172  0.4964  0.8770  0.3850
16465TIP3    H170886   6.179   6.811   3.088  0.7010 -0.2794  0.4111
16465TIP3    H270887   6.153   6.718   3.204 -1.1912  0.6380  0.7527
16466TIP3   OH270888   6.207   0.813   4.121 -0.5524 -0.4104  0.4973
16466TIP3    H170889   6.204   0.717   4.111  0.7715 -0.2341 -2.5732
16466TIP3    H270890   6.227   0.846   4.034  0.4142  2.6436  1.7337
16467TIP3   OH270891   6.157   6.601  14.380 -0.4999 -0.2984  0.0566
16467TIP3    H170892   6.225   6.572  14.442 -1.2782 -1.6912  0.3251
16467TIP3    H270893   6.125   6.683  14.417  0.3041 -0.1666  0.5025
16468TIP3   OH270894   2.701   2.696   4.925  0.5064 -0.3968 -0.5269
16468TIP3    H170895   2.629   2.681   4.986 -0.0033 -1.0725 -1.2777
16468TIP3    H270896   2.765   2.746   4.975 -1.6318  2.7046 -0.6024
16469TIP3   OH270897   6.164   1.808   0.181 -0.6710 -0.4906  0.4872
16469TIP3    H170898   6.213   1.747   0.236  0.8022  0.0818 -0.1366
16469TIP3    H270899   6.167   1.891   0.229  0.1608 -0.1207 -0.1902
16470TIP3   OH270900   1.522   0.931   5.222  0.1495 -0.4530  0.8141
16470TIP3    H170901   1.539   0.841   5.251 -0.0330 -0.6758  0.2362
16470TIP3    H270902   1.440   0.955   5.265  0.7729 -0.1502  1.8730
16471TIP3   OH270903   6.751   0.659   4.434 -0.3967 -0.0306 -0.3339
16471TIP3    H170904   6.772   0.748   4.463  0.6617 -0.2845 -0.3086
16471TIP3    H270905   6.778   0.657   4.342 -0.5352 -0.2918 -0.3689
16472TIP3   OH270906   1.950   5.533   2.321  0.5463  0.4186  0.0868
16472TIP3    H170907   1.913   5.445   2.308 -0.5681  0.8359  0.3686
16472TIP3    H270908   1.987   5.555   2.235 -1.2786  0.6192 -0.7064
16473TIP3   OH270909   0.563   2.516  13.233  0.1428 -0.4215  0.0518
16473TIP3    H170910   0.527   2.446  13.288  1.3155 -0.6754  0.5362
16473TIP3    H270911   0.628   2.559  13.290  2.4869 -1.6253 -1.5515
16474TIP3   OH270912   0.582   5.759  16.768  0.3006 -0.2700 -0.3280
16474TIP3    H170913   0.565   5.836  16.822 -0.6687 -1.2151  0.7659
16474TIP3    H270914   0.676   5.762  16.751  0.2300  1.3282 -0.6267
16475TIP3   OH270915   2.714   4.813  12.739 -0.2263 -0.1645  0.2985
16475TIP3    H170916   2.676   4.803  12.826  0.7875 -1.3532  0.6297
16475TIP3    H270917   2.790   4.755  12.739  1.0760  1.4437 -0.6436
16476TIP3   OH270918   5.013   0.606   1.889 -0.1543  0.8798  0.7994
16476TIP3    H170919   5.086   0.547   1.907  0.2461  1.3782  0.8507
16476TIP3    H270920   4.935   0.552   1.898  0.1271  0.6573  2.1474
16477TIP3   OH270921   3.672   6.610  13.773  0.1098 -0.0906 -0.2445
16477TIP3    H170922   3.620   6.562  13.837 -1.3269 -2.2285 -2.8190
16477TIP3    H270923   3.646   6.701  13.784  0.2780 -0.2732  2.4183
16478TIP3   OH270924   5.614   2.369  14.987  0.1701  0.5163 -0.4000
16478TIP3    H170925   5.582   2.459  14.977  1.1477  1.0907  1.2209
16478TIP3    H270926   5.658   2.369  15.072  0.4021 -1.4456 -0.4851
16479TIP3   OH270927   2.886   4.357   0.292 -0.1528  0.3807 -0.0110
16479TIP3    H170928   2.821   4.299   0.332 -0.6344  0.7339 -0.2708
16479TIP3    H270929   2.931   4.397   0.367 -1.1560  1.1588  0.1985
16480TIP3   OH270930   5.221   4.747  12.547  0.2238 -0.0789 -0.0418
16480TIP3    H170931   5.165   4.749  12.469  0.4367 -1.5119 -0.2702
16480TIP3    H270932   5.161   4.762  12.620 -0.3639 -0.8979 -0.3400
16481TIP3   OH270933   5.480   1.057  16.226 -0.0807  0.0208  0.0985
16481TIP3    H170934   5.466   1.125  16.160 -2.0638 -0.5611 -0.1456
16481TIP3    H270935   5.535   0.992  16.182  2.4196  1.6910  0.5554
16482TIP3   OH270936   1.298   0.261   0.789 -0.4538 -0.2691  0.1006
16482TIP3    H170937   1.224   0.295   0.840 -1.3061 -0.5885 -0.8693
16482TIP3    H270938   1.267   0.176   0.756  0.4122 -0.4815 -0.2000
16483TIP3   OH270939   0.560   3.855  16.866  0.8135  0.0195 -0.6541
16483TIP3    H170940   0.627   3.916  16.898  0.2620 -0.3150  1.3279
16483TIP3    H270941   0.608   3.774  16.849  1.0784  0.0713 -0.1896
16484TIP3   OH270942   4.943   3.110   1.767  0.5694  0.7375  0.4011
16484TIP3    H170943   4.866   3.069   1.729 -0.4893  2.0259  1.0718
16484TIP3    H270944   4.973   3.173   1.701 -0.0573  1.5234  0.8445
16485TIP3   OH270945   4.018   1.252   1.439  0.4051 -0.4034 -0.4278
16485TIP3    H170946   3.928   1.248   1.471  0.9509  1.0669  1.4085
16485TIP3    H270947   4.058   1.170   1.470  0.5242  0.3491  1.5446
16486TIP3   OH270948   5.157   2.352  12.758 -0.3794  0.6409 -0.1905
16486TIP3    H170949   5.148   2.444  12.784 -2.1597  0.2857  0.6193
16486TIP3    H270950   5.183   2.307  12.838 -1.6603  0.1577 -0.0150
16487TIP3   OH270951   1.905   4.664   0.836  0.1708 -0.9824  0.0369
16487TIP3    H170952   1.931   4.751   0.804 -0.7636 -0.6056  0.2683
16487TIP3    H270953   1.980   4.608   0.817  0.3570 -0.3706 -1.1692
16488TIP3   OH270954   5.460   1.545   6.755  0.0949  0.3370  0.8746
16488TIP3    H170955   5.534   1.569   6.699 -0.4592  2.0416  0.8158
16488TIP3    H270956   5.471   1.451   6.771  2.3917  0.6039  1.0864
16489TIP3   OH270957   6.377   0.477  12.261  1.0788 -0.3105 -0.6650
16489TIP3    H170958   6.413   0.563  12.239  2.1441 -0.8744 -1.2110
16489TIP3    H270959   6.283   0.484  12.242  1.2739  0.5252 -1.3637
16490TIP3   OH270960   2.727   5.575   1.839 -0.7887 -0.3029 -0.5092
16490TIP3    H170961   2.727   5.635   1.764  1.3208 -1.4716 -1.5506
16490TIP3    H270962   2.698   5.492   1.802  0.3393 -0.9114 -0.0583
16491TIP3   OH270963   3.078   1.698  12.643 -0.3039  0.2902 -0.4041
16491TIP3    H170964   3.005   1.640  12.665 -0.6657  0.6129 -0.7453
16491TIP3    H270965   3.041   1.761  12.581 -0.4807  2.1989  1.5258
16492TIP3   OH270966   5.079   3.753   3.197 -0.1148 -0.4453  0.1606
16492TIP3    H170967   5.116   3.837   3.170 -0.2488 -0.1629  0.8417
16492TIP3    H270968   4.991   3.751   3.159 -0.2781 -0.0770  0.5156
16493TIP3   OH270969   1.709   0.039  14.645 -0.1985  0.3563  0.6051
16493TIP3    H170970   1.671   0.108  14.700 -0.3632 -0.5815  1.6872
16493TIP3    H270971   1.689   0.067  14.555 -0.7502  1.4282  1.0425
16494TIP3   OH270972   5.452   1.776   2.658 -0.0042  0.1596  0.3787
16494TIP3    H170973   5.420   1.795   2.570  1.7267  0.9320 -0.1208
16494TIP3    H270974   5.381   1.726   2.699 -1.4087  0.9576 -0.9695
16495TIP3   OH270975   2.251   3.512   2.526  0.4044  0.6307 -0.4999
16495TIP3    H170976   2.323   3.464   2.486  1.2267  0.5094  1.0237
16495TIP3    H270977   2.275   3.604   2.517  0.8451  0.5842  0.1481
16496TIP3   OH270978   4.651   0.220   6.264  0.3218 -0.1316  0.8998
16496TIP3    H170979   4.674   0.237   6.356  0.4368 -0.3586  0.9139
16496TIP3    H270980   4.710   0.277   6.214  0.1739  0.0842  0.9699
16497TIP3   OH270981   4.635   2.083   3.494  0.1726  0.0595  0.3198
16497TIP3    H170982   4.544   2.092   3.524 -0.2267  1.1534 -1.0962
16497TIP3    H270983   4.632   2.010   3.432  0.4132 -0.3366  0.7663
16498TIP3   OH270984   6.536   5.942   1.804 -0.2799 -0.0586 -0.0007
16498TIP3    H170985   6.503   6.031   1.814  0.2994  0.2016 -0.3764
16498TIP3    H270986   6.469   5.887   1.845 -0.2319  0.6114  1.0044
16499TIP3   OH270987   5.316   3.915  14.900  0.3926 -0.1802 -1.0932
16499TIP3    H170988   5.361   3.883  14.978 -1.3181  0.4899  0.2247
16499TIP3    H270989   5.380   3.974  14.859  1.6242 -1.1936 -0.7096
16500TIP3   OH270990   5.632   1.971  11.481 -0.1039  0.3991 -0.8909
16500TIP3    H170991   5.590   1.959  11.396  1.5135 -0.1459 -1.6559
16500TIP3    H270992   5.670   2.059  11.477 -1.6053  1.1271  0.0213
16501TIP3   OH270993   6.112   0.253   0.080  0.3442  0.0992  0.6381
16501TIP3    H170994   6.135   0.304   0.158 -1.1123  0.9371  0.5690
16501TIP3    H270995   6.027   0.289   0.053 -0.2689 -1.7363  0.0154
16502TIP3   OH270996   2.138   4.076  15.357 -0.3617  0.3107  0.4454
16502TIP3    H170997   2.123   4.003  15.296 -1.0500  0.7220  0.1076
16502TIP3    H270998   2.139   4.036  15.443  2.4754 -0.5790  0.1126
16503TIP3   OH270999   6.371   5.199   4.385 -0.1519 -0.1892  0.5049
16503TIP3    H171000   6.428   5.188   4.309  0.7827  1.9441  0.8373
16503TIP3    H271001   6.293   5.148   4.363  0.5843 -0.6289 -1.3271
16504TIP3   OH271002   5.641   1.740   0.270  0.1430 -0.1122  0.2249
16504TIP3    H171003   5.729   1.703   0.258  0.1394 -0.0893  0.1263
16504TIP3    H271004   5.657   1.831   0.296  0.1520 -0.1758  0.4436
16505TIP3   OH271005   4.409   6.422   0.197  0.2449 -0.8553  0.6485
16505TIP3    H171006   4.478   6.438   0.262  0.9683  1.5281 -0.5901
16505TIP3    H271007   4.332   6.401   0.249  1.0600 -0.1018  2.2580
16506TIP3   OH271008   2.483   1.297   0.463 -0.1042  0.7802 -0.2872
16506TIP3    H171009   2.395   1.277   0.432  0.1849  1.2752 -1.4785
16506TIP3    H271010   2.476   1.384   0.501 -0.1376  0.8038 -0.3479
16507TIP3   OH271011   1.483   3.312   3.672 -0.3093  0.0145 -0.6114
16507TIP3    H171012   1.414   3.294   3.608 -0.9875  2.0180 -0.5125
16507TIP3    H271013   1.549   3.244   3.655 -0.9327 -0.1555 -2.7244
16508TIP3   OH271014   0.707   0.528   0.510 -0.2429 -0.3080 -0.1093
16508TIP3    H171015   0.641   0.458   0.515 -0.2190 -0.3445 -0.3057
16508TIP3    H271016   0.656   0.609   0.515 -0.6400 -0.2371 -3.2102
16509TIP3   OH271017   5.575   0.290  15.756  0.0461 -0.0247  1.1162
16509TIP3    H171018   5.562   0.264  15.847 -0.6766  2.9563  1.9607
16509TIP3    H271019   5.670   0.297  15.746  0.2134 -1.9006  1.1119
16510TIP3   OH271020   3.238   3.319   1.021 -0.0711 -0.1057 -0.1231
16510TIP3    H171021   3.184   3.372   0.963  0.1143  1.1031  0.7676
16510TIP3    H271022   3.192   3.322   1.105 -0.9547 -2.7600 -0.4145
16511TIP3   OH271023   5.599   1.090  15.458  0.1533 -0.2402 -0.0284
16511TIP3    H171024   5.556   1.007  15.435 -0.9711  0.4964 -0.6953
16511TIP3    H271025   5.650   1.113  15.381 -0.0393 -0.0010 -0.0860
16512TIP3   OH271026   1.568   3.765  15.416  0.5835 -0.6846 -0.3822
16512TIP3    H171027   1.564   3.789  15.324  0.2230 -0.3563 -0.2859
16512TIP3    H271028   1.476   3.762  15.444  0.7184 -0.1024  0.1318
16513TIP3   OH271029   0.779   3.793   4.165  0.3499 -0.2870  0.3952
16513TIP3    H171030   0.847   3.749   4.215  0.5526  1.1572  1.4722
16513TIP3    H271031   0.826   3.846   4.101  0.3601  1.6895  1.9626
16514TIP3   OH271032   0.644   4.343  13.412 -0.3911 -0.2507 -0.1887
16514TIP3    H171033   0.625   4.363  13.321 -0.3881 -1.0495 -0.3735
16514TIP3    H271034   0.732   4.380  13.427 -0.2530 -0.4081 -0.6073
16515TIP3   OH271035   4.490   2.008  15.503  0.4264  0.2053  0.4308
16515TIP3    H171036   4.503   2.091  15.548 -1.4488  0.8935 -0.1929
16515TIP3    H271037   4.539   2.015  15.422 -1.0972  1.4460 -0.4325
16516TIP3   OH271038   5.210   1.465   4.654 -0.3650 -0.3729  0.2970
16516TIP3    H171039   5.302   1.445   4.670 -0.6241 -0.8581  1.2745
16516TIP3    H271040   5.203   1.560   4.670 -0.3451 -0.6118  1.9224
16517TIP3   OH271041   0.941   2.878  11.517 -0.1944 -0.4261  0.5725
16517TIP3    H171042   0.888   2.933  11.459 -2.0459 -0.0934  2.4463
16517TIP3    H271043   0.884   2.803  11.538  1.3878 -1.8566 -0.0316
16518TIP3   OH271044   0.333   2.940  17.268 -0.2133  0.3516  0.3132
16518TIP3    H171045   0.295   3.011  17.320  0.4975  0.1303  1.1614
16518TIP3    H271046   0.296   2.860  17.306  0.5057  0.1757  0.6566
16519TIP3   OH271047   6.477   1.878   4.075  0.9406  0.1191 -0.0331
16519TIP3    H171048   6.394   1.900   4.118  1.3008  1.9892 -0.2335
16519TIP3    H271049   6.532   1.843   4.146  0.6800  0.8345  0.5280
16520TIP3   OH271050   1.546   4.731  14.313 -0.4329 -0.4456  0.1489
16520TIP3    H171051   1.616   4.764  14.368  0.9037  0.0865 -1.7587
16520TIP3    H271052   1.555   4.636  14.316 -1.1273 -0.4855  1.7203
16521TIP3   OH271053   6.608   0.141   5.793 -0.4735 -0.4134 -0.3114
16521TIP3    H171054   6.570   0.071   5.846 -2.1948  0.7662  0.1051
16521TIP3    H271055   6.649   0.199   5.857  1.0201 -1.0551 -0.6625
16522TIP3   OH271056   5.909   1.523  12.109  0.4382 -0.6429 -0.9847
16522TIP3    H171057   5.960   1.444  12.120 -0.0933 -1.1066 -1.7204
16522TIP3    H271058   5.894   1.529  12.014  0.1612  0.1388 -0.9049
16523TIP3   OH271059   4.332   0.767   3.678 -0.0094  0.3071  0.1242
16523TIP3    H171060   4.322   0.861   3.665 -1.2726  0.0121 -1.4647
16523TIP3    H271061   4.243   0.736   3.694  0.3901 -0.6247  0.6042
16524TIP3   OH271062   3.507   2.113  11.364  0.1404  0.2323  0.0481
16524TIP3    H171063   3.488   2.058  11.288 -1.3220  0.1127  0.4589
16524TIP3    H271064   3.421   2.142  11.394  0.5005 -1.0389  2.6323
16525TIP3   OH271065   4.595   5.102  16.622  0.1910 -0.3585  0.3902
16525TIP3    H171066   4.580   5.081  16.714  1.2383  0.4685  0.7618
16525TIP3    H271067   4.607   5.017  16.580 -3.4215 -1.0321  0.3723
16526TIP3   OH271068   4.413   2.350   1.087  0.5245  0.4567 -0.2084
16526TIP3    H171069   4.362   2.294   1.147  0.2487  0.0773 -0.7850
16526TIP3    H271070   4.354   2.367   1.014  1.8902 -1.9162 -2.0541
16527TIP3   OH271071   3.366   1.986   4.335 -0.1530 -0.1572  0.4712
16527TIP3    H171072   3.343   2.077   4.352  0.0774 -0.3089  1.7022
16527TIP3    H271073   3.284   1.944   4.310 -0.0825  0.5888 -1.0873
16528TIP3   OH271074   5.358   3.534  11.791 -0.7612  0.4285  0.3015
16528TIP3    H171075   5.402   3.564  11.711 -2.1396 -0.7736 -0.9737
16528TIP3    H271076   5.352   3.612  11.846  1.2811  1.0109 -0.2378
16529TIP3   OH271077   5.585   3.197   4.352 -0.1358  0.3639 -0.3786
16529TIP3    H171078   5.647   3.163   4.416  0.3876  1.0027 -0.5312
16529TIP3    H271079   5.640   3.237   4.284 -0.7001  2.0283  0.0838
16530TIP3   OH271080   1.087   4.591  12.402  0.5805 -0.5689 -0.2123
16530TIP3    H171081   1.072   4.626  12.489  0.9099  2.0940 -1.1297
16530TIP3    H271082   1.046   4.505  12.403 -0.7477  0.0163  2.0869
16531TIP3   OH271083   6.372   6.369  16.881 -0.2570 -0.0020  0.2982
16531TIP3    H171084   6.355   6.429  16.953  0.7533  1.4186 -0.6049
16531TIP3    H271085   6.467   6.360  16.879 -0.1949  0.7203 -1.4167
16532TIP3   OH271086   3.905   5.190   3.851  0.1347 -0.7783 -0.2203
16532TIP3    H171087   3.814   5.184   3.820 -0.4054  1.4935  0.6956
16532TIP3    H271088   3.955   5.218   3.775 -0.2719 -0.2953 -0.3187
16533TIP3   OH271089   6.779   2.167  16.161  0.0960 -0.9075 -0.0032
16533TIP3    H171090   6.765   2.260  16.146 -0.3538 -0.9752 -0.0365
16533TIP3    H271091   6.847   2.142  16.098  0.6240 -0.4906  0.3935
16534TIP3   OH271092   4.981   0.114   0.993 -0.3777  0.0920  0.0450
16534TIP3    H171093   5.007   0.198   1.029 -0.4696 -0.0036  0.3384
16534TIP3    H271094   5.022   0.049   1.051 -1.4307 -0.0638  0.6485
16535TIP3   OH271095   5.321   3.298   3.501 -0.3789 -0.7325  0.2165
16535TIP3    H171096   5.303   3.375   3.447  0.1552 -0.7439  0.0163
16535TIP3    H271097   5.391   3.251   3.455 -0.6773 -1.3247  0.3494
16536TIP3   OH271098   5.541   1.063  16.526 -0.0131  0.0464  0.0180
16536TIP3    H171099   5.631   1.060  16.495  0.2276  1.5492  0.4993
16536TIP3    H271100   5.488   1.055  16.446  0.4931 -1.4651 -0.2113
16537TIP3   OH271101   5.745   2.516   5.808  0.0737  0.0885 -0.0970
16537TIP3    H171102   5.767   2.571   5.884 -0.2567 -0.1818  0.2018
16537TIP3    H271103   5.728   2.430   5.845 -0.3079  0.0072 -0.4537
16538TIP3   OH271104   3.666   3.755   4.884 -0.2038  0.6169  0.2382
16538TIP3    H171105   3.622   3.840   4.885 -1.0571  0.2117  2.5038
16538TIP3    H271106   3.752   3.772   4.923  0.5953  0.8558 -1.5394
16539TIP3   OH271107   3.349   2.423  12.348  0.3377 -0.2565  0.3430
16539TIP3    H171108   3.389   2.387  12.269  0.0602 -1.6834  0.8255
16539TIP3    H271109   3.394   2.506  12.362 -0.4146  0.6372 -1.9675
16540TIP3   OH271110   3.057   3.590  12.426  0.0531  0.5807 -0.0322
16540TIP3    H171111   2.983   3.625  12.377  0.9483  0.2129 -1.7257
16540TIP3    H271112   3.018   3.554  12.506 -1.5261  0.7868 -0.6717
16541TIP3   OH271113   3.524   5.425  16.406  0.2228  0.2078 -0.0985
16541TIP3    H171114   3.559   5.339  16.385 -0.4770  0.0497 -0.6614
16541TIP3    H271115   3.461   5.443  16.336  0.9541  1.5260 -0.4452
16542TIP3   OH271116   4.839   4.352   0.732 -0.4949 -0.4995 -0.5980
16542TIP3    H171117   4.907   4.309   0.681 -0.5666  0.5856 -1.6562
16542TIP3    H271118   4.857   4.326   0.822  1.7108  0.2475 -0.7555
16543TIP3   OH271119   0.561   3.536  16.289  0.2672  0.2693  0.0330
16543TIP3    H171120   0.626   3.494  16.233 -1.2788 -2.4122  0.1073
16543TIP3    H271121   0.491   3.564  16.230 -0.4038 -0.6655  0.3600
16544TIP3   OH271122   4.517   0.701  16.980 -0.2085  0.3421 -0.3169
16544TIP3    H171123   4.605   0.678  16.951 -0.3561 -0.8358  0.1179
16544TIP3    H271124   4.460   0.669  16.910 -0.5092 -1.8232  0.8589
16545TIP3   OH271125   1.389   1.580  15.368  0.1052  0.2979 -0.2273
16545TIP3    H171126   1.306   1.570  15.413 -0.1596  0.2574 -0.7125
16545TIP3    H271127   1.423   1.491  15.359 -0.9365  0.0256 -2.1069
16546TIP3   OH271128   3.044   0.075   1.056  0.3041  0.3365 -0.4031
16546TIP3    H171129   3.112   0.133   1.023  1.9628 -1.1286  0.2800
16546TIP3    H271130   3.066   0.062   1.148 -1.6384  0.7758  0.1709
16547TIP3   OH271131   6.325   3.683  12.139  0.7031  0.3756 -0.2024
16547TIP3    H171132   6.244   3.638  12.165  0.1579  1.7561  0.5957
16547TIP3    H271133   6.309   3.711  12.049  1.0910 -1.0726 -0.7476
16548TIP3   OH271134   0.509   5.676   3.188  0.0036 -0.9579 -0.1737
16548TIP3    H171135   0.550   5.687   3.102 -0.5387  1.2433 -0.2087
16548TIP3    H271136   0.420   5.708   3.175 -1.0689 -3.4045  0.5073
16549TIP3   OH271137   4.496   1.487  12.473 -0.0841  0.4283  0.1954
16549TIP3    H171138   4.565   1.441  12.426 -1.3783 -0.9201 -0.4760
16549TIP3    H271139   4.534   1.509  12.558  0.4500 -2.4139  0.7813
16550TIP3   OH271140   4.247   0.570  15.393 -0.7888  0.3013 -0.1336
16550TIP3    H171141   4.240   0.475  15.392 -0.4071  0.2687 -1.0454
16550TIP3    H271142   4.157   0.601  15.386 -0.9474  0.0170  0.5898
16551TIP3   OH271143   0.404   0.817  13.463  0.5334 -0.4204 -0.1001
16551TIP3    H171144   0.421   0.769  13.383  1.5482  0.5116 -0.4628
16551TIP3    H271145   0.461   0.778  13.528  0.4699 -0.4955 -0.0890
16552TIP3   OH271146   2.072   2.140  15.960  1.2634 -0.2781 -0.1930
16552TIP3    H171147   2.081   2.221  16.009  0.2802  0.4304 -1.1391
16552TIP3    H271148   2.115   2.074  16.015  1.5142  0.7477  0.8897
16553TIP3   OH271149   3.051   6.416   5.883  0.1354  0.0857 -0.8379
16553TIP3    H171150   3.115   6.480   5.855 -0.3583  0.6393 -0.7241
16553TIP3    H271151   2.983   6.467   5.927 -0.9701 -0.3418 -1.9961
16554TIP3   OH271152   0.147   3.067  16.669  0.3445 -0.5874 -0.0843
16554TIP3    H171153   0.190   2.988  16.702 -0.0367 -1.1083 -0.8042
16554TIP3    H271154   0.081   3.035  16.608  0.8955  0.3288 -1.2083
16555TIP3   OH271155   0.299   4.665  13.248  0.1568  0.3682  0.5149
16555TIP3    H171156   0.222   4.631  13.293  1.7763 -1.0506  2.4089
16555TIP3    H271157   0.329   4.737  13.303  1.0495 -0.1104  0.6765
16556TIP3   OH271158   3.136   0.278  15.128 -0.2303  0.6453  0.2255
16556TIP3    H171159   3.046   0.271  15.097 -0.4822  2.2706  0.4945
16556TIP3    H271160   3.129   0.265  15.223 -0.0691  0.0065  0.1517
16557TIP3   OH271161   5.007   0.117   0.726 -0.3687 -0.6212  0.1547
16557TIP3    H171162   4.994   0.120   0.821  0.8386 -0.1936  0.3206
16557TIP3    H271163   5.098   0.089   0.715 -0.2294  0.1661 -0.8638
16558TIP3   OH271164   0.779   4.129   3.123 -0.2379  0.0294  0.5147
16558TIP3    H171165   0.808   4.186   3.194  0.6569  0.6195 -0.2964
16558TIP3    H271166   0.753   4.190   3.053  1.1376 -0.5230 -0.5264
16559TIP3   OH271167   0.033   3.879  15.026  0.4873 -0.0643  0.0325
16559TIP3    H171168  -0.023   3.953  15.049 -0.0181 -0.4401  0.0383
16559TIP3    H271169   0.054   3.892  14.934 -1.1201 -0.8620 -0.4871
16560TIP3   OH271170   2.010   5.881  11.449 -0.2393  0.0971 -0.1426
16560TIP3    H171171   2.044   5.965  11.480 -1.5933  0.9798 -0.9438
16560TIP3    H271172   2.088   5.827  11.437  0.6589  1.2156  0.4217
16561TIP3   OH271173   3.351   0.135   2.237  0.1374  0.0839 -0.2957
16561TIP3    H171174   3.361   0.061   2.297  0.9974  1.3006  1.1341
16561TIP3    H271175   3.266   0.119   2.194 -1.7180  0.2976  2.9458
16562TIP3   OH271176   0.358   5.128  12.316  0.5149  0.1544 -0.1524
16562TIP3    H171177   0.395   5.207  12.277  0.8708 -0.1471 -0.4401
16562TIP3    H271178   0.429   5.094  12.372  0.7534 -0.5239 -0.8428
16563TIP3   OH271179   4.065   6.393  12.435  0.0970 -0.3251 -0.2907
16563TIP3    H171180   4.043   6.481  12.465 -2.4145 -0.7629 -0.6281
16563TIP3    H271181   4.078   6.343  12.516 -0.4497 -0.0714 -0.0413
16564TIP3   OH271182   3.806   4.894   5.783  0.1032 -0.0936  0.3087
16564TIP3    H171183   3.821   4.858   5.870  1.8744  0.7110  0.3820
16564TIP3    H271184   3.881   4.951   5.767 -1.2460  1.4646 -0.8873
16565TIP3   OH271185   0.530   6.335  11.596  0.0953 -0.0662 -0.0289
16565TIP3    H171186   0.544   6.429  11.609 -1.3813  0.1557  0.1505
16565TIP3    H271187   0.611   6.304  11.556  1.4049  0.8966  1.6958
16566TIP3   OH271188   2.535   0.943   4.539 -0.1175 -0.0655 -0.3932
16566TIP3    H171189   2.488   0.872   4.583  1.0378  0.5365  1.9261
16566TIP3    H271190   2.622   0.908   4.523  0.5564  0.8754  1.0350
16567TIP3   OH271191   4.253   1.313   6.060 -0.4670  0.1590 -0.1170
16567TIP3    H171192   4.275   1.381   6.123  0.8964  1.2058 -1.6466
16567TIP3    H271193   4.294   1.234   6.094 -1.9366  0.0637  1.5999
16568TIP3   OH271194   2.078   2.073   3.237  0.1000 -0.2152 -0.1069
16568TIP3    H171195   2.061   2.120   3.318  1.5843  1.2996 -0.6309
16568TIP3    H271196   2.015   2.109   3.174 -0.0243 -0.2838 -0.0210
16569TIP3   OH271197   6.721   5.291   0.828 -0.2882  0.2242 -0.4798
16569TIP3    H171198   6.696   5.231   0.757  0.7055 -1.0854  0.2472
16569TIP3    H271199   6.660   5.271   0.899 -0.0836  0.2303 -0.3030
16570TIP3   OH271200   0.079   4.418   4.130 -0.0282  0.6093  0.6946
16570TIP3    H171201   0.008   4.360   4.158 -0.0796 -0.9454 -2.2469
16570TIP3    H271202   0.159   4.373   4.159 -0.0843 -0.8931 -1.2604
16571TIP3   OH271203   6.459   0.884  16.951  0.0040 -0.2064  0.1631
16571TIP3    H171204   6.473   0.921  17.038  1.4761 -1.0252  0.2932
16571TIP3    H271205   6.488   0.793  16.958  1.5906  0.1041 -1.5488
16572TIP3   OH271206   0.379   0.022   3.884  0.0545  0.4064  0.2219
16572TIP3    H171207   0.465   0.030   3.925  0.6463  0.2131 -0.9483
16572TIP3    H271208   0.395   0.034   3.790 -1.3762  1.6594  0.0917
16573TIP3   OH271209   6.257   4.132   1.645  0.0554  0.1491  0.1538
16573TIP3    H171210   6.307   4.050   1.641  0.8203  0.5524  1.0976
16573TIP3    H271211   6.207   4.125   1.726 -0.8440  0.0854 -0.3997
16574TIP3   OH271212   4.879   2.626   1.536  0.3729 -0.2677  0.4381
16574TIP3    H171213   4.831   2.550   1.570 -0.1241 -0.1236  0.0705
16574TIP3    H271214   4.970   2.610   1.561 -0.0105 -0.0308  2.0678
16575TIP3   OH271215   1.472   3.185   3.401 -0.0980  0.3938 -0.7570
16575TIP3    H171216   1.488   3.150   3.314  0.7423  1.3410 -1.0015
16575TIP3    H271217   1.541   3.148   3.456 -1.8342 -1.9086  0.0487
16576TIP3   OH271218   3.428   0.550  15.245  0.1214  0.5624  0.0070
16576TIP3    H171219   3.372   0.514  15.313  1.0535 -0.6376  0.1952
16576TIP3    H271220   3.378   0.539  15.164 -0.7062  1.3489  0.4070
16577TIP3   OH271221   6.524   2.049  11.237 -0.3687 -0.2180  0.0710
16577TIP3    H171222   6.473   2.072  11.159  0.2424 -0.1734 -0.3184
16577TIP3    H271223   6.495   1.960  11.259 -1.7243  0.3612  0.7603
16578TIP3   OH271224   1.575   6.347  11.847  0.2025 -0.2141  0.2746
16578TIP3    H171225   1.541   6.266  11.883 -0.8788  0.5274  0.9803
16578TIP3    H271226   1.617   6.391  11.922 -2.8866  1.7852  1.0141
16579TIP3   OH271227   4.236   3.328  14.076  0.1382 -0.1371 -0.6682
16579TIP3    H171228   4.325   3.335  14.111 -0.0134  0.6735 -0.4261
16579TIP3    H271229   4.197   3.255  14.124  0.1364  0.5721  0.4526
16580TIP3   OH271230   3.694   0.772  13.978  0.2679  0.2046  0.3329
16580TIP3    H171231   3.672   0.766  13.885 -0.7412 -0.6049  0.6036
16580TIP3    H271232   3.748   0.851  13.985  0.4213  0.2319 -0.9442
16581TIP3   OH271233   6.388   4.760   5.213  0.3239 -0.2511  0.2250
16581TIP3    H171234   6.479   4.774   5.188  0.1533  0.7716  0.1301
16581TIP3    H271235   6.357   4.691   5.154 -0.3076  2.6247 -3.1831
16582TIP3   OH271236   0.293   4.104  15.729 -0.0476 -0.3336 -0.4426
16582TIP3    H171237   0.328   4.078  15.644 -0.8228  1.1726 -1.2753
16582TIP3    H271238   0.259   4.023  15.767 -0.4067 -0.9122 -1.9279
16583TIP3   OH271239   6.089   2.011  12.966 -0.4121  0.5821  0.4808
16583TIP3    H171240   6.056   2.081  12.910 -0.9526 -0.3006 -0.3256
16583TIP3    H271241   6.043   2.024  13.049  0.1287  1.6877  0.6207
16584TIP3   OH271242   0.821   0.608  15.269  0.2370 -0.6252 -0.2788
16584TIP3    H171243   0.799   0.693  15.306 -2.8411 -1.9463  1.2461
16584TIP3    H271244   0.882   0.569  15.333 -0.0901 -0.4343  0.1474
16585TIP3   OH271245   5.447   6.196   3.737  0.1530 -0.2038  0.2553
16585TIP3    H171246   5.430   6.104   3.755 -1.9856  0.0966 -0.0085
16585TIP3    H271247   5.421   6.209   3.646  3.0442  0.1164 -0.6260
16586TIP3   OH271248   4.340   1.925   2.027  0.1368  0.0299  0.1452
16586TIP3    H171249   4.305   1.849   1.980  0.2805  1.8649 -3.2720
16586TIP3    H271250   4.263   1.964   2.069 -1.1364  0.9644 -2.7479
16587TIP3   OH271251   2.997   1.527   2.378  0.2601 -0.0337  0.2891
16587TIP3    H171252   3.078   1.538   2.329 -0.6757 -0.2127 -1.3970
16587TIP3    H271253   2.983   1.433   2.380  0.0483  0.0019  0.4794
16588TIP3   OH271254   4.941   0.383   0.768 -0.8032 -0.6185  0.4819
16588TIP3    H171255   4.851   0.370   0.738 -0.5482 -0.7229 -0.2421
16588TIP3    H271256   4.982   0.297   0.759 -0.6131 -0.5604  0.7750
16589TIP3   OH271257   4.145   4.833   3.126  0.1279 -0.6459  0.4650
16589TIP3    H171258   4.171   4.920   3.155  0.2733 -0.5453  0.0320
16589TIP3    H271259   4.228   4.787   3.112  0.1346 -0.0824 -1.6709
16590TIP3   OH271260   3.957   0.504   5.649 -0.0614  0.3317  0.3113
16590TIP3    H171261   3.933   0.570   5.714  1.8798  1.6211 -0.1942
16590TIP3    H271262   3.942   0.546   5.565 -1.1193 -0.7844 -0.0848
16591TIP3   OH271263   1.203   0.966  12.502  0.0910 -0.0242 -0.1012
16591TIP3    H171264   1.233   0.887  12.548 -1.0569  0.5021  1.6661
16591TIP3    H271265   1.127   0.995  12.553  0.2773  2.0302 -0.9260
16592TIP3   OH271266   0.672   0.596   3.107  0.2686 -0.3329 -0.1579
16592TIP3    H171267   0.757   0.625   3.074  0.7003 -1.6680 -0.3127
16592TIP3    H271268   0.608   0.639   3.052  0.9206 -0.9675 -1.4687
16593TIP3   OH271269   1.312   0.052  16.967  0.0073 -0.3125  0.5847
16593TIP3    H171270   1.285   0.012  16.885  1.0650 -0.2994  0.2054
16593TIP3    H271271   1.369   0.125  16.940  0.3587 -0.3030  1.3235
16594TIP3   OH271272   2.808   3.732   2.299 -0.0474  0.3998 -0.4768
16594TIP3    H171273   2.847   3.817   2.277  0.1384 -0.0366 -1.8901
16594TIP3    H271274   2.876   3.668   2.279  0.1994 -0.0514  1.5577
16595TIP3   OH271275   6.182   6.761   5.527  0.1801 -0.1916 -0.0371
16595TIP3    H171276   6.238   6.683   5.528  1.6624  0.7757  2.5889
16595TIP3    H271277   6.243   6.833   5.511 -0.4903  0.7802  1.6399
16596TIP3   OH271278   5.734   6.251  12.016 -0.1527  0.0733 -0.9957
16596TIP3    H171279   5.770   6.165  11.991  0.9436 -0.2694  1.5066
16596TIP3    H271280   5.747   6.256  12.110 -2.4876  1.9849 -0.6935
16597TIP3   OH271281   1.266   5.565  11.601  0.1823  0.2071 -0.1090
16597TIP3    H171282   1.332   5.624  11.566  0.6208 -0.9619 -1.3627
16597TIP3    H271283   1.296   5.477  11.575 -0.2472 -0.6177  1.9948
16598TIP3   OH271284   5.683   4.087   3.958 -0.0748  0.6772  0.2090
16598TIP3    H171285   5.729   4.035   4.024  0.0043  1.1548  0.5369
16598TIP3    H271286   5.736   4.167   3.949  0.0416  0.5175 -0.6066
16599TIP3   OH271287   5.272   6.205   4.860  0.2085  0.2898  0.3057
16599TIP3    H171288   5.247   6.158   4.780 -0.1184  1.1856 -0.1295
16599TIP3    H271289   5.320   6.140   4.911 -0.3369 -0.5571 -0.2245
16600TIP3   OH271290   0.003   0.178   6.467  0.8206 -0.5226  0.2038
16600TIP3    H171291  -0.054   0.170   6.390 -0.0957  0.6595  0.7320
16600TIP3    H271292  -0.047   0.140   6.539  1.2339 -0.6429  0.4316
16601TIP3   OH271293   1.271   6.489   4.120  0.7963  0.1540 -0.0327
16601TIP3    H171294   1.357   6.497   4.078 -0.2523 -0.7452 -2.5108
16601TIP3    H271295   1.218   6.557   4.078 -1.0399 -2.5029 -2.3713
16602TIP3   OH271296   1.661   0.987   3.323  0.7477  0.0177  1.2328
16602TIP3    H171297   1.749   0.990   3.360  0.4008  0.2877  2.0493
16602TIP3    H271298   1.603   0.986   3.399  0.0167  0.7751  0.7003
16603TIP3   OH271299   3.418   3.086   1.447 -0.7565 -0.1954 -0.1190
16603TIP3    H171300   3.499   3.133   1.467 -1.5384  0.7085  1.0752
16603TIP3    H271301   3.441   2.993   1.456  0.0711  0.0634  0.5740
16604TIP3   OH271302   4.363   4.875   6.216  0.3258 -0.4835 -0.0902
16604TIP3    H171303   4.393   4.954   6.261 -0.7228  0.1164 -0.4129
16604TIP3    H271304   4.425   4.807   6.243 -0.2339 -0.1517  2.2638
16605TIP3   OH271305   2.714   6.525  13.366 -0.4675  0.2835  0.2897
16605TIP3    H171306   2.806   6.498  13.364 -0.5984 -0.3167  1.4630
16605TIP3    H271307   2.666   6.448  13.338 -0.5926  0.9642 -1.5614
16606TIP3   OH271308   0.857   0.139  12.611 -0.0206 -0.0907 -0.1666
16606TIP3    H171309   0.912   0.101  12.542  1.2159 -0.2455  0.8571
16606TIP3    H271310   0.909   0.128  12.691 -1.4775 -0.0486  0.8174
16607TIP3   OH271311   1.293   2.244   4.124  0.3459  0.7099 -0.2129
16607TIP3    H171312   1.199   2.247   4.107  0.1586 -0.3695  0.5290
16607TIP3    H271313   1.301   2.202   4.210  1.4018  2.8627  0.8183
16608TIP3   OH271314   1.373   5.174   3.854 -0.1730 -0.0609 -0.1181
16608TIP3    H171315   1.427   5.133   3.787  0.9101  0.6310  0.3079
16608TIP3    H271316   1.298   5.211   3.806  0.6260  0.4950 -0.9654
16609TIP3   OH271317   6.033   4.825   4.941 -0.4390  0.3189  0.1449
16609TIP3    H171318   6.099   4.891   4.960  1.4366 -1.0885 -1.0477
16609TIP3    H271319   5.991   4.807   5.025  0.2205  1.7518  0.7969
16610TIP3   OH271320   2.959   4.893  16.510  0.2972  0.0737  0.5183
16610TIP3    H171321   2.953   4.913  16.604 -0.5195  0.7853  0.3278
16610TIP3    H271322   2.881   4.841  16.491  0.2043  0.3491  0.1361
16611TIP3   OH271323   1.681   5.544   3.568  0.3833 -0.6160  0.3396
16611TIP3    H171324   1.753   5.595   3.532  0.7216 -1.0237  0.4212
16611TIP3    H271325   1.612   5.548   3.501 -0.0362  0.8629  0.8262
16612TIP3   OH271326   1.639   0.925   6.494 -0.1479  0.2202  0.2822
16612TIP3    H171327   1.555   0.905   6.535 -0.1016  0.4939  0.5157
16612TIP3    H271328   1.672   0.840   6.464 -0.1816  0.0134  0.8147
16613TIP3   OH271329   4.878   1.569   4.866  0.5659  0.8463  0.7022
16613TIP3    H171330   4.912   1.484   4.837 -1.8285 -0.0460  0.3164
16613TIP3    H271331   4.850   1.554   4.956  0.4636  1.3332  0.7503
16614TIP3   OH271332   5.301   0.149  12.154  0.0168  0.1213 -0.0653
16614TIP3    H171333   5.329   0.188  12.072 -2.1732  0.9079 -0.5016
16614TIP3    H271334   5.262   0.065  12.129  1.2225 -0.6163  0.4391
16615TIP3   OH271335   6.536   3.805   3.666  0.2932 -0.0402  0.2640
16615TIP3    H171336   6.499   3.873   3.609  1.7012 -0.4494 -1.2252
16615TIP3    H271337   6.466   3.739   3.672  0.0575  0.0560 -0.9765
16616TIP3   OH271338   4.572   0.009   5.192 -0.3035 -0.2913 -0.4631
16616TIP3    H171339   4.499   0.010   5.253 -0.2469 -4.2428 -0.0868
16616TIP3    H271340   4.533  -0.019   5.109  0.7731 -4.0342  0.1075
16617TIP3   OH271341   4.527   6.034  10.556 -0.4244 -0.6609  0.0875
16617TIP3    H171342   4.593   6.013  10.622 -0.1792  0.3628  0.1702
16617TIP3    H271343   4.574   6.033  10.473 -0.7254 -1.9095 -0.1026
16618TIP3   OH271344   4.884   0.768   4.565  0.1562 -0.2336  0.4019
16618TIP3    H171345   4.803   0.760   4.515 -0.0072 -1.4021  0.8026
16618TIP3    H271346   4.856   0.768   4.657  0.4574  1.7602  0.5246
16619TIP3   OH271347   3.346   1.715  10.550  0.1130  0.0132  0.8591
16619TIP3    H171348   3.361   1.810  10.546  0.6430 -0.0966 -0.0714
16619TIP3    H271349   3.419   1.682  10.602  0.0443  0.0930  1.0060
16620TIP3   OH271350   0.865   3.323   5.814  0.0515 -0.5488  0.1241
16620TIP3    H171351   0.951   3.351   5.783  0.0511  0.3464  0.8894
16620TIP3    H271352   0.814   3.403   5.819 -0.3093 -0.8260  1.2721
16621TIP3   OH271353   2.525   2.752   5.898 -0.4135  0.0563 -0.7197
16621TIP3    H171354   2.485   2.732   5.982 -0.3093  3.2751  0.1971
16621TIP3    H271355   2.618   2.729   5.910 -0.6672 -0.8976 -0.5025
16622TIP3   OH271356   6.538   5.493   0.580 -0.8067  0.2664 -0.0280
16622TIP3    H171357   6.569   5.513   0.668 -2.0004  1.6675  0.1284
16622TIP3    H271358   6.561   5.402   0.565  0.7100  0.4273  1.1629
16623TIP3   OH271359   5.577   4.772  14.405 -0.1313  0.1678  0.6057
16623TIP3    H171360   5.529   4.843  14.446  1.0042  0.3002  1.7824
16623TIP3    H271361   5.521   4.695  14.415 -0.8365  0.6450  0.3970
16624TIP3   OH271362   5.078   0.154  13.176  0.3088 -0.0343 -0.0656
16624TIP3    H171363   5.071   0.065  13.142  1.1856 -0.4901  0.8601
16624TIP3    H271364   5.124   0.203  13.108  0.2512 -0.4176 -0.3798
16625TIP3   OH271365   4.589   3.078  13.900 -0.2775  0.0526 -0.2593
16625TIP3    H171366   4.510   3.121  13.868 -1.3455  0.3167  2.4906
16625TIP3    H271367   4.616   3.130  13.975  1.4088 -1.1629  0.0325
16626TIP3   OH271368   1.251   2.831  14.675  0.1392 -0.0735  0.0423
16626TIP3    H171369   1.268   2.741  14.700 -1.0523 -0.5505 -0.7473
16626TIP3    H271370   1.265   2.833  14.580  0.2993  0.5999  0.0740
16627TIP3   OH271371   3.754   4.363   3.736 -0.5598 -0.7970 -0.7749
16627TIP3    H171372   3.784   4.453   3.725  0.0683 -1.0517 -1.1608
16627TIP3    H271373   3.680   4.355   3.677 -1.6223 -0.0793  0.3980
16628TIP3   OH271374   6.348   5.609  15.498  0.3073 -0.3381  0.3032
16628TIP3    H171375   6.358   5.586  15.405  2.7932  0.2857  0.3348
16628TIP3    H271376   6.340   5.704  15.498 -1.1916 -0.4464  0.6749
16629TIP3   OH271377   2.593   0.900  15.856  0.0110 -0.0332  0.0011
16629TIP3    H171378   2.555   0.987  15.842 -0.3591 -0.2414 -0.3401
16629TIP3    H271379   2.661   0.913  15.921 -0.1195  0.4936  0.0361
16630TIP3   OH271380   2.619   5.515  16.845 -0.2412  0.5316  0.8854
16630TIP3    H171381   2.582   5.528  16.932 -0.9422  0.5637  0.5843
16630TIP3    H271382   2.551   5.469  16.796 -0.7323  2.4515 -0.3151
16631TIP3   OH271383   3.110   2.746  11.069 -0.5537 -0.8842 -0.3725
16631TIP3    H171384   3.091   2.788  10.985 -0.0238 -2.3983 -1.2700
16631TIP3    H271385   3.200   2.772  11.089 -0.4693 -1.0195 -0.5769
16632TIP3   OH271386   2.419   1.887  12.621  0.4634 -0.1832 -0.3142
16632TIP3    H171387   2.469   1.956  12.579 -0.4689  0.8030  0.1651
16632TIP3    H271388   2.481   1.846  12.682  0.5945  1.2842  0.5678
16633TIP3   OH271389   1.837   5.272   4.368  0.1574 -0.2227 -0.4097
16633TIP3    H171390   1.828   5.363   4.399  0.1023 -0.0958 -0.7984
16633TIP3    H271391   1.754   5.230   4.393 -0.0744  0.0025 -0.7935
16634TIP3   OH271392   3.850   0.315  13.453 -0.4077 -0.0053 -0.3966
16634TIP3    H171393   3.889   0.241  13.500 -0.2236  0.5844  0.3850
16634TIP3    H271394   3.820   0.277  13.370 -0.7997 -1.0775  0.2103
16635TIP3   OH271395   0.006   3.217  12.483 -0.0185 -0.7726 -0.3613
16635TIP3    H171396  -0.059   3.282  12.456  0.0996 -0.3323  0.3639
16635TIP3    H271397   0.065   3.210  12.409 -1.6486 -2.2133 -1.5846
16636TIP3   OH271398   5.724   3.516   5.924  0.0390  0.5678  0.8215
16636TIP3    H171399   5.766   3.443   5.969 -1.7987 -1.3020 -0.3280
16636TIP3    H271400   5.757   3.511   5.834 -2.2596 -0.8102 -0.0541
16637TIP3   OH271401   3.028   3.130   1.143 -0.0851  0.3371 -0.3365
16637TIP3    H171402   2.998   3.078   1.069  2.0098 -0.8022 -0.4796
16637TIP3    H271403   3.124   3.127   1.137  0.2930 -1.4496  3.4562
16638TIP3   OH271404   0.140   6.411   4.684  1.2073  0.4580 -0.3324
16638TIP3    H171405   0.155   6.502   4.711 -0.4932  0.6821 -0.0547
16638TIP3    H271406   0.178   6.359   4.754  1.1142  0.9792  0.1113
16639TIP3   OH271407   0.078   3.516  11.797  0.4146 -0.2622 -1.5451
16639TIP3    H171408   0.122   3.544  11.717  0.8447  1.1243 -0.8561
16639TIP3    H271409   0.147   3.479  11.851  1.1031  2.8532 -0.0313
16640TIP3   OH271410   1.190   1.620   5.379  0.2950  0.0101 -0.0355
16640TIP3    H171411   1.180   1.706   5.420  0.6405  0.3678 -0.6943
16640TIP3    H271412   1.102   1.598   5.348  0.6390  1.3164 -2.1803
16641TIP3   OH271413   6.664   2.268  13.019 -0.0544  0.2520  0.0872
16641TIP3    H171414   6.744   2.251  12.970 -0.5435 -0.4446 -0.4801
16641TIP3    H271415   6.604   2.198  12.995 -1.0362  1.0539  0.0862
16642TIP3   OH271416   3.251   2.360  16.918 -0.5264 -0.1163  1.3081
16642TIP3    H171417   3.185   2.319  16.862 -0.6490 -2.0575  2.7787
16642TIP3    H271418   3.299   2.418  16.859 -1.7648 -0.7314 -0.3964
16643TIP3   OH271419   3.944   1.212  13.822 -0.1107 -0.1292  0.2636
16643TIP3    H171420   3.928   1.270  13.749 -0.8171 -0.9262 -0.2357
16643TIP3    H271421   4.016   1.156  13.793 -2.5521 -2.7497 -1.3081
16644TIP3   OH271422   0.337   3.443  13.411  0.1372 -0.2645  0.8937
16644TIP3    H171423   0.392   3.467  13.486  0.6030 -1.7635  1.0597
16644TIP3    H271424   0.391   3.382  13.361 -0.7820 -0.5091  0.1858
16645TIP3   OH271425   3.648   1.819   1.698  0.5050 -0.4287 -0.2547
16645TIP3    H171426   3.595   1.740   1.701  1.3474 -1.0045 -0.0703
16645TIP3    H271427   3.643   1.847   1.606  1.1014 -1.3396 -0.5820
16646TIP3   OH271428   2.030   5.968   1.457 -0.4224 -0.4650  0.6317
16646TIP3    H171429   2.082   5.905   1.407  0.2073 -0.5281  1.3396
16646TIP3    H271430   1.940   5.934   1.452 -1.1683  1.5624 -3.6231
16647TIP3   OH271431   5.978   6.096   1.163  0.8592  0.1588 -0.3482
16647TIP3    H171432   6.025   6.143   1.232 -0.8937 -0.4874  1.4265
16647TIP3    H271433   5.996   6.003   1.181  0.5352 -0.0148 -0.8937
16648TIP3   OH271434   2.281   3.495  17.129  0.1852 -0.3646  0.0243
16648TIP3    H171435   2.263   3.538  17.213 -0.7026  1.3160 -0.9661
16648TIP3    H271436   2.359   3.442  17.145  0.4936  0.5260  1.6986
16649TIP3   OH271437   3.300   0.250   4.130  0.2061 -0.0744  0.5352
16649TIP3    H171438   3.292   0.156   4.145  0.5467 -0.2773 -0.5008
16649TIP3    H271439   3.215   0.276   4.096  0.3566 -0.1459  0.1069
16650TIP3   OH271440   2.612   3.828   4.146 -0.2051 -0.5978  0.2859
16650TIP3    H171441   2.518   3.812   4.149 -0.3174 -0.7234 -2.2839
16650TIP3    H271442   2.624   3.912   4.192 -1.5775 -0.4505  0.4041
16651TIP3   OH271443   6.453   5.458   4.134  0.1518 -0.0080  0.2184
16651TIP3    H171444   6.452   5.403   4.056 -0.7426 -1.5523  1.2636
16651TIP3    H271445   6.361   5.466   4.159  0.1110  3.0373 -0.5676
16652TIP3   OH271446   3.388   4.882  12.243 -0.1346 -0.6038 -0.5515
16652TIP3    H171447   3.468   4.920  12.208  0.8368 -1.2503  0.8804
16652TIP3    H271448   3.409   4.862  12.334 -2.4813  0.8172  0.3936
16653TIP3   OH271449   5.967   3.023   5.118 -0.0272  0.1070 -0.0672
16653TIP3    H171450   5.978   3.072   5.036 -0.1779 -0.2850 -0.3236
16653TIP3    H271451   5.891   3.064   5.159  0.8929  1.2460  0.5683
16654TIP3   OH271452   6.254   3.289  10.331 -0.6787  0.5633  1.0114
16654TIP3    H171453   6.234   3.383  10.331  0.0959  0.7451  1.7329
16654TIP3    H271454   6.226   3.258  10.417  1.5804  0.7427  1.8796
16655TIP3   OH271455   6.309   1.799  11.077  0.2185 -0.2001 -0.3292
16655TIP3    H171456   6.267   1.827  11.159  0.9894  2.6333 -0.7941
16655TIP3    H271457   6.239   1.759  11.027 -1.4006  2.0450 -0.0214
16656TIP3   OH271458   1.448   2.125  15.740  0.0574  0.0150  0.4579
16656TIP3    H171459   1.461   2.218  15.722  0.1581 -0.1349 -0.2784
16656TIP3    H271460   1.518   2.082  15.691 -0.0586 -0.4587  0.7071
16657TIP3   OH271461   5.794   0.580  13.607 -0.2873  0.0515  0.1803
16657TIP3    H171462   5.823   0.624  13.687 -0.3725 -0.7282  0.6453
16657TIP3    H271463   5.699   0.594  13.605 -0.3762 -0.4678  0.5556
16658TIP3   OH271464   2.733   4.022   4.543 -0.2623 -0.2446 -0.0042
16658TIP3    H171465   2.700   3.933   4.555 -1.1278  0.3944  3.2451
16658TIP3    H271466   2.817   4.023   4.587 -1.2378  1.0172  1.9666
16659TIP3   OH271467   0.554   6.401   5.258 -0.3288  0.7291  0.0653
16659TIP3    H171468   0.500   6.343   5.311  1.1104  0.8469  1.7151
16659TIP3    H271469   0.639   6.358   5.251  0.0394  1.5272 -0.7048
16660TIP3   OH271470   3.457   1.278   1.697  0.2297  0.0767 -0.5982
16660TIP3    H171471   3.430   1.189   1.721  1.0776 -0.2117 -0.6596
16660TIP3    H271472   3.384   1.313   1.646 -1.0604  0.2234  1.2508
16661TIP3   OH271473   0.340   1.479   1.493  0.1528 -0.0163  0.0367
16661TIP3    H171474   0.286   1.424   1.550  0.3953  0.3703  0.6540
16661TIP3    H271475   0.305   1.567   1.504 -1.1756 -0.2277 -2.0775
16662TIP3   OH271476   4.477   2.127  17.023  0.2628 -0.6658  0.1070
16662TIP3    H171477   4.480   2.218  17.053  1.8535 -1.1169  1.4333
16662TIP3    H271478   4.484   2.075  17.103  1.4838 -1.9379 -0.7790
16663TIP3   OH271479   2.693   2.950   1.321 -0.4315 -0.5339 -0.3058
16663TIP3    H171480   2.686   2.886   1.249  1.0271 -1.9306  0.7208
16663TIP3    H271481   2.744   3.022   1.283 -0.5101 -0.8100 -0.9566
16664TIP3   OH271482   2.814   6.671  12.046 -0.3077  0.2798  0.0470
16664TIP3    H171483   2.876   6.740  12.072  1.9785 -1.1839 -1.1504
16664TIP3    H271484   2.870   6.597  12.022 -2.6305 -1.6589  0.2764
16665TIP3   OH271485   5.189   4.557   1.446  0.8272  0.3721  0.4546
16665TIP3    H171486   5.238   4.478   1.426  1.7758  0.8241  0.9272
16665TIP3    H271487   5.134   4.534   1.521 -0.7302 -0.5314 -0.8996
16666TIP3   OH271488   0.146   0.316  13.782  0.7078  0.2359 -0.1995
16666TIP3    H171489   0.122   0.327  13.690  1.1039  2.9189 -0.0806
16666TIP3    H271490   0.063   0.320  13.829  0.2639 -3.2144 -0.4577
16667TIP3   OH271491   0.614   0.524   0.045  0.3113  0.1000  0.3403
16667TIP3    H171492   0.555   0.478   0.104  1.0300  0.5998  1.4853
16667TIP3    H271493   0.672   0.575   0.103  0.5817  1.1666 -0.8096
16668TIP3   OH271494   0.574   5.012  14.775  0.1751  0.7072  0.4106
16668TIP3    H171495   0.534   4.935  14.735 -0.5842  1.8017 -1.0588
16668TIP3    H271496   0.507   5.080  14.767  1.4342  1.9479  0.1460
16669TIP3   OH271497   0.869   5.654  16.488  0.1438 -0.3280  0.2325
16669TIP3    H171498   0.779   5.620  16.483  0.4308 -1.0239 -0.4363
16669TIP3    H271499   0.875   5.692  16.576 -1.6559  2.2340 -0.6337
16670TIP3   OH271500   1.655   0.877  15.502 -0.2151 -0.2381 -0.0232
16670TIP3    H171501   1.591   0.929  15.454 -0.1515 -0.6612 -0.5796
16670TIP3    H271502   1.636   0.787  15.476  1.5424 -0.2641 -1.3681
16671TIP3   OH271503   1.594   1.709  17.022 -0.0043  0.2991  0.0415
16671TIP3    H171504   1.660   1.778  17.014  1.7989 -1.1104  1.7276
16671TIP3    H271505   1.635   1.632  16.982 -2.1377  0.2075 -2.1898
16672TIP3   OH271506   5.023   4.646  15.253  0.8251  0.4094 -0.3209
16672TIP3    H171507   5.002   4.588  15.326  1.2535 -0.4774 -0.8811
16672TIP3    H271508   5.045   4.587  15.181  0.2818  1.2639 -1.2161
16673TIP3   OH271509   0.460   3.210  14.424  0.3630 -0.5093  0.0602
16673TIP3    H171510   0.462   3.120  14.457  1.2904 -0.2740  0.6723
16673TIP3    H271511   0.414   3.259  14.491 -1.3221 -0.7267 -0.8653
16674TIP3   OH271512   0.792   3.203  12.426  0.1324 -0.1380 -0.1900
16674TIP3    H171513   0.792   3.197  12.522  0.1179 -2.0057 -0.2778
16674TIP3    H271514   0.856   3.271  12.407  0.8562 -0.4062  1.1196
16675TIP3   OH271515   2.210   6.586   2.465 -0.5934 -0.1303  0.3830
16675TIP3    H171516   2.178   6.498   2.486 -0.2151 -0.4136 -0.1923
16675TIP3    H271517   2.196   6.594   2.371 -0.4635  0.3659  0.4051
16676TIP3   OH271518   6.757   0.336  11.359 -1.1475 -0.6127  0.3761
16676TIP3    H171519   6.755   0.249  11.319 -0.0266 -0.5784  0.1961
16676TIP3    H271520   6.846   0.342  11.396 -1.0978  0.5949  0.0760
16677TIP3   OH271521   1.717   3.866  16.561 -0.6971  0.5982  0.0829
16677TIP3    H171522   1.790   3.927  16.550 -1.9207  2.0492 -0.3897
16677TIP3    H271523   1.675   3.862  16.475 -1.4290  0.1314  0.4494
16678TIP3   OH271524   4.558   3.748  12.503 -0.3528 -0.1823  0.0266
16678TIP3    H171525   4.563   3.803  12.425  2.4789 -1.5523 -0.8886
16678TIP3    H271526   4.583   3.806  12.575  1.5520  0.0542 -0.7759
16679TIP3   OH271527   2.073   6.601  15.617 -0.2238  0.4004  0.6759
16679TIP3    H171528   2.153   6.636  15.577 -0.0952  1.4219  1.7780
16679TIP3    H271529   2.015   6.584  15.543  0.9374 -0.1966 -0.1311
16680TIP3   OH271530   5.237   0.281   4.536 -0.5763  0.2769 -0.1074
16680TIP3    H171531   5.161   0.232   4.504 -1.6276  2.2924 -0.9100
16680TIP3    H271532   5.229   0.277   4.631 -0.7359 -0.9038 -0.1517
16681TIP3   OH271533   2.786   5.657   2.361 -0.5014  0.1528 -0.2568
16681TIP3    H171534   2.798   5.735   2.416 -1.5273  1.0246 -1.2157
16681TIP3    H271535   2.875   5.630   2.338 -0.1302  1.3427 -0.2919
16682TIP3   OH271536   1.946   4.942   3.426 -0.1958  0.2041  0.3809
16682TIP3    H171537   2.014   4.898   3.478  0.7906  0.6504 -0.4928
16682TIP3    H271538   1.995   4.995   3.363 -1.3562  2.0825  0.9992
16683TIP3   OH271539   2.101   6.000  12.261  0.0480 -0.5431 -0.3896
16683TIP3    H171540   2.016   5.987  12.218 -0.0670  2.3593 -1.1965
16683TIP3    H271541   2.079   6.010  12.353 -0.1612 -2.3871 -0.1991
16684TIP3   OH271542   3.059   1.003   4.457  0.2422 -0.8783 -0.3714
16684TIP3    H171543   3.138   1.051   4.434  0.9360 -1.9574 -0.3163
16684TIP3    H271544   3.070   0.917   4.416  0.1092 -1.7838  1.3645
16685TIP3   OH271545   3.577   1.331   3.818  0.1259  0.4447  0.2039
16685TIP3    H171546   3.536   1.410   3.852 -0.3342  0.2221  0.1782
16685TIP3    H271547   3.504   1.271   3.801  0.5210 -0.3311  1.1112
16686TIP3   OH271548   6.556   1.866   0.757 -0.4765 -0.2445 -0.0533
16686TIP3    H171549   6.637   1.867   0.808 -0.4245 -0.2969 -0.1339
16686TIP3    H271550   6.501   1.932   0.798 -1.6026 -2.2547  1.9435
16687TIP3   OH271551   5.389   3.885   0.015 -0.7908  0.1101 -0.4110
16687TIP3    H171552   5.418   3.863   0.104  0.0334  1.8162 -0.2301
16687TIP3    H271553   5.468   3.882  -0.038 -0.8630  1.4000 -0.6126
16688TIP3   OH271554   0.934   5.226   5.055 -0.2511 -0.1155  0.3121
16688TIP3    H171555   0.979   5.222   5.139 -1.0970  0.8815  0.8347
16688TIP3    H271556   0.947   5.139   5.017 -0.8879 -1.0012  2.0191
16689TIP3   OH271557   3.471   3.926   5.813 -0.3126 -0.5934 -0.2319
16689TIP3    H171558   3.515   3.862   5.757 -1.3759 -0.1783 -1.6018
16689TIP3    H271559   3.501   4.011   5.781 -0.0529 -0.3716  0.5910
16690TIP3   OH271560   5.312   1.786  12.054 -0.1335  0.6534  0.0949
16690TIP3    H171561   5.314   1.691  12.044  1.7940  0.7535 -1.1317
16690TIP3    H271562   5.229   1.805  12.098 -0.9055 -1.5186 -0.3227
16691TIP3   OH271563   1.819   1.133  16.636  0.3335 -0.6445 -0.2326
16691TIP3    H171564   1.799   1.224  16.613 -1.2685 -0.8449  0.2564
16691TIP3    H271565   1.896   1.112  16.584 -0.2212  0.4958 -1.5986
16692TIP3   OH271566   0.280   4.404   5.459  0.8583 -0.5107 -0.3971
16692TIP3    H171567   0.261   4.446   5.542 -3.6408 -0.2748 -1.2733
16692TIP3    H271568   0.263   4.311   5.474 -1.6125 -0.2715 -1.3045
16693TIP3   OH271569   1.170   5.037   4.888  0.2622  0.2889  0.1341
16693TIP3    H171570   1.172   4.951   4.930 -0.5258  0.2926  0.1941
16693TIP3    H271571   1.202   5.022   4.799  0.5992  0.0258  0.2991
16694TIP3   OH271572   1.351   3.980  11.394  0.2240 -0.1822 -0.2566
16694TIP3    H171573   1.281   4.020  11.342 -0.3681 -0.7481  0.0858
16694TIP3    H271574   1.364   3.894  11.353 -0.0411 -0.5124  0.3349
16695TIP3   OH271575   6.445   2.868  12.926 -0.3852  0.1275 -0.2776
16695TIP3    H171576   6.485   2.850  13.011 -2.5730  0.6148  0.9283
16695TIP3    H271577   6.428   2.781  12.888  0.4010 -0.0944 -0.1328
16696TIP3   OH271578   1.395   2.439  11.492 -0.2716 -0.4455 -0.6454
16696TIP3    H171579   1.391   2.435  11.588  0.4291  0.6087 -0.5590
16696TIP3    H271580   1.461   2.373  11.468  1.2474  0.8660 -0.2190
16697TIP3   OH271581   6.465   3.714  10.767  0.0916  0.3849 -0.8152
16697TIP3    H171582   6.544   3.716  10.821  0.7551 -1.9824 -1.5526
16697TIP3    H271583   6.396   3.685  10.827  0.2336  0.4449 -0.6211
16698TIP3   OH271584   3.616   1.802   1.151 -0.5991 -0.4991  0.0668
16698TIP3    H171585   3.605   1.775   1.060  0.6550  2.0589 -0.9121
16698TIP3    H271586   3.710   1.812   1.162 -0.6971 -1.0826  1.7999
16699TIP3   OH271587   1.558   5.489   2.417 -0.4887 -0.0514 -0.5695
16699TIP3    H171588   1.570   5.507   2.324  0.1638  0.5990 -0.3741
16699TIP3    H271589   1.622   5.421   2.437 -0.3420  0.0982 -0.5195
16700TIP3   OH271590   3.232   0.243  11.948 -0.2140  0.2233 -0.9453
16700TIP3    H171591   3.244   0.262  11.855 -2.2765 -0.7738 -1.4697
16700TIP3    H271592   3.216   0.329  11.988  0.2533  0.6099 -1.5885
16701TIP3   OH271593   3.970   4.181  11.056  0.1223 -0.3930  0.4870
16701TIP3    H171594   3.974   4.129  10.975 -2.9293  1.4898 -1.0537
16701TIP3    H271595   3.916   4.128  11.115  2.9620 -2.1195  1.7571
16702TIP3   OH271596   0.516   3.136  17.136 -0.3750  0.3421  0.2963
16702TIP3    H171597   0.492   3.146  17.043 -2.7833  0.3036  0.8499
16702TIP3    H271598   0.457   3.068  17.169 -0.4142  1.2184  2.1514
16703TIP3   OH271599   2.423   4.758  10.992 -0.1228  0.1419 -0.4271
16703TIP3    H171600   2.466   4.839  10.964 -0.1015 -0.0336 -0.9033
16703TIP3    H271601   2.335   4.763  10.955 -0.0572 -0.1431 -0.6272
16704TIP3   OH271602   1.421   6.613   0.596  0.3242 -0.6005 -0.6159
16704TIP3    H171603   1.515   6.613   0.613  0.4431  1.0564 -1.0542
16704TIP3    H271604   1.414   6.624   0.501 -0.3047 -0.6104 -0.5770
16705TIP3   OH271605   0.429   0.136   0.952 -0.2460 -0.0586  0.3580
16705TIP3    H171606   0.366   0.191   0.906 -0.2893 -0.9667 -0.7145
16705TIP3    H271607   0.439   0.059   0.896  1.2155 -0.2989  0.8986
16706TIP3   OH271608   0.930   2.904  16.175 -0.2717  0.2387 -0.2334
16706TIP3    H171609   0.890   2.978  16.221  1.1421  1.1470 -0.3917
16706TIP3    H271610   0.868   2.832  16.186 -0.9510  1.0116  1.2999
16707TIP3   OH271611   6.040   0.647   1.172  0.0748 -0.4483  0.1996
16707TIP3    H171612   5.951   0.682   1.175  0.4336  0.5998 -0.8155
16707TIP3    H271613   6.095   0.717   1.206  0.5949 -0.7985  0.0935
16708TIP3   OH271614   4.613   0.732   4.481 -0.1658 -0.5028 -0.3104
16708TIP3    H171615   4.619   0.673   4.405 -1.3272 -0.6434 -0.3158
16708TIP3    H271616   4.556   0.803   4.451 -0.9633 -0.7626  0.5501
16709TIP3   OH271617   3.467   3.689   4.281  0.2990 -0.0529 -0.1004
16709TIP3    H171618   3.506   3.722   4.361  2.1026  1.3821 -1.4918
16709TIP3    H271619   3.377   3.665   4.306  0.0688  2.4696  1.8391
16710TIP3   OH271620   5.839   6.121  12.917  0.3047  0.3096  0.2581
16710TIP3    H171621   5.872   6.103  12.829 -1.0328  0.4593 -0.2897
16710TIP3    H271622   5.756   6.166  12.903 -0.5966 -0.8689  1.5656
16711TIP3   OH271623   4.183   4.896   0.642  0.0687 -0.0011  0.2404
16711TIP3    H171624   4.272   4.931   0.655  0.0451 -0.5808  2.2474
16711TIP3    H271625   4.189   4.805   0.670 -1.0091 -0.2437 -0.2810
16712TIP3   OH271626   6.044   4.459  10.794 -0.5361 -0.1691 -0.1798
16712TIP3    H171627   6.099   4.384  10.816 -2.0915 -1.1457  0.5750
16712TIP3    H271628   5.958   4.422  10.777 -0.9383  1.2880 -1.5638
16713TIP3   OH271629   3.509   2.831   1.425  0.0869  0.8903 -0.3951
16713TIP3    H171630   3.431   2.800   1.379  0.0019  1.2818 -0.5165
16713TIP3    H271631   3.485   2.830   1.518  0.2003  0.2658 -0.3687
16714TIP3   OH271632   3.417   2.948  17.241  0.1246 -0.5014 -0.1375
16714TIP3    H171633   3.338   2.894  17.245 -0.2715  0.0099 -0.8310
16714TIP3    H271634   3.398   3.012  17.173  0.7955  0.1897  0.3195
16715TIP3   OH271635   0.901   0.607   6.395 -0.2132  0.0891 -0.1507
16715TIP3    H171636   0.961   0.568   6.459 -1.0279  0.6732  0.9819
16715TIP3    H271637   0.814   0.575   6.421 -1.1435  3.5973  1.6803
16716TIP3   OH271638   3.470   4.706  11.188 -0.2989  0.0193 -0.3991
16716TIP3    H171639   3.509   4.793  11.179  0.4957 -0.4390 -1.6045
16716TIP3    H271640   3.384   4.714  11.148  0.1856 -0.0030 -1.4818
16717TIP3   OH271641   5.549   0.395  17.197  0.3018 -0.4731 -1.0046
16717TIP3    H171642   5.481   0.463  17.194  1.2530  1.0309  3.7401
16717TIP3    H271643   5.616   0.426  17.136  0.2010  2.4010  0.1712
16718TIP3   OH271644   3.185   1.571   5.554  0.1418 -0.2167  0.2802
16718TIP3    H171645   3.247   1.523   5.611 -0.0272 -1.2395 -0.3648
16718TIP3    H271646   3.239   1.602   5.482  0.1580  0.1374  0.4441
16719TIP3   OH271647   3.443   3.667  16.826 -0.3641  0.3461 -0.2063
16719TIP3    H171648   3.450   3.760  16.802 -0.1282  0.4658  0.3155
16719TIP3    H271649   3.510   3.624  16.772  1.2894  0.8394  1.3420
16720TIP3   OH271650   4.498   0.227  15.561 -0.2850  0.6162 -0.6662
16720TIP3    H171651   4.526   0.182  15.641  1.7654  1.3445 -0.9121
16720TIP3    H271652   4.404   0.239  15.571 -0.4624 -1.4589  0.5267
16721TIP3   OH271653   6.344   2.835   1.119 -0.2900  0.0949  0.0425
16721TIP3    H171654   6.407   2.877   1.177 -0.2978  1.4660 -0.8846
16721TIP3    H271655   6.260   2.843   1.164  0.0457 -1.0860  0.9451
16722TIP3   OH271656   0.525   1.993  13.512  0.2587  0.3954  0.5116
16722TIP3    H171657   0.506   1.944  13.592 -0.7089  1.0811  0.7240
16722TIP3    H271658   0.593   2.056  13.538  1.0852 -0.4304  0.3826
16723TIP3   OH271659   2.856   4.028  10.407 -0.0572  0.3802 -0.2110
16723TIP3    H171660   2.922   4.017  10.476 -0.0318  0.4617 -0.2221
16723TIP3    H271661   2.841   4.122  10.404 -1.1346  0.2584  0.6902
16724TIP3   OH271662   6.298   0.650   2.316  0.3545  0.5419  0.4482
16724TIP3    H171663   6.277   0.690   2.400 -1.0697  0.1129  0.3244
16724TIP3    H271664   6.298   0.556   2.334 -1.9120  0.3299 -0.3981
16725TIP3   OH271665   3.445   2.323   5.704 -0.3596  0.2199 -0.4027
16725TIP3    H171666   3.525   2.324   5.757 -0.7552  0.3520  0.1946
16725TIP3    H271667   3.445   2.236   5.663  0.2953  0.3684 -0.7293
16726TIP3   OH271668   1.507   6.717  15.444 -0.0705  0.6124  0.4837
16726TIP3    H171669   1.555   6.722  15.361  0.1957  1.5586  0.6730
16726TIP3    H271670   1.416   6.733  15.420 -0.3597 -1.3647  0.0986
16727TIP3   OH271671   4.369   3.975   1.649 -0.0790  0.1159  0.4251
16727TIP3    H171672   4.342   3.931   1.729  1.4414 -0.2876  0.7358
16727TIP3    H271673   4.347   4.067   1.664 -0.7111 -0.0973  0.8852
16728TIP3   OH271674   3.638   3.646  14.445  0.1434 -0.4009 -0.1958
16728TIP3    H171675   3.647   3.567  14.392 -1.3044 -0.0461 -1.0195
16728TIP3    H271676   3.649   3.615  14.535  0.5428 -1.3744 -0.5677
16729TIP3   OH271677   0.257   5.447   2.709 -0.2184  0.1413 -0.1921
16729TIP3    H171678   0.252   5.461   2.614  2.8067 -0.0927 -0.4886
16729TIP3    H271679   0.203   5.370   2.724 -1.7440  0.8941 -1.5011
16730TIP3   OH271680   1.289   1.907  11.977 -0.1106  0.3403 -0.1618
16730TIP3    H171681   1.323   1.935  12.062  1.8192 -1.4122 -0.2595
16730TIP3    H271682   1.301   1.982  11.919  0.7055  0.7968  0.5848
16731TIP3   OH271683   0.376   3.604  14.209 -0.0454 -0.2748 -0.1963
16731TIP3    H171684   0.303   3.666  14.218  0.4762  0.1883  1.0722
16731TIP3    H271685   0.370   3.574  14.119 -1.0736  0.6828 -0.4776
16732TIP3   OH271686   5.719   4.964   0.872  0.0379 -0.4599  0.2772
16732TIP3    H171687   5.783   4.934   0.936  2.5222  1.0126 -1.3312
16732TIP3    H271688   5.690   5.050   0.904 -1.6789 -1.3614  1.2921
16733TIP3   OH271689   2.117   1.795   2.615 -0.3357 -0.0006 -0.7623
16733TIP3    H171690   2.024   1.805   2.636 -0.5347 -0.4875 -1.3830
16733TIP3    H271691   2.162   1.829   2.692 -1.0243  0.4159 -0.5287
16734TIP3   OH271692   1.065   4.258  11.676  0.2450 -0.4928  0.0407
16734TIP3    H171693   1.154   4.290  11.688 -0.0383  1.0881 -1.6156
16734TIP3    H271694   1.075   4.166  11.653  1.5340 -0.0951 -1.0726
16735TIP3   OH271695   1.800   5.525  16.867  0.0284 -0.5632  0.2615
16735TIP3    H171696   1.839   5.449  16.910  0.3990 -0.8959 -0.6274
16735TIP3    H271697   1.868   5.555  16.806 -0.5948 -0.3072 -0.3245
16736TIP3   OH271698   3.388   2.216  14.771 -0.1220 -0.4674  0.1011
16736TIP3    H171699   3.440   2.139  14.746 -0.1252 -0.5235  0.2642
16736TIP3    H271700   3.443   2.290  14.746  0.3677 -0.5260  0.9232
16737TIP3   OH271701   6.468   4.280  10.986  0.2535  0.6089 -0.2523
16737TIP3    H171702   6.493   4.372  10.993  0.4576  0.7354 -2.1356
16737TIP3    H271703   6.542   4.237  10.944  0.0218 -0.3582  0.2897
16738TIP3   OH271704   0.651   4.431  11.729 -0.6630 -0.1537  0.1411
16738TIP3    H171705   0.568   4.393  11.703 -0.7250 -0.5533  0.8701
16738TIP3    H271706   0.629   4.488  11.804 -0.2632 -0.4020  0.4518
16739TIP3   OH271707   6.375   0.365  14.530 -0.3345  0.3185  0.1402
16739TIP3    H171708   6.375   0.328  14.618  1.0877  0.4595  0.2197
16739TIP3    H271709   6.308   0.434  14.533 -0.8826 -0.2344  0.8543
16740TIP3   OH271710   4.402   1.519  12.209  0.2311 -0.1500 -0.1232
16740TIP3    H171711   4.424   1.485  12.296 -0.9939 -1.9041 -0.4419
16740TIP3    H271712   4.396   1.614  12.221  0.4193 -0.3281  1.6269
16741TIP3   OH271713   1.516   2.090   5.301 -0.1075  0.5235 -0.0796
16741TIP3    H171714   1.447   2.082   5.368 -0.7323 -0.6642 -0.8372
16741TIP3    H271715   1.573   2.015   5.317  1.4869  1.8987  1.0164
16742TIP3   OH271716   5.426   4.107   0.262  0.2602  0.3420 -0.2880
16742TIP3    H171717   5.401   4.162   0.188 -0.7881  0.0958 -0.1300
16742TIP3    H271718   5.401   4.157   0.340 -1.2275 -0.5399 -0.1435
16743TIP3   OH271719   3.396   1.644  16.593  0.0887 -0.0045  0.0997
16743TIP3    H171720   3.392   1.553  16.563  1.7649  0.0094 -0.2666
16743TIP3    H271721   3.383   1.639  16.688 -0.7086 -0.5169 -0.0243
16744TIP3   OH271722   4.278   1.339  12.652 -0.5604  0.5007  0.2347
16744TIP3    H171723   4.270   1.277  12.579 -1.1794  2.0671 -1.1039
16744TIP3    H271724   4.363   1.381  12.639 -1.8203  2.7897 -1.3543
16745TIP3   OH271725   0.629   3.270  15.798 -0.0180  0.2939 -0.3303
16745TIP3    H171726   0.644   3.230  15.713  0.1793  1.6747 -0.9597
16745TIP3    H271727   0.540   3.303  15.794 -0.1293  0.0655  0.1349
16746TIP3   OH271728   5.039   5.306   1.142 -0.0773 -0.3147  0.1401
16746TIP3    H171729   5.124   5.262   1.143 -0.0376 -0.2453 -0.2477
16746TIP3    H271730   5.060   5.400   1.148 -0.1511 -0.3253  0.6516
16747TIP3   OH271731   5.138   4.846   3.969 -0.2622  0.0029 -0.2291
16747TIP3    H171732   5.157   4.825   4.060  0.9185 -1.3727 -0.7498
16747TIP3    H271733   5.223   4.845   3.926 -0.6715  1.6680 -1.1803
16748TIP3   OH271734   2.217   6.788  17.239 -0.4231 -0.2610  0.3251
16748TIP3    H171735   2.222   6.753  17.328 -0.1050 -0.8371  0.0880
16748TIP3    H271736   2.273   6.730  17.187 -1.0752 -0.2884 -0.3634
16749TIP3   OH271737   1.313   0.998   6.266  0.1564 -0.1030  0.8245
16749TIP3    H171738   1.248   1.007   6.335  0.7811 -1.3827  1.6392
16749TIP3    H271739   1.364   1.079   6.270  1.0774 -0.7045  2.8837
16750TIP3   OH271740   1.209   3.003  14.948 -0.0241  0.1653  0.4979
16750TIP3    H171741   1.232   3.049  15.029  0.5384  0.5500  0.1330
16750TIP3    H271742   1.114   3.006  14.944 -0.1172 -0.6159  1.5773
16751TIP3   OH271743   0.243   6.075  12.513  0.7784  0.3649  0.1878
16751TIP3    H171744   0.268   6.156  12.556 -2.0035  1.1625  0.4926
16751TIP3    H271745   0.209   6.019  12.583 -0.7144  0.4100 -0.4420
16752TIP3   OH271746   4.144   4.023   4.970  0.1576  0.1555 -0.3221
16752TIP3    H171747   4.192   4.084   5.025  0.3453 -1.2450  1.1404
16752TIP3    H271748   4.052   4.049   4.978 -0.0084 -0.8286  1.8547
16753TIP3   OH271749   0.995   4.818  15.226 -0.0358 -0.2488  0.4812
16753TIP3    H171750   0.904   4.845  15.219 -0.4947 -1.8394 -0.0155
16753TIP3    H271751   1.045   4.898  15.213 -1.3471  1.1426  3.0955
16754TIP3   OH271752   0.052   5.196  11.724  0.1366 -0.0819  0.2172
16754TIP3    H171753   0.068   5.102  11.711  0.6074 -0.0035  0.2141
16754TIP3    H271754  -0.029   5.199  11.776  0.3887 -0.5044  0.6489
16755TIP3   OH271755   1.022   1.930  13.883  0.2249  0.7738 -0.1708
16755TIP3    H171756   1.054   1.840  13.874 -0.9162  0.1690  1.3220
16755TIP3    H271757   1.101   1.983  13.895  0.8710 -0.1452 -0.2811
16756TIP3   OH271758   2.419   3.480  12.845 -0.0512 -0.3194 -0.4936
16756TIP3    H171759   2.440   3.533  12.768  0.5076 -0.8892 -0.7435
16756TIP3    H271760   2.392   3.543  12.911 -0.2242  0.2048 -1.0550
16757TIP3   OH271761   6.435   0.728   0.686 -0.1022 -0.1919  0.4458
16757TIP3    H171762   6.419   0.790   0.758  0.8886  1.4378 -0.6648
16757TIP3    H271763   6.400   0.772   0.609  0.9116 -0.8622 -0.4218
16758TIP3   OH271764   5.384   0.079   2.661 -0.7120  0.0570  0.1952
16758TIP3    H171765   5.387   0.137   2.737  0.0974  0.2875 -0.0095
16758TIP3    H271766   5.465   0.029   2.666 -2.4306 -2.9060  1.7800
16759TIP3   OH271767   4.547   2.790  12.395 -0.3527  0.2248  0.4237
16759TIP3    H171768   4.483   2.781  12.324 -0.3813 -0.8827  0.5754
16759TIP3    H271769   4.495   2.788  12.475 -0.5152  3.2561  0.4927
16760TIP3   OH271770   0.918   3.966   0.913 -0.1705 -0.5137  0.3192
16760TIP3    H171771   0.867   4.021   0.973 -1.3325  0.0891 -1.1625
16760TIP3    H271772   1.004   4.008   0.910 -0.8883  0.9908 -0.3969
16761TIP3   OH271773   2.566   4.403   5.737  0.1876 -0.5430  0.5560
16761TIP3    H171774   2.657   4.387   5.712 -0.1000  0.2262 -1.1824
16761TIP3    H271775   2.567   4.408   5.832  2.3651  1.4967  0.5182
16762TIP3   OH271776   4.453   1.116  10.760  0.6866  0.4570  0.1207
16762TIP3    H171777   4.508   1.185  10.722 -0.2063  0.6470 -0.8972
16762TIP3    H271778   4.475   1.038  10.710 -0.5163  0.7131 -0.8613
16763TIP3   OH271779   0.998   0.540   3.029 -0.4594 -0.3582  0.3926
16763TIP3    H171780   1.086   0.520   3.060 -0.7760 -0.3251  1.3679
16763TIP3    H271781   1.006   0.626   2.987 -0.1245 -0.0997  0.9721
16764TIP3   OH271782   3.449   4.969  11.294  0.4106  0.2710  0.0392
16764TIP3    H171783   3.387   5.025  11.339  0.0926  1.3158 -1.6446
16764TIP3    H271784   3.529   5.022  11.286  0.5866 -0.0323 -0.2813
16765TIP3   OH271785   1.631   3.840  14.077 -0.1832  0.7220  0.0533
16765TIP3    H171786   1.608   3.849  13.984 -0.7082 -2.1396 -0.1813
16765TIP3    H271787   1.714   3.792  14.077 -0.8129 -0.4246  1.0404
16766TIP3   OH271788   4.186   4.761   1.944  0.0102 -0.8101  0.1959
16766TIP3    H171789   4.247   4.736   2.013 -0.0664  2.5759  1.7049
16766TIP3    H271790   4.107   4.788   1.990 -0.7207 -0.1800 -1.3464
16767TIP3   OH271791   1.362   4.393  13.153 -0.0874  0.1199 -0.3596
16767TIP3    H171792   1.454   4.389  13.129 -0.4308 -0.3180 -1.7131
16767TIP3    H271793   1.330   4.475  13.115 -0.0908  0.6919  0.8207
16768TIP3   OH271794   5.822   4.690  15.479 -0.2445 -0.4222  0.3982
16768TIP3    H171795   5.851   4.618  15.535 -0.4628 -0.0187  1.0454
16768TIP3    H271796   5.741   4.721  15.521  0.5409  1.0512  0.8764
16769TIP3   OH271797   3.933   3.401   0.433 -0.0439  0.3759 -0.3266
16769TIP3    H171798   3.998   3.343   0.393 -0.0533 -0.3039  0.6261
16769TIP3    H271799   3.865   3.410   0.366  0.3109 -0.1202 -0.7622
16770TIP3   OH271800   2.938   5.445  13.348 -0.1332  0.2904  0.4818
16770TIP3    H171801   3.030   5.442  13.374 -0.2518  1.0137  1.0149
16770TIP3    H271802   2.895   5.495  13.417 -1.2475 -1.4630  1.1410
16771TIP3   OH271803   6.173   4.295   0.749 -0.2210 -0.6063 -0.2943
16771TIP3    H171804   6.212   4.267   0.832 -3.1879 -0.6332  1.2306
16771TIP3    H271805   6.088   4.249   0.746 -0.9581  0.7420 -2.5074
16772TIP3   OH271806   4.003   4.447  15.142 -0.0206  0.0424  0.1961
16772TIP3    H171807   3.960   4.481  15.221 -0.7407 -1.0314  0.2878
16772TIP3    H271808   3.994   4.518  15.078  1.4701  1.3381  1.3376
16773TIP3   OH271809   4.977   1.256   0.749 -0.1765 -0.0028  0.4245
16773TIP3    H171810   4.990   1.349   0.764  0.5874 -0.3718  2.2114
16773TIP3    H271811   5.065   1.220   0.742 -0.4636 -0.6349 -0.1372
16774TIP3   OH271812   0.346   4.886  16.389  0.0494 -0.8493 -0.0067
16774TIP3    H171813   0.403   4.821  16.430  0.7327 -0.1676  0.1493
16774TIP3    H271814   0.392   4.909  16.308 -0.4521 -0.9501 -0.3196
16775TIP3   OH271815   6.146   0.833   4.905 -0.3200 -0.2479  0.3271
16775TIP3    H171816   6.213   0.884   4.858 -1.3999  0.2464 -0.7398
16775TIP3    H271817   6.097   0.898   4.955 -0.9405 -0.3881 -0.0821
16776TIP3   OH271818   2.160   4.038   2.825 -0.1973  0.2932  0.0983
16776TIP3    H171819   2.092   4.055   2.759 -2.3104 -1.3162  1.7096
16776TIP3    H271820   2.205   3.960   2.793 -0.5056  0.1443  0.0232
16777TIP3   OH271821   2.477   4.824   0.491 -0.0794 -0.4431  0.5006
16777TIP3    H171822   2.502   4.745   0.539 -0.7056 -1.1096 -0.2502
16777TIP3    H271823   2.528   4.820   0.410 -1.7864 -1.2667 -0.5689
16778TIP3   OH271824   5.535   5.575   1.403 -0.3825 -0.1891  0.3694
16778TIP3    H171825   5.622   5.614   1.396 -0.3649 -0.2603  0.1817
16778TIP3    H271826   5.477   5.649   1.419 -0.1952 -0.2254  1.2689
16779TIP3   OH271827   5.356   0.811  14.733  0.0056  0.3645 -0.0073
16779TIP3    H171828   5.409   0.736  14.707 -2.3964 -0.9381 -1.6088
16779TIP3    H271829   5.403   0.887  14.698  1.8579 -0.4825  0.5550
16780TIP3   OH271830   3.108   2.007   0.428 -0.2781 -0.7390  0.1281
16780TIP3    H171831   3.037   1.991   0.491 -0.3183 -0.3193  0.1885
16780TIP3    H271832   3.148   2.089   0.457  0.0165 -0.7975 -0.1078
16781TIP3   OH271833   2.781   0.063   0.823  0.2586 -0.2876  0.0782
16781TIP3    H171834   2.687   0.056   0.804  0.1686  1.5288 -0.2983
16781TIP3    H271835   2.800   0.156   0.816  2.4164 -0.7588 -1.3502
16782TIP3   OH271836   3.999   6.612   0.409 -0.1490  0.5901 -0.1380
16782TIP3    H171837   3.966   6.671   0.476 -1.7372 -0.0559 -0.2947
16782TIP3    H271838   3.921   6.581   0.364  0.7861 -0.0804 -1.3690
16783TIP3   OH271839   6.201   5.429   4.217  0.4058 -0.1949 -0.2427
16783TIP3    H171840   6.146   5.438   4.140 -0.7606 -0.7616  0.5087
16783TIP3    H271841   6.191   5.338   4.245  0.5913  0.0683  0.7391
16784TIP3   OH271842   5.931   0.978   3.582 -0.2027 -0.3153 -0.5397
16784TIP3    H171843   5.924   0.921   3.659  0.1212  0.2376 -0.0836
16784TIP3    H271844   6.005   0.942   3.533  1.7608  1.1906  1.0931
16785TIP3   OH271845   1.414   2.646  14.068  0.2848 -0.0071 -0.8078
16785TIP3    H171846   1.357   2.636  14.144  1.2794  0.2379 -0.0097
16785TIP3    H271847   1.354   2.648  13.993 -0.6338 -1.8176 -0.1830
16786TIP3   OH271848   1.532   3.969  13.519  0.2837  0.2640  0.3484
16786TIP3    H171849   1.438   3.966  13.540  0.6484 -2.0893  1.9842
16786TIP3    H271850   1.539   4.037  13.452 -2.6384  0.2569 -0.0885
16787TIP3   OH271851   0.343   1.784  12.818  0.0650 -0.0739 -0.0901
16787TIP3    H171852   0.291   1.740  12.885  0.0524 -0.5690 -0.4199
16787TIP3    H271853   0.433   1.780  12.851  0.1089 -0.6431 -0.2711
16788TIP3   OH271854   1.522   6.570  16.738  0.1151 -0.1680 -0.2073
16788TIP3    H171855   1.439   6.535  16.770 -1.0628  2.0254 -0.6283
16788TIP3    H271856   1.496   6.636  16.674  1.9978  2.9434  1.9684
16789TIP3   OH271857   2.636   6.043   5.019  0.2065  0.4203 -0.0080
16789TIP3    H171858   2.622   5.987   5.095 -1.3215  0.1532 -0.4555
16789TIP3    H271859   2.617   6.132   5.051  1.0625  0.5061  0.2914
16790TIP3   OH271860   2.788   3.228   4.569 -0.6595 -0.2335  0.0060
16790TIP3    H171861   2.720   3.287   4.601 -0.7607  0.5436 -1.5665
16790TIP3    H271862   2.767   3.144   4.610 -2.7054 -0.0651 -0.5666
16791TIP3   OH271863   4.803   3.122   4.314 -0.0859 -0.3444  0.1522
16791TIP3    H171864   4.771   3.052   4.256 -0.6361  1.3158 -1.6730
16791TIP3    H271865   4.726   3.176   4.331  0.4168  0.0767  1.1655
16792TIP3   OH271866   5.803   6.661   0.395 -0.3754 -0.3097  0.1992
16792TIP3    H171867   5.756   6.745   0.394 -1.0973 -0.7036 -1.4484
16792TIP3    H271868   5.753   6.607   0.456  0.0530  0.4123  1.2236
16793TIP3   OH271869   2.808   5.653  17.138  0.0030  0.2920 -0.1725
16793TIP3    H171870   2.839   5.669  17.227 -2.4393 -0.1387  0.8307
16793TIP3    H271871   2.785   5.740  17.104 -1.7601  0.2196  0.7340
16794TIP3   OH271872   1.424   6.186  16.288  0.0979  0.3203  0.4264
16794TIP3    H171873   1.513   6.215  16.306  0.3817 -0.4293  0.2672
16794TIP3    H271874   1.379   6.264  16.255  0.1912  1.1629  2.2028
16795TIP3   OH271875   0.704   4.960   0.694 -0.2630 -0.1662 -0.2759
16795TIP3    H171876   0.793   4.968   0.727 -0.3064  0.0776 -0.2128
16795TIP3    H271877   0.650   4.950   0.773 -0.3644  0.3963 -0.2632
16796TIP3   OH271878   3.598   4.878   4.613 -0.4577 -0.1830 -0.3886
16796TIP3    H171879   3.640   4.964   4.616  0.2816 -0.5286 -0.6499
16796TIP3    H271880   3.622   4.836   4.695  0.9470 -0.9398 -1.1536
16797TIP3   OH271881   1.430   4.657   2.529 -0.5971 -0.2926  0.2173
16797TIP3    H171882   1.496   4.597   2.563  0.0653 -0.6045 -1.5125
16797TIP3    H271883   1.465   4.685   2.444 -1.2399  1.9452  0.6220
16798TIP3   OH271884   6.414   0.830  14.027 -0.3758  0.4808  0.3894
16798TIP3    H171885   6.477   0.800  13.962  0.4531  1.3558  0.7745
16798TIP3    H271886   6.402   0.754  14.085 -0.5246 -0.0462 -0.3224
16799TIP3   OH271887   0.095   4.609  15.949  0.4228 -0.3093  0.5737
16799TIP3    H171888   0.023   4.547  15.959 -0.0772  0.0401 -0.6765
16799TIP3    H271889   0.127   4.623  16.038  0.8301 -2.6809  0.8776
16800TIP3   OH271890   2.236   3.947  13.612  0.0135 -0.0856  0.8181
16800TIP3    H171891   2.232   3.935  13.707  3.3250  0.5393  1.1553
16800TIP3    H271892   2.283   3.870  13.581  1.1219  0.8535  0.0660
16801TIP3   OH271893   2.885   2.286  15.093  0.7641  0.0051  0.3853
16801TIP3    H171894   2.838   2.354  15.140 -0.2071 -0.3166 -0.0919
16801TIP3    H271895   2.836   2.275  15.012  0.4082 -1.8291  0.8037
16802TIP3   OH271896   6.465   4.809  15.466  0.5931 -0.2150 -0.4135
16802TIP3    H171897   6.461   4.739  15.531  0.5631  0.0227 -0.1548
16802TIP3    H271898   6.380   4.854  15.474  0.2023 -0.7691 -1.2861
16803TIP3   OH271899   3.803   4.407  12.897 -0.2601 -0.5000 -0.2067
16803TIP3    H171900   3.819   4.457  12.817 -2.6662 -0.6889 -0.8922
16803TIP3    H271901   3.740   4.461  12.946 -0.4008 -1.3522  0.5777
16804TIP3   OH271902   6.482   1.109  13.551 -0.2607 -0.1870 -0.3025
16804TIP3    H171903   6.482   1.033  13.608  2.5430  0.3434  0.5731
16804TIP3    H271904   6.527   1.080  13.472 -1.0935 -0.0061 -0.8486
16805TIP3   OH271905   3.966   0.550   0.388  0.0327 -0.3476  0.0145
16805TIP3    H171906   3.939   0.490   0.457  1.0565  0.2245  0.9438
16805TIP3    H271907   3.891   0.609   0.377 -0.7067 -1.3430 -0.4206
16806TIP3   OH271908   6.162   2.299  12.789  0.7339  0.2388  0.0448
16806TIP3    H171909   6.133   2.372  12.844  0.3151  1.6468 -1.9428
16806TIP3    H271910   6.081   2.266  12.749  1.2663  0.9784 -1.7237
16807TIP3   OH271911   6.307   1.671  14.708 -0.3005 -0.0556 -0.1102
16807TIP3    H171912   6.335   1.661  14.617 -1.2098  1.1289 -0.5536
16807TIP3    H271913   6.229   1.727  14.703 -0.6863 -0.4039  1.3555
16808TIP3   OH271914   1.440   1.353  15.997  0.0968  0.4281 -0.8131
16808TIP3    H171915   1.423   1.359  15.903  1.6098  0.4467 -1.1120
16808TIP3    H271916   1.535   1.363  16.005  0.4248 -2.5416  0.4376
16809TIP3   OH271917   4.365   2.152  13.252 -0.1058 -0.8175  0.0792
16809TIP3    H171918   4.431   2.124  13.316 -0.0554 -4.2637 -1.2392
16809TIP3    H271919   4.286   2.104  13.277 -0.4260 -1.2656 -1.6694
16810TIP3   OH271920   2.247   2.994  11.957  0.0605 -0.1546  0.2875
16810TIP3    H171921   2.203   3.079  11.955 -0.6074 -0.5015 -0.7716
16810TIP3    H271922   2.178   2.931  11.938  1.0724 -0.6826 -1.9946
16811TIP3   OH271923   1.692   1.991  12.644 -0.0755  0.1512  0.1987
16811TIP3    H171924   1.786   2.005  12.638 -0.4678  2.8061 -1.0647
16811TIP3    H271925   1.662   2.052  12.711 -0.7521 -1.8659  1.8286
16812TIP3   OH271926   0.476   1.107  13.482  0.4814 -0.2642 -0.2443
16812TIP3    H171927   0.548   1.065  13.433 -0.6741 -3.7538  0.7597
16812TIP3    H271928   0.397   1.080  13.435 -0.3226  2.3840 -0.5347
16813TIP3   OH271929   4.804   0.565  14.580 -0.2132 -0.1425  0.2117
16813TIP3    H171930   4.828   0.497  14.642 -1.3163  0.3672  1.2517
16813TIP3    H271931   4.773   0.518  14.503  1.1923 -0.7876  0.0149
16814TIP3   OH271932   2.689   0.568   4.728  0.5722 -0.2558 -0.1786
16814TIP3    H171933   2.606   0.554   4.774  0.3564  3.2135  0.7600
16814TIP3    H271934   2.665   0.612   4.647  1.4231  0.0500 -0.2774
16815TIP3   OH271935   0.755   5.508  14.996 -0.1619  0.2895  0.3307
16815TIP3    H171936   0.842   5.467  14.993 -0.7207 -0.9081 -1.3608
16815TIP3    H271937   0.769   5.598  14.967  0.5834  0.2514  0.5573
16816TIP3   OH271938   0.158   0.407  12.591 -0.1465  1.0644 -0.5031
16816TIP3    H171939   0.153   0.501  12.606 -0.3832  0.7829  1.4314
16816TIP3    H271940   0.078   0.372  12.630 -0.6204  0.1613 -2.2148
16817TIP3   OH271941   2.388   3.169  15.907 -0.2124  0.2332  0.3843
16817TIP3    H171942   2.315   3.215  15.949  1.6503  0.1377  4.0928
16817TIP3    H271943   2.457   3.235  15.898  0.2268 -0.3151 -0.5509
16818TIP3   OH271944   2.947   3.740   5.951  0.0060  0.6102  0.3832
16818TIP3    H171945   2.952   3.817   5.895  2.7162 -0.0894 -0.5085
16818TIP3    H271946   2.950   3.774   6.040 -2.0528  1.6238  0.1273
16819TIP3   OH271947   0.902   3.143   3.099  0.3431 -0.3068 -0.7709
16819TIP3    H171948   0.885   3.098   3.016  1.4388 -0.6636 -0.8225
16819TIP3    H271949   0.977   3.200   3.081 -1.4542  2.1872 -0.9146
16820TIP3   OH271950   2.055   4.223   0.808 -0.2935  0.4058  0.4227
16820TIP3    H171951   2.028   4.193   0.894  0.2035  0.7299  0.6989
16820TIP3    H271952   2.002   4.173   0.746  0.2745 -0.7883  0.8839
16821TIP3   OH271953   3.239   1.171  14.084  0.4366  0.1588 -0.3392
16821TIP3    H171954   3.244   1.077  14.100  0.8128  0.4285  1.2828
16821TIP3    H271955   3.326   1.194  14.050  0.8103  0.1389  0.5873
16822TIP3   OH271956   0.155   5.055  16.104  0.0654 -0.5959 -0.3353
16822TIP3    H171957   0.089   5.121  16.127  0.9531  0.4219 -0.6093
16822TIP3    H271958   0.237   5.104  16.101  0.5943 -1.4938 -1.6131
16823TIP3   OH271959   3.204   4.204  15.695 -0.1808 -0.1011  0.9865
16823TIP3    H171960   3.131   4.266  15.700 -0.0697  0.0036  1.3244
16823TIP3    H271961   3.258   4.224  15.772  0.0722 -0.3435  0.8724
16824TIP3   OH271962   4.905   1.686  15.773 -0.1783  0.0359 -0.5199
16824TIP3    H171963   4.951   1.750  15.719  0.6217  0.7033  0.8832
16824TIP3    H271964   4.889   1.731  15.856 -0.1159 -1.3867  0.3102
16825TIP3   OH271965   6.139   4.083   0.148 -0.2154  0.6045  0.0763
16825TIP3    H171966   6.150   4.152   0.083 -1.4085  2.1127  1.3759
16825TIP3    H271967   6.125   4.003   0.097 -2.2271  1.9003 -1.5598
16826TIP3   OH271968   4.822   6.678   0.938 -0.5776  0.5454 -0.1760
16826TIP3    H171969   4.803   6.768   0.962  2.8368  1.2880  0.2504
16826TIP3    H271970   4.845   6.682   0.845  0.2048  0.2524 -0.0042
16827TIP3   OH271971   4.410   6.569  12.749 -0.2719 -0.5460 -0.2317
16827TIP3    H171972   4.316   6.567  12.769 -0.4933 -1.7948 -1.2583
16827TIP3    H271973   4.430   6.662  12.742 -1.1557 -0.2114  1.1613
16828TIP3   OH271974   3.255   4.561   0.774 -0.5847 -0.2703 -0.1169
16828TIP3    H171975   3.279   4.649   0.746 -1.0310 -0.2876 -0.5689
16828TIP3    H271976   3.285   4.504   0.704  0.3979 -0.5730  0.5251
16829TIP3   OH271977   4.699   2.446   4.596  0.0136 -0.0144 -0.4417
16829TIP3    H171978   4.751   2.521   4.626  1.0981 -0.9250  0.0233
16829TIP3    H271979   4.719   2.377   4.658 -1.7644 -0.4218 -0.2634
16830TIP3   OH271980   1.245   3.563   0.032  0.8688 -0.3059  0.5159
16830TIP3    H171981   1.244   3.525   0.119  1.8673  0.9207  1.0943
16830TIP3    H271982   1.314   3.515  -0.015 -0.0883 -1.3936  0.1579
16831TIP3   OH271983   1.816   0.044   2.082 -0.1170 -0.1193  0.1673
16831TIP3    H171984   1.768   0.081   2.007  0.2490 -0.0824 -0.0541
16831TIP3    H271985   1.904   0.082   2.074  0.2633 -1.0187 -0.0520
16832TIP3   OH271986   4.761   2.672  16.780 -0.3030  0.2552 -0.3524
16832TIP3    H171987   4.667   2.658  16.789 -0.1773 -0.6194 -0.2731
16832TIP3    H271988   4.787   2.721  16.858 -0.5170 -0.4338  0.1525
16833TIP3   OH271989   5.695   6.565   1.048 -0.0011  0.4292  0.1272
16833TIP3    H171990   5.767   6.508   1.021 -0.7479 -0.1095 -0.8269
16833TIP3    H271991   5.616   6.511   1.035 -0.8344  1.9772 -1.7606
16834TIP3   OH271992   6.752   1.661  12.836  0.6917 -0.2661  0.1807
16834TIP3    H171993   6.681   1.652  12.899  1.0966 -0.1729  0.6529
16834TIP3    H271994   6.740   1.749  12.799 -0.0681 -0.6518 -0.5249
16835TIP3   OH271995   2.539   6.308   5.001  0.0802  0.0290  0.1246
16835TIP3    H171996   2.530   6.369   5.074 -0.6461  0.4708 -0.3187
16835TIP3    H271997   2.455   6.263   4.996  0.8929 -1.7028  1.0194
16836TIP3   OH271998   6.217   4.105  12.928  0.0345 -0.2355 -0.4033
16836TIP3    H171999   6.226   4.162  12.852  0.0708 -0.0942 -0.2945
16836TIP3    H272000   6.127   4.074  12.926 -0.2237  0.4701 -0.0117
16837TIP3   OH272001   2.183   2.850   5.984  0.4742  0.3366 -0.1867
16837TIP3    H172002   2.149   2.885   6.066 -0.5014  0.0407 -0.4500
16837TIP3    H272003   2.253   2.911   5.959 -0.2334  1.2846  0.1007
16838TIP3   OH272004   2.348   0.780   1.615 -0.2559  0.0622  0.0706
16838TIP3    H172005   2.374   0.866   1.581  0.0253 -0.1601 -0.2760
16838TIP3    H272006   2.261   0.765   1.576 -1.9107  1.7104  2.8034
16839TIP3   OH272007   1.066   1.819  10.766 -0.0101 -0.2778 -0.1575
16839TIP3    H172008   1.082   1.901  10.813 -1.9121 -0.4276  0.8377
16839TIP3    H272009   1.093   1.751  10.827 -0.5870 -0.4263 -0.0614
16840TIP3   OH272010   0.103   1.360  13.519 -0.1702  0.2714  0.5231
16840TIP3    H172011   0.157   1.421  13.570  0.6697  0.9149 -1.0452
16840TIP3    H272012   0.152   1.349  13.437 -1.5268 -0.6005 -0.1970
16841TIP3   OH272013   6.612   0.613   0.012  0.0890  0.0763 -0.4868
16841TIP3    H172014   6.537   0.599   0.070 -0.5908  0.7367 -1.1797
16841TIP3    H272015   6.578   0.670  -0.058  0.5204 -1.6982 -2.2319
16842TIP3   OH272016   5.150   1.711  16.273 -0.1937 -0.5895 -0.1934
16842TIP3    H172017   5.057   1.699  16.253 -0.2471  1.0792 -1.0586
16842TIP3    H272018   5.163   1.805  16.276  1.4434 -0.7874  0.1086
16843TIP3   OH272019   0.657   0.648  13.049  0.0976  0.3152 -0.4937
16843TIP3    H172020   0.746   0.652  13.014  0.6375 -1.5425  0.4855
16843TIP3    H272021   0.602   0.631  12.973  1.1693 -3.0705 -0.6780
16844TIP3   OH272022   4.622   2.236  11.858  0.0503 -0.4074  0.2033
16844TIP3    H172023   4.584   2.158  11.898 -1.3329 -0.2997 -0.8390
16844TIP3    H272024   4.584   2.240  11.771  1.4880  0.4551 -0.4208
16845TIP3   OH272025   4.368   5.378   4.822  0.0090 -0.3695  0.2678
16845TIP3    H172026   4.459   5.355   4.842  0.0278 -0.6477 -0.1187
16845TIP3    H272027   4.370   5.472   4.804  0.4261 -0.5803 -0.8499
16846TIP3   OH272028   4.359   2.783   2.687 -0.2486  0.3102  0.4725
16846TIP3    H172029   4.324   2.694   2.686 -1.6102  0.8073 -1.5167
16846TIP3    H272030   4.452   2.773   2.666 -0.6519 -0.5667 -0.9871
16847TIP3   OH272031   1.938   6.083  15.437 -0.5255  0.2155 -0.3012
16847TIP3    H172032   1.922   6.175  15.417 -0.0778  0.3521 -0.0550
16847TIP3    H272033   2.028   6.081  15.471 -1.7843  0.3219  3.5494
16848TIP3   OH272034   4.603   0.200   0.407  0.1460  0.3221  0.2696
16848TIP3    H172035   4.676   0.181   0.467 -0.1922  0.7802  0.8387
16848TIP3    H272036   4.561   0.116   0.393  1.6354 -0.2398 -1.2323
16849TIP3   OH272037   1.254   3.877   0.796  0.3859 -0.1952 -0.4229
16849TIP3    H172038   1.251   3.956   0.849 -0.0459 -0.8686  0.5682
16849TIP3    H272039   1.283   3.809   0.856  1.9158 -0.5869 -1.5386
16850TIP3   OH272040   1.178   1.316   1.759 -0.0467 -0.5791  0.2474
16850TIP3    H172041   1.163   1.340   1.851  0.3403  1.0170 -0.0695
16850TIP3    H272042   1.210   1.397   1.719 -1.2237 -0.9513 -1.5473
16851TIP3   OH272043   6.312   4.648   0.962  0.2840  0.4283 -0.4777
16851TIP3    H172044   6.277   4.723   1.010 -0.4912  0.0244 -0.4030
16851TIP3    H272045   6.295   4.669   0.870 -2.5234 -0.8625 -0.3692
16852TIP3   OH272046   6.387   5.851  14.415  0.2828  0.7448 -0.3378
16852TIP3    H172047   6.326   5.853  14.341  0.5749  1.5899 -0.5640
16852TIP3    H272048   6.458   5.794  14.385 -1.1524 -1.6785  0.5685
16853TIP3   OH272049   2.410   0.058   5.420 -0.2072 -0.4884  0.5048
16853TIP3    H172050   2.363   0.080   5.339  0.2478  1.9248  0.8274
16853TIP3    H272051   2.344   0.014   5.474 -1.6437  1.2379  0.2564
16854TIP3   OH272052   4.900   3.826  16.442  0.0289 -0.3670 -0.0668
16854TIP3    H172053   4.924   3.917  16.425 -0.3619 -0.5277 -1.7034
16854TIP3    H272054   4.924   3.811  16.533  1.9931  0.7677 -0.3418
16855TIP3   OH272055   2.274   4.727  14.308 -0.2464 -0.3855 -0.4106
16855TIP3    H172056   2.330   4.649  14.310 -2.3939 -2.0165 -0.7701
16855TIP3    H272057   2.321   4.789  14.252  1.6489 -1.2742  0.1246
16856TIP3   OH272058   3.787   6.793  11.275  0.1310 -0.3930  0.7551
16856TIP3    H172059   3.756   6.749  11.196  1.1513 -0.3800  0.3311
16856TIP3    H272060   3.707   6.826  11.317 -0.4854 -1.0591  0.1337
16857TIP3   OH272061   3.572   4.905   4.955  0.1901  0.1928  0.1645
16857TIP3    H172062   3.631   4.837   4.921 -1.1144 -0.7616 -0.2565
16857TIP3    H272063   3.508   4.858   5.008 -0.7239  1.0994 -0.0983
16858TIP3   OH272064   6.633   0.961   2.769  0.2195 -0.2506  0.2816
16858TIP3    H172065   6.564   0.982   2.705 -0.0556 -0.0416  0.6399
16858TIP3    H272066   6.641   0.866   2.765 -0.4276 -0.3237  0.5737
16859TIP3   OH272067   0.135   0.559   3.487 -0.0265  0.5641 -0.5190
16859TIP3    H172068   0.046   0.570   3.453 -0.3209 -1.2241 -0.4251
16859TIP3    H272069   0.188   0.537   3.410 -0.4066 -1.9789 -0.1393
16860TIP3   OH272070   2.433   3.791   0.419  0.0210  0.0164  0.0305
16860TIP3    H172071   2.379   3.821   0.346 -0.6539  0.3023  0.6454
16860TIP3    H272072   2.523   3.795   0.385 -0.2875  0.1096 -0.7941
16861TIP3   OH272073   2.706   4.701   2.950  0.0980 -0.3438  0.3440
16861TIP3    H172074   2.796   4.732   2.943  0.7897 -2.1865  0.4020
16861TIP3    H272075   2.655   4.779   2.971  1.7430  0.6733  0.7578
16862TIP3   OH272076   5.249   0.266  13.835  0.0617 -0.0965  0.2483
16862TIP3    H172077   5.301   0.196  13.796  0.0224 -0.4203  0.7776
16862TIP3    H272078   5.314   0.326  13.871  0.0756 -0.5509  0.9966
16863TIP3   OH272079   5.902   6.453  14.527  0.0603  0.0015 -0.5106
16863TIP3    H172080   5.942   6.478  14.610 -0.8234  0.4028 -0.2034
16863TIP3    H272081   5.809   6.447  14.545  0.0054 -1.3367 -1.1282
16864TIP3   OH272082   4.163   2.139  15.617  0.5549 -0.3595 -0.3195
16864TIP3    H172083   4.089   2.081  15.628  0.8071 -0.7171 -0.4998
16864TIP3    H272084   4.240   2.083  15.629  0.8018 -0.1410 -0.8618
16865TIP3   OH272085   4.654   5.917   2.476  0.2854  0.3470  0.3780
16865TIP3    H172086   4.704   5.883   2.402 -1.7740 -1.8328 -0.1209
16865TIP3    H272087   4.612   5.996   2.441  1.2334  0.7024  0.0028
16866TIP3   OH272088   3.770   2.126  14.115  0.1681  0.5914  0.4063
16866TIP3    H172089   3.765   2.036  14.083 -0.4693  1.2254 -1.4138
16866TIP3    H272090   3.853   2.159  14.080  0.6946  0.5448  1.5757
16867TIP3   OH272091   4.362   6.442   2.614  0.1189 -0.1448 -0.3130
16867TIP3    H172092   4.372   6.537   2.627  2.7029 -0.2282 -1.1608
16867TIP3    H272093   4.304   6.415   2.685 -0.1640  1.9711  0.3510
16868TIP3   OH272094   2.048   1.552  17.148  0.3159 -0.0556 -0.0553
16868TIP3    H172095   2.099   1.634  17.148  2.3193 -1.2086 -1.5704
16868TIP3    H272096   2.039   1.529  17.056  0.8798 -2.1412  0.3623
16869TIP3   OH272097   5.700   5.351   2.848 -0.4414  0.1852  0.4433
16869TIP3    H172098   5.717   5.437   2.888 -0.2826 -1.2303  3.7525
16869TIP3    H272099   5.607   5.335   2.865 -0.0843 -0.9770  1.4639
16870TIP3   OH272100   1.206   4.359   3.111 -0.2727 -0.1091  0.2486
16870TIP3    H172101   1.121   4.378   3.069  0.4642  2.3608 -0.2901
16870TIP3    H272102   1.267   4.352   3.037  0.5964  1.7821  0.7395
16871TIP3   OH272103   5.846   4.593   4.610  0.4483  0.1497  0.3598
16871TIP3    H172104   5.866   4.514   4.660  1.0350  0.2258  0.2545
16871TIP3    H272105   5.751   4.603   4.617  0.5004  0.0293  1.2601
16872TIP3   OH272106   2.395   4.966   4.303  0.3116 -0.5437  0.1437
16872TIP3    H172107   2.336   4.979   4.378 -1.0804 -0.3422 -0.9278
16872TIP3    H272108   2.432   4.879   4.316  0.0353 -0.5454  1.0177
16873TIP3   OH272109   6.464   6.008   3.844 -0.1980  0.4181 -0.1115
16873TIP3    H172110   6.557   5.990   3.832 -0.5877 -1.5497 -0.5859
16873TIP3    H272111   6.448   6.089   3.796  1.4212  1.2974  0.7607
16874TIP3   OH272112   5.610   0.633   1.184  0.1535 -0.1017 -0.5267
16874TIP3    H172113   5.536   0.576   1.165 -0.0760 -0.6693  1.8000
16874TIP3    H272114   5.570   0.712   1.221  0.6172  0.6607 -1.5707
16875TIP3   OH272115   4.811   4.302  14.436  0.1984  0.3610 -0.0975
16875TIP3    H172116   4.800   4.240  14.363 -0.1549  0.1155  0.1604
16875TIP3    H272117   4.888   4.270  14.483  0.8667  0.9384 -0.7712
16876TIP3   OH272118   4.908   5.014  15.167  0.3289  0.5095 -0.4500
16876TIP3    H172119   4.821   5.002  15.130  0.1393  1.2592 -0.2631
16876TIP3    H272120   4.946   4.926  15.170 -0.3945  0.1913 -0.5900
16877TIP3   OH272121   4.568   5.455   4.033 -0.2703 -0.8945  0.3548
16877TIP3    H172122   4.538   5.468   4.123 -0.6361 -0.0665  0.1246
16877TIP3    H272123   4.586   5.544   4.001 -2.1964 -0.9783 -1.0934
16878TIP3   OH272124   4.064   3.439   1.307  0.4507 -0.6557  0.0800
16878TIP3    H172125   3.983   3.458   1.261  0.9080  1.7204  0.1427
16878TIP3    H272126   4.078   3.345   1.294 -2.0712 -1.0432 -0.2475
16879TIP3   OH272127   5.134   2.536   5.592 -0.4864 -0.5098 -0.1558
16879TIP3    H172128   5.152   2.610   5.650 -2.0990  0.0206 -0.2791
16879TIP3    H272129   5.185   2.554   5.513 -0.5715  0.2822 -0.0364
16880TIP3   OH272130   0.161   2.499   3.514 -0.0261 -0.2580  0.0502
16880TIP3    H172131   0.242   2.494   3.463 -0.9221  1.5777 -1.7009
16880TIP3    H272132   0.135   2.408   3.528  1.1652 -0.8403 -1.3225
16881TIP3   OH272133   0.280   0.259   4.062 -0.1640  0.5565 -0.1980
16881TIP3    H172134   0.207   0.261   4.124  1.6109  0.0547  2.0434
16881TIP3    H272135   0.280   0.170   4.028 -1.1308  0.8254 -0.9558
16882TIP3   OH272136   5.355   6.305   6.103 -0.4179  0.3536 -0.2631
16882TIP3    H172137   5.394   6.219   6.084 -0.8179  0.2388 -0.5962
16882TIP3    H272138   5.281   6.311   6.042 -0.2882  1.0086 -0.3579
16883TIP3   OH272139   2.977   2.249  13.376  0.6488  0.3730  0.0181
16883TIP3    H172140   2.928   2.301  13.440  0.6088 -1.7321  1.8292
16883TIP3    H272141   2.909   2.208  13.322  0.5948  0.5684 -0.0631
16884TIP3   OH272142   4.595   3.452  11.088  1.0387 -0.0315  0.3791
16884TIP3    H172143   4.596   3.544  11.114 -2.7896  0.0970  0.5680
16884TIP3    H272144   4.622   3.452  10.996 -1.4130  1.7051 -0.4239
16885TIP3   OH272145   3.832   2.120  13.127  0.3825  0.2418 -0.0258
16885TIP3    H172146   3.788   2.173  13.061  0.5124 -1.0344 -1.1802
16885TIP3    H272147   3.770   2.117  13.200  0.1858  1.5839 -0.1260
16886TIP3   OH272148   3.155   2.198   3.494  0.3642 -0.6312 -0.0957
16886TIP3    H172149   3.141   2.269   3.431 -0.3669 -0.6506  0.0338
16886TIP3    H272150   3.179   2.243   3.575 -0.6558 -0.4855  0.1410
16887TIP3   OH272151   5.922   1.829  13.594  0.4311  0.4047  0.1823
16887TIP3    H172152   6.013   1.805  13.583  0.1039 -0.8574  0.0782
16887TIP3    H272153   5.873   1.765  13.543 -0.4827  1.5951 -0.5129
16888TIP3   OH272154   2.380   2.951   4.328  0.6749 -0.2751  0.5149
16888TIP3    H172155   2.457   2.936   4.384  0.4135 -0.5265  0.8173
16888TIP3    H272156   2.412   2.939   4.239  0.9380 -0.6217  0.6505
16889TIP3   OH272157   1.255   1.425   2.921 -0.4140 -0.0021 -0.5473
16889TIP3    H172158   1.329   1.418   2.981 -2.0967 -1.4189  1.5355
16889TIP3    H272159   1.291   1.403   2.835  1.8252  0.7105  0.1482
16890TIP3   OH272160   6.196   5.435  12.938 -0.7294 -0.0181 -0.1708
16890TIP3    H172161   6.249   5.392  13.005 -0.2939  0.3325 -0.2886
16890TIP3    H272162   6.106   5.407  12.957 -0.8844  1.5563  1.7056
16891TIP3   OH272163   3.902   1.129   0.852  0.7824 -0.2246 -0.0964
16891TIP3    H172164   3.816   1.159   0.822 -0.3071  0.9861  3.5661
16891TIP3    H272165   3.890   1.035   0.869  0.5849 -0.3314 -0.8159
16892TIP3   OH272166   6.738   5.868   4.684  0.2350  0.0936 -0.0605
16892TIP3    H172167   6.667   5.899   4.740 -1.0481 -1.0756 -0.9749
16892TIP3    H272168   6.712   5.779   4.659  2.1628 -0.4759 -0.2091
16893TIP3   OH272169   0.263   4.458  13.691 -0.2127 -0.0968  0.1962
16893TIP3    H172170   0.277   4.428  13.601  0.6506  0.1479  0.2439
16893TIP3    H272171   0.334   4.519  13.708 -1.5064  1.4566  0.3540
16894TIP3   OH272172   0.799   6.285  11.484 -0.2103 -0.9583  0.3693
16894TIP3    H172173   0.764   6.250  11.403  0.2183  2.6563 -1.6161
16894TIP3    H272174   0.891   6.258  11.484  0.3296  0.5716 -1.5327
16895TIP3   OH272175   6.195   3.880   0.879 -0.5380 -0.3562  0.8666
16895TIP3    H172176   6.234   3.792   0.886 -1.2708 -0.9216 -1.4231
16895TIP3    H272177   6.239   3.919   0.804 -0.6162  1.0683  1.5349
16896TIP3   OH272178   5.420   2.782   1.017  0.2376  0.1771 -0.0701
16896TIP3    H172179   5.328   2.793   1.040  0.2106  1.4071 -0.6555
16896TIP3    H272180   5.418   2.729   0.937  0.0063  0.5401 -0.3089
16897TIP3   OH272181   2.852   6.595   4.249  0.1850  0.0184  0.5059
16897TIP3    H172182   2.825   6.675   4.294 -2.7420  1.4647 -3.2976
16897TIP3    H272183   2.773   6.565   4.204  2.5081 -1.7811 -2.7522
16898TIP3   OH272184   2.560   3.445  12.139 -0.2286 -0.8039  0.2976
16898TIP3    H172185   2.577   3.458  12.046  0.4363  0.5071  0.5730
16898TIP3    H272186   2.532   3.532  12.170  2.4263 -0.3955  1.8892
16899TIP3   OH272187   2.300   3.722  14.480  0.1649 -0.0812  0.4024
16899TIP3    H172188   2.346   3.653  14.433  0.1798 -1.0088  1.7196
16899TIP3    H272189   2.355   3.741  14.556  0.1635  1.4045  0.0703
16900TIP3   OH272190   2.913   4.353  16.146 -0.3324  0.3691 -0.8555
16900TIP3    H172191   2.907   4.336  16.052  1.5694 -1.4372 -0.7055
16900TIP3    H272192   2.936   4.269  16.185  1.7772  1.6381  0.8860
16901TIP3   OH272193   5.922   0.578  14.396 -0.4918  0.3755 -0.3501
16901TIP3    H172194   5.858   0.630  14.446  0.3080  0.2845  0.8168
16901TIP3    H272195   5.916   0.612  14.307 -0.1580  2.3840  0.3202
16902TIP3   OH272196   0.162   0.648  11.463 -0.1589  0.3634 -0.0759
16902TIP3    H172197   0.143   0.742  11.460 -1.2514  0.1582 -0.0711
16902TIP3    H272198   0.242   0.638  11.411  1.3503  1.5984  1.8472
16903TIP3   OH272199   5.305   3.472  15.333 -0.2035  0.4322 -0.2618
16903TIP3    H172200   5.231   3.440  15.384 -0.6007  2.2430  0.3564
16903TIP3    H272201   5.271   3.548  15.285  0.6629 -0.0944 -1.7862
16904TIP3   OH272202   2.451   1.162   4.864  0.1368 -0.4800  0.2025
16904TIP3    H172203   2.432   1.245   4.820 -0.3891 -1.1282 -0.8086
16904TIP3    H272204   2.449   1.096   4.795  2.1345 -1.1497  0.7098
16905TIP3   OH272205   0.025   6.247  17.160 -1.0816 -0.1268 -0.6016
16905TIP3    H172206   0.066   6.306  17.223 -1.5720 -0.8881  0.4368
16905TIP3    H272207   0.015   6.164  17.206 -0.6435 -0.9635 -1.9672
16906TIP3   OH272208   0.809   5.737  16.011  0.1293 -0.3384 -0.7419
16906TIP3    H172209   0.884   5.690  15.974  1.8993  0.7929  1.2190
16906TIP3    H272210   0.810   5.823  15.969 -0.2170 -0.3935 -0.8689
16907TIP3   OH272211   0.128   3.120   1.761  0.2114 -0.3137 -0.2344
16907TIP3    H172212   0.115   3.115   1.856  0.5589  0.4619 -0.1403
16907TIP3    H272213   0.137   3.028   1.734  2.3302 -0.4907  0.8251
16908TIP3   OH272214   4.842   2.814   5.256  0.0037 -0.0720 -0.0131
16908TIP3    H172215   4.826   2.857   5.340 -0.7147  0.2254 -0.2945
16908TIP3    H272216   4.795   2.868   5.192  0.1915 -0.5350 -0.5496
16909TIP3   OH272217   5.149   6.534  17.137 -0.1527 -0.2733 -0.0012
16909TIP3    H172218   5.183   6.446  17.125 -3.3013 -1.7094  0.5513
16909TIP3    H272219   5.065   6.535  17.091 -0.0766  2.6035 -0.3208
16910TIP3   OH272220   3.356   1.713   1.915  0.1467  0.2161 -0.0644
16910TIP3    H172221   3.364   1.628   1.960  0.7706 -0.3167 -1.1431
16910TIP3    H272222   3.331   1.774   1.984  1.6573 -0.4573  1.1442
16911TIP3   OH272223   2.914   3.381  14.266 -0.1378 -0.0767  0.2310
16911TIP3    H172224   2.933   3.291  14.242  1.3359  0.0739  0.7269
16911TIP3    H272225   2.879   3.420  14.186  1.5532 -0.4509 -0.7459
16912TIP3   OH272226   1.731   3.745  12.384 -0.5780 -0.1829  0.3821
16912TIP3    H172227   1.762   3.689  12.455 -1.3526  0.6622  1.4193
16912TIP3    H272228   1.650   3.783  12.417 -0.9745  0.2055 -0.9813
16913TIP3   OH272229   5.782   3.088  15.215  0.3570  0.9357 -0.1602
16913TIP3    H172230   5.831   3.163  15.184 -2.5691  2.9571 -0.3013
16913TIP3    H272231   5.743   3.051  15.136 -1.0730  1.5127  0.2386
16914TIP3   OH272232   6.035   6.789   2.579 -0.4701  0.1467 -0.8950
16914TIP3    H172233   5.964   6.748   2.530 -1.6362  0.8239  0.1678
16914TIP3    H272234   5.997   6.871   2.612  1.4209  1.5532 -2.0063
16915TIP3   OH272235   2.814   0.409   3.710  0.3671  0.0644 -0.6685
16915TIP3    H172236   2.848   0.325   3.741 -0.5704  0.0154  0.2922
16915TIP3    H272237   2.726   0.389   3.677 -0.0504  0.7267 -0.0024
16916TIP3   OH272238   3.801   3.693  11.222  0.1633  0.1823 -0.3380
16916TIP3    H172239   3.873   3.726  11.168 -0.6596 -1.7455 -2.8164
16916TIP3    H272240   3.722   3.722  11.177 -0.5873 -0.4550  0.5257
16917TIP3   OH272241   0.154   6.321  14.807  0.2385 -0.7767 -0.4395
16917TIP3    H172242   0.159   6.262  14.732 -0.7342 -2.4564  0.7474
16917TIP3    H272243   0.236   6.305  14.855  0.4301 -0.4071 -0.6411
16918TIP3   OH272244   5.176   5.171  11.722  0.7564 -0.5496  0.4096
16918TIP3    H172245   5.167   5.101  11.786 -1.6271  0.0278  0.8120
16918TIP3    H272246   5.245   5.227  11.757  0.1666 -0.7755  2.0030
16919TIP3   OH272247   6.439   5.382   3.153 -0.2553  0.0018 -0.0566
16919TIP3    H172248   6.413   5.290   3.152 -1.2095  0.2379  0.8498
16919TIP3    H272249   6.377   5.425   3.094 -0.2925  0.1756  0.1080
16920TIP3   OH272250   4.039   6.469   4.960  0.1313 -0.2595 -0.1778
16920TIP3    H172251   3.966   6.461   4.899  0.6223  0.8955 -0.9702
16920TIP3    H272252   4.093   6.391   4.944 -1.2467 -1.4872  0.9191
16921TIP3   OH272253   6.556   5.740   0.207  0.0906  0.4578  0.1759
16921TIP3    H172254   6.608   5.760   0.285 -2.3020  0.1331  1.9611
16921TIP3    H272255   6.572   5.647   0.191  1.0792  0.6689 -0.1451
16922TIP3   OH272256   6.485   2.662   0.337  0.2384 -0.3234  0.0048
16922TIP3    H172257   6.563   2.612   0.312 -1.3116 -1.8459 -2.1541
16922TIP3    H272258   6.435   2.672   0.256 -1.5700  1.0710  1.1998
16923TIP3   OH272259   6.747   3.103  15.106 -0.5775  0.7340 -0.3827
16923TIP3    H172260   6.707   3.156  15.037 -0.1680  0.2556 -1.0064
16923TIP3    H272261   6.738   3.155  15.185 -1.0706  1.2904 -0.7969
16924TIP3   OH272262   3.739   4.922   3.191  0.6456  0.5913  0.0184
16924TIP3    H172263   3.672   4.963   3.246 -0.9789 -2.0539  0.2116
16924TIP3    H272264   3.816   4.915   3.248 -0.4761 -0.5698  1.4929
16925TIP3   OH272265   6.412   3.032  13.641 -0.1186  0.1418  0.3165
16925TIP3    H172266   6.508   3.026  13.645 -0.1341 -0.8619 -0.3049
16925TIP3    H272267   6.395   3.099  13.575  0.1720 -0.3489 -0.2717
16926TIP3   OH272268   0.459   1.034  10.356  0.1720 -0.1977  0.4958
16926TIP3    H172269   0.434   1.009  10.445 -0.0461 -0.2067  0.4336
16926TIP3    H272270   0.402   0.982  10.300 -2.7309  2.7949  0.3737
16927TIP3   OH272271   4.260   3.841   4.396  0.1630 -0.1430  0.0180
16927TIP3    H172272   4.356   3.842   4.388  0.0570  1.1140 -1.5939
16927TIP3    H272273   4.233   3.929   4.369 -1.4489 -0.3873  0.7323
16928TIP3   OH272274   0.171   5.668   3.637  0.1871  0.3557  0.2046
16928TIP3    H172275   0.213   5.732   3.579 -0.0862  0.6874  0.3626
16928TIP3    H272276   0.132   5.604   3.578 -1.1697  1.3659 -0.0622
16929TIP3   OH272277   1.605   3.918  13.815  0.4698  0.1478  0.0205
16929TIP3    H172278   1.637   3.957  13.734  0.6861  0.0627  0.0635
16929TIP3    H272279   1.526   3.966  13.835 -0.6538 -1.0631 -1.2588
16930TIP3   OH272280   1.947   1.928  12.095  0.4509 -0.4691 -0.6735
16930TIP3    H172281   1.907   2.006  12.132  0.2650 -0.0535 -1.7036
16930TIP3    H272282   2.000   1.891  12.166 -0.1598  0.0935  0.0874
16931TIP3   OH272283   4.922   1.861   6.757 -0.4539  0.3865  0.0427
16931TIP3    H172284   4.869   1.890   6.683 -0.1451  0.2549 -0.2316
16931TIP3    H272285   4.904   1.767   6.764 -1.2834  0.5868  0.7925
16932TIP3   OH272286   3.030   1.850   2.919  0.0532 -0.2379 -0.2341
16932TIP3    H172287   3.056   1.924   2.974  2.5437 -0.8061 -0.5540
16932TIP3    H272288   3.064   1.872   2.832 -1.9744 -0.3468 -1.1078
16933TIP3   OH272289   4.734   6.275   4.300  0.2696  0.0508  0.1438
16933TIP3    H172290   4.657   6.221   4.316  0.4884 -0.0067  1.0477
16933TIP3    H272291   4.737   6.284   4.204  0.1660 -1.4298 -0.0267
16934TIP3   OH272292   0.141   2.197  11.184 -0.2447 -0.8162  0.1905
16934TIP3    H172293   0.057   2.236  11.161 -0.7492 -2.3525 -0.6526
16934TIP3    H272294   0.152   2.218  11.277  0.2005  2.5073 -0.4681
16935TIP3   OH272295   4.506   3.897   0.913 -0.1346  0.6411 -0.1197
16935TIP3    H172296   4.485   3.806   0.933  0.0520  0.7085  0.3823
16935TIP3    H272297   4.564   3.892   0.837  1.2870  0.2290  0.9389
16936TIP3   OH272298   3.411   6.756  13.944  0.0327 -1.0232 -0.0099
16936TIP3    H172299   3.394   6.820  14.013  0.9857 -0.2991 -0.4211
16936TIP3    H272300   3.435   6.676  13.991 -0.8789 -1.0097  0.5042
16937TIP3   OH272301   1.554   5.076  16.734 -0.3739 -0.3679 -0.0793
16937TIP3    H172302   1.480   5.062  16.676  1.0139 -0.0089 -2.0503
16937TIP3    H272303   1.542   5.165  16.767  0.0171  0.3755 -1.8002
16938TIP3   OH272304   3.662   4.684  13.354 -0.5070 -0.5051 -0.4549
16938TIP3    H172305   3.667   4.771  13.394 -0.0331 -0.6561 -0.1817
16938TIP3    H272306   3.725   4.631  13.403  0.1999 -0.6571 -1.5024
16939TIP3   OH272307   6.232   3.650  15.750 -0.1632 -0.0756  0.0422
16939TIP3    H172308   6.226   3.562  15.786 -1.1059  0.6341  1.6912
16939TIP3    H272309   6.325   3.661  15.729  0.3310 -0.7186  1.7607
16940TIP3   OH272310   1.667   4.894  13.849  0.5274 -0.0766 -0.0778
16940TIP3    H172311   1.704   4.807  13.841  1.0138  0.1583 -0.4028
16940TIP3    H272312   1.617   4.891  13.931 -1.0815 -1.2440 -1.0491
16941TIP3   OH272313   0.344   3.742  16.214  0.2389 -0.2359  0.4645
16941TIP3    H172314   0.271   3.713  16.269  0.8082  0.9553  1.9071
16941TIP3    H272315   0.383   3.815  16.262  1.4678  0.1216 -1.0005
16942TIP3   OH272316   3.506   2.761   0.581 -0.0594 -0.8540 -0.0030
16942TIP3    H172317   3.545   2.826   0.523 -1.8388 -1.2033 -1.6879
16942TIP3    H272318   3.512   2.800   0.668 -0.9265  1.5129 -0.9357
16943TIP3   OH272319   0.549   3.670   1.608 -0.0687  0.1047 -0.6252
16943TIP3    H172320   0.519   3.608   1.674 -0.0723 -0.8155 -1.4746
16943TIP3    H272321   0.587   3.742   1.659 -0.6865 -0.2604  0.3843
16944TIP3   OH272322   3.920   1.467   6.851 -0.4528  0.1035 -0.2435
16944TIP3    H172323   3.931   1.536   6.917  0.2253  0.8044 -1.0667
16944TIP3    H272324   3.837   1.486   6.808 -1.1848 -0.6881  0.7649
16945TIP3   OH272325   2.378   1.849  14.977 -0.2655  0.3502 -0.6600
16945TIP3    H172326   2.319   1.891  14.915 -0.6709  1.0283  0.1563
16945TIP3    H272327   2.460   1.898  14.968 -0.6815  1.2496  0.1575
16946TIP3   OH272328   3.707   6.373  14.570  0.3986 -0.1708  0.1533
16946TIP3    H172329   3.723   6.306  14.637 -0.8732  1.3869  2.1354
16946TIP3    H272330   3.786   6.428  14.572  0.3121 -0.0568  0.4645
16947TIP3   OH272331   2.045   4.161  12.263  0.3827  0.1444  0.4565
16947TIP3    H172332   2.119   4.107  12.289  1.9110  1.4689 -0.8819
16947TIP3    H272333   1.968   4.110  12.286  1.7212 -1.7144  1.0007
16948TIP3   OH272334   6.688   3.835  10.917  0.3305 -0.6112 -0.5686
16948TIP3    H172335   6.732   3.890  10.982 -0.4262 -0.8490  0.1694
16948TIP3    H272336   6.731   3.749  10.926  0.9579 -0.3665 -1.1503
16949TIP3   OH272337   5.451   4.753   6.023  0.6065  0.0021  0.9371
16949TIP3    H172338   5.524   4.797   6.066  0.3742 -0.0497  1.3940
16949TIP3    H272339   5.385   4.744   6.092  0.1571  0.0793  0.5197
16950TIP3   OH272340   6.564   4.949  14.503 -0.1091 -0.1043 -0.6270
16950TIP3    H172341   6.553   5.038  14.535  0.9182  0.3295 -1.4050
16950TIP3    H272342   6.476   4.912  14.502 -0.4532  0.6460  0.4084
16951TIP3   OH272343   5.264   3.066   0.929 -0.4905 -0.3686 -0.2556
16951TIP3    H172344   5.327   3.048   0.998  0.8897  0.1257 -1.3264
16951TIP3    H272345   5.234   3.155   0.945  0.4866  0.0672 -0.7470
16952TIP3   OH272346   0.043   1.184   2.407 -0.0181  0.1279  0.4472
16952TIP3    H172347   0.034   1.131   2.486 -1.4414 -0.5488 -0.1512
16952TIP3    H272348  -0.040   1.174   2.361  0.5188  1.0934 -0.7916
16953TIP3   OH272349   6.700   4.060  15.296  0.0952  0.2323  0.6254
16953TIP3    H172350   6.790   4.076  15.268 -0.2664 -1.3548 -1.7792
16953TIP3    H272351   6.647   4.082  15.220 -1.4491 -0.0770  1.5705
16954TIP3   OH272352   1.982   2.893  15.973 -0.0992 -0.2377  0.4333
16954TIP3    H172353   2.030   2.813  15.956  1.1248  0.6596 -0.5181
16954TIP3    H272354   2.036   2.941  16.036 -0.7332 -0.0801  0.8668
16955TIP3   OH272355   0.226   2.861   4.776 -0.2384  0.3409 -0.4148
16955TIP3    H172356   0.239   2.802   4.850 -1.5448 -0.6821 -0.9599
16955TIP3    H272357   0.314   2.893   4.755  0.2611 -0.0522  0.9948
16956TIP3   OH272358   5.412   1.047  15.789  0.2566  0.4438 -0.2240
16956TIP3    H172359   5.338   1.108  15.794  0.5505  0.9427 -1.5992
16956TIP3    H272360   5.471   1.076  15.859 -0.9749 -0.1895  1.1344
16957TIP3   OH272361   6.193   0.838  14.855  0.2667  0.0192  0.2290
16957TIP3    H172362   6.276   0.869  14.819  1.3125  0.2824  2.6531
16957TIP3    H272363   6.127   0.898  14.820  1.4381  1.2867  0.0980
16958TIP3   OH272364   4.141   4.361   0.553 -0.5672 -0.4531  0.0238
16958TIP3    H172365   4.197   4.314   0.491  0.1578 -0.7404  0.8705
16958TIP3    H272366   4.165   4.325   0.639  2.7744  3.8800  1.2677
16959TIP3   OH272367   3.750   2.661  15.773 -0.0939  0.0848 -0.2934
16959TIP3    H172368   3.660   2.679  15.801 -0.0674  0.1888 -0.2740
16959TIP3    H272369   3.769   2.574  15.807  0.2580  0.5679  0.7919
16960TIP3   OH272370   1.512   5.323  12.614 -0.1767  0.3300 -0.6803
16960TIP3    H172371   1.463   5.243  12.633  1.0161 -0.4781 -0.8997
16960TIP3    H272372   1.493   5.381  12.688  1.0339 -1.1759  0.8896
16961TIP3   OH272373   1.101   1.067   6.063  0.1897  0.0997  0.0972
16961TIP3    H172374   1.014   1.070   6.103  0.6586 -1.8897  1.4278
16961TIP3    H272375   1.160   1.101   6.130  0.8906 -2.5067  0.9216
16962TIP3   OH272376   4.984   4.189   0.224 -0.1522  0.0781  0.2728
16962TIP3    H172377   4.980   4.185   0.129  0.7600  0.6400  0.1911
16962TIP3    H272378   5.002   4.100   0.252 -1.4593 -0.2844 -0.0038
16963TIP3   OH272379   5.475   3.929   1.067  0.2242  0.1649  0.3949
16963TIP3    H172380   5.523   4.011   1.058 -0.6268  0.4854 -1.9343
16963TIP3    H272381   5.394   3.954   1.112 -0.1101  0.6773 -0.4602
16964TIP3   OH272382   3.719   4.615   4.130  0.3106  0.5443  0.0050
16964TIP3    H172383   3.780   4.645   4.198 -0.0613  3.1224 -0.6944
16964TIP3    H272384   3.762   4.639   4.048  0.2046 -1.4482 -0.6729
16965TIP3   OH272385   1.279   2.438  12.474  0.0826  0.1352  0.3315
16965TIP3    H172386   1.213   2.426  12.542  0.1185 -1.1457  0.1741
16965TIP3    H272387   1.233   2.419  12.392  0.1789  1.1109  0.0406
16966TIP3   OH272388   2.827   5.031   2.942  0.5777 -0.0422 -0.5604
16966TIP3    H172389   2.847   4.979   2.865 -0.1380 -0.6498 -0.3532
16966TIP3    H272390   2.860   4.978   3.015 -0.0409 -0.1528 -0.3573
16967TIP3   OH272391   4.357   6.320   2.122 -0.2384  0.1525 -0.1485
16967TIP3    H172392   4.336   6.355   2.208  0.1688 -0.0670  0.0411
16967TIP3    H272393   4.347   6.225   2.131  0.2773  0.0909 -0.2077
16968TIP3   OH272394   3.054   0.723  17.149 -0.1648 -0.1865  0.4276
16968TIP3    H172395   3.108   0.644  17.159  0.7515  0.4536  0.6725
16968TIP3    H272396   3.016   0.736  17.236 -0.5286 -0.5036  0.3184
16969TIP3   OH272397   1.366   3.619   4.785  0.3998  0.4284 -0.2654
16969TIP3    H172398   1.309   3.556   4.829 -0.2034 -0.2131 -1.8722
16969TIP3    H272399   1.426   3.649   4.853 -1.1905  0.3480  1.2432
16970TIP3   OH272400   6.154   0.487  13.767  0.3866 -0.6480 -0.3259
16970TIP3    H172401   6.135   0.476  13.674 -1.1959 -0.4751 -0.0623
16970TIP3    H272402   6.133   0.402  13.806 -2.1940  0.1573  0.2881
16971TIP3   OH272403   4.595   1.629  16.220  0.2217  0.3741 -0.2591
16971TIP3    H172404   4.562   1.560  16.277  0.2967 -1.1132 -1.9040
16971TIP3    H272405   4.689   1.632  16.238  0.7801 -2.1124 -2.1943
16972TIP3   OH272406   1.517   6.101   4.118  0.3122  0.2351  0.4093
16972TIP3    H172407   1.423   6.119   4.123 -0.0228 -1.6028  1.3748
16972TIP3    H272408   1.547   6.104   4.209  1.0902  0.2089  0.1676
16973TIP3   OH272409   0.887   3.895   5.596  0.0045 -0.4900  0.5902
16973TIP3    H172410   0.975   3.930   5.581  0.2064 -1.2987 -0.1866
16973TIP3    H272411   0.898   3.830   5.666 -0.2579  0.4905  1.5718
16974TIP3   OH272412   4.743   0.855   2.025 -0.3632  0.1571  0.5114
16974TIP3    H172413   4.808   0.920   1.999 -1.3074  1.1610  0.5506
16974TIP3    H272414   4.772   0.825   2.111 -0.4391  1.2967  0.9533
16975TIP3   OH272415   0.592   6.384  15.961 -0.6334 -0.1196 -0.2146
16975TIP3    H172416   0.533   6.309  15.944 -2.9609  1.2601  1.1730
16975TIP3    H272417   0.621   6.370  16.051 -1.1985  0.6782  0.1003
16976TIP3   OH272418   6.805   6.180   2.272  0.3422  0.4954 -0.0062
16976TIP3    H172419   6.843   6.213   2.190  0.3818 -1.1042 -0.6701
16976TIP3    H272420   6.718   6.150   2.247  0.2354  0.2782  0.6162
16977TIP3   OH272421   3.280   5.189   5.461 -0.0831  0.2583  0.0998
16977TIP3    H172422   3.214   5.121   5.449  0.3944 -0.2095  0.0945
16977TIP3    H272423   3.301   5.185   5.555  2.3584 -1.8953 -0.4450
16978TIP3   OH272424   1.151   0.349  13.377 -0.0040  0.3181  0.3987
16978TIP3    H172425   1.195   0.390  13.451 -1.8253  1.1658  1.0894
16978TIP3    H272426   1.168   0.256  13.386  1.8130  0.6277  0.4674
16979TIP3   OH272427   4.364   1.140  12.464 -0.6454 -0.0389 -0.5959
16979TIP3    H172428   4.405   1.108  12.545 -0.5354  2.4017  0.3984
16979TIP3    H272429   4.434   1.186  12.418 -0.6641 -1.5490 -2.2258
16980TIP3   OH272430   3.627   5.280   5.029 -0.2897  0.8827 -0.0220
16980TIP3    H172431   3.695   5.226   5.070 -0.1245  0.5255 -0.7436
16980TIP3    H272432   3.554   5.277   5.090 -0.3300 -0.2814 -0.0918
16981TIP3   OH272433   2.357   5.216   3.409 -0.2940 -0.8346 -0.3639
16981TIP3    H172434   2.396   5.203   3.496  0.4607 -1.7757 -0.8290
16981TIP3    H272435   2.339   5.310   3.404  3.2215 -0.0711 -0.6849
16982TIP3   OH272436   1.194   0.889  17.010  0.1067  0.2181 -0.6966
16982TIP3    H172437   1.268   0.884  17.071 -0.5092 -0.7642 -0.0042
16982TIP3    H272438   1.118   0.907  17.066 -0.3944 -0.2064 -1.2333
16983TIP3   OH272439   5.235   1.247   4.834 -0.0771  0.2465  0.0081
16983TIP3    H172440   5.319   1.290   4.818  0.0012 -0.0397 -0.3790
16983TIP3    H272441   5.170   1.313   4.811  0.0402  0.0883 -0.8233
16984TIP3   OH272442   4.053   2.882  11.712 -0.4879  0.1626  0.4020
16984TIP3    H172443   3.968   2.841  11.705 -0.6424  0.5821 -0.2692
16984TIP3    H272444   4.091   2.876  11.624 -0.6763  1.7586  0.1736
16985TIP3   OH272445   1.132   0.949  16.435  0.2329  0.4204  0.5272
16985TIP3    H172446   1.053   0.903  16.465  0.1758  0.4131  0.3643
16985TIP3    H272447   1.102   1.007  16.366  0.6484 -0.9379 -0.8714
16986TIP3   OH272448   0.364   1.108  12.480 -0.8425  0.2677 -0.0174
16986TIP3    H172449   0.369   1.144  12.392 -0.8732 -2.7828 -1.4156
16986TIP3    H272450   0.451   1.123  12.517 -0.4852  0.6806 -0.9879
16987TIP3   OH272451   0.030   5.778  11.008 -0.1620  0.3219  0.2796
16987TIP3    H172452   0.036   5.714  11.079  1.6070  0.1776  0.0350
16987TIP3    H272453  -0.045   5.749  10.956  0.0235 -1.0006  0.7193
16988TIP3   OH272454   0.967   1.829   6.208  0.2096 -0.2902  0.2281
16988TIP3    H172455   0.946   1.888   6.280 -1.9159  0.2736 -0.7670
16988TIP3    H272456   0.957   1.742   6.245 -1.0033 -0.0095  0.6191
16989TIP3   OH272457   2.181   0.070   0.280 -0.2104  0.3162 -0.0921
16989TIP3    H172458   2.200  -0.020   0.253 -0.1877 -0.0064  0.9219
16989TIP3    H272459   2.260   0.119   0.257  0.1807 -0.1390  0.2491
16990TIP3   OH272460   6.621   6.319  15.739 -0.4356 -0.5043 -0.5267
16990TIP3    H172461   6.542   6.284  15.779  0.3794 -0.4496  1.1912
16990TIP3    H272462   6.693   6.270  15.779  0.5497  1.1117 -0.2250
16991TIP3   OH272463   0.394   2.233  12.370 -0.1536 -0.2147 -0.6176
16991TIP3    H172464   0.410   2.281  12.451 -1.5966  1.3521 -1.1897
16991TIP3    H272465   0.481   2.222  12.331  0.5401 -0.9103  1.0704
16992TIP3   OH272466   3.130   4.402  16.512 -0.2443  0.2192  0.7465
16992TIP3    H172467   3.040   4.405  16.481 -0.3390 -0.8010  0.8763
16992TIP3    H272468   3.123   4.367  16.601  0.3388 -0.5854  0.4830
16993TIP3   OH272469   2.653   2.565  13.133  0.0356  0.1931  0.6034
16993TIP3    H172470   2.642   2.530  13.221  0.2165  0.6298  0.8021
16993TIP3    H272471   2.587   2.519  13.080  0.8818 -1.1167  0.6595
16994TIP3   OH272472   3.577   6.107  13.273 -0.1178 -0.5301  0.0573
16994TIP3    H172473   3.500   6.103  13.331  1.3939 -0.2776  2.2131
16994TIP3    H272474   3.625   6.027  13.293  0.0614 -0.8176 -1.4688
16995TIP3   OH272475   1.981   2.820  16.278  0.2958 -0.0718  0.0708
16995TIP3    H172476   2.069   2.856  16.277  0.9083 -1.4991  0.0487
16995TIP3    H272477   1.973   2.773  16.195 -0.3779 -0.2079  0.2051
16996TIP3   OH272478   1.848   5.882   5.665 -0.2223  0.3796 -0.1921
16996TIP3    H172479   1.937   5.846   5.660 -0.1711  0.6157 -1.2126
16996TIP3    H272480   1.805   5.830   5.733  1.0068  0.9867  1.0972
16997TIP3   OH272481   4.652   3.692  16.096  0.2274  0.1329  0.2736
16997TIP3    H172482   4.593   3.755  16.054  0.4509 -1.0531 -1.9694
16997TIP3    H272483   4.609   3.607  16.085  1.3860 -0.4934  0.4360
16998TIP3   OH272484   4.450   5.412  15.528  0.6562  0.0195 -0.2442
16998TIP3    H172485   4.411   5.495  15.557  0.5219 -0.8597  2.3978
16998TIP3    H272486   4.512   5.437  15.460 -0.4361  2.1007 -0.5635
16999TIP3   OH272487   1.155   1.742   4.055 -0.2653  0.6204 -0.0889
16999TIP3    H172488   1.240   1.756   4.014 -0.3220 -1.7429 -1.1968
16999TIP3    H272489   1.092   1.778   3.993 -0.2065 -0.6957 -0.9634
17000TIP3   OH272490   4.050   2.552  13.653 -0.4070 -0.4115  0.7503
17000TIP3    H172491   4.077   2.465  13.626  0.5363 -0.2711  1.1942
17000TIP3    H272492   4.056   2.605  13.574  1.7912 -0.1290  1.0521
17001TIP3   OH272493   1.492   5.419   0.025  0.5596  0.0969 -0.1581
17001TIP3    H172494   1.557   5.473   0.069  1.5783  0.0336 -1.5483
17001TIP3    H272495   1.426   5.481  -0.006  1.3732  0.4808 -1.1485
17002TIP3   OH272496   1.411   1.698  14.750 -0.4523 -0.4910 -0.1398
17002TIP3    H172497   1.330   1.658  14.780  0.4971 -1.0911  1.8129
17002TIP3    H272498   1.401   1.791  14.772 -0.0862 -0.7951  1.4282
17003TIP3   OH272499   6.463   1.730   3.827 -0.1516  0.0510  0.1251
17003TIP3    H172500   6.471   1.769   3.914 -1.9503  0.1912  0.2729
17003TIP3    H272501   6.428   1.642   3.843  0.4367 -0.2920 -0.4117
17004TIP3   OH272502   3.226   3.940   0.002  0.1624 -0.3642 -0.2984
17004TIP3    H172503   3.256   3.951  -0.088 -0.1018  2.7571 -0.1427
17004TIP3    H272504   3.143   3.989   0.006 -1.3803 -2.8854  0.9794
17005TIP3   OH272505   6.413   2.886  11.338 -0.8943 -0.1393  0.1711
17005TIP3    H172506   6.452   2.802  11.363  0.6329  0.7169  0.8062
17005TIP3    H272507   6.442   2.899  11.248 -1.8586 -0.6873 -0.2263
17006TIP3   OH272508   5.411   5.887  15.780  0.1434  0.0517  0.3088
17006TIP3    H172509   5.326   5.851  15.807  0.2955 -1.2786 -0.8705
17006TIP3    H272510   5.389   5.968  15.734 -0.5684 -0.6187 -0.5708
17007TIP3   OH272511   3.964   4.875   3.332 -0.5337 -0.3124 -0.0585
17007TIP3    H172512   3.980   4.828   3.414 -2.7455  0.8069  1.1111
17007TIP3    H272513   4.046   4.868   3.283  0.6964 -1.4234  2.0434
17008TIP3   OH272514   1.241   0.956  17.296  0.3773 -0.5261  0.2757
17008TIP3    H172515   1.296   0.889  17.256 -0.4905  0.1409 -2.2336
17008TIP3    H272516   1.164   0.908  17.327  1.3545 -1.1511  1.8087
17009TIP3   OH272517   6.483   4.308   6.453  0.4236  0.4750  0.1544
17009TIP3    H172518   6.459   4.346   6.538 -1.2551  0.0687 -0.0917
17009TIP3    H272519   6.441   4.222   6.453 -0.4249  0.8468 -1.4461
17010TIP3   OH272520   0.085   4.212   0.270  0.3234  0.2766 -0.3478
17010TIP3    H172521   0.121   4.180   0.352  1.4308 -0.1289 -0.9635
17010TIP3    H272522   0.079   4.134   0.215 -1.6381  0.3160 -0.2310
17011TIP3   OH272523   5.273   3.020  15.947  0.3726  0.4340 -0.0722
17011TIP3    H172524   5.285   3.115  15.944 -0.0973  0.4911 -0.2067
17011TIP3    H272525   5.362   2.985  15.952  0.6955  0.7971 -2.2654
17012TIP3   OH272526   3.860   0.520   4.140 -0.1499 -0.1781 -0.7197
17012TIP3    H172527   3.783   0.571   4.165 -0.0973 -0.6057  0.3291
17012TIP3    H272528   3.833   0.429   4.149  0.2941 -0.3328 -0.9224
17013TIP3   OH272529   3.808   1.620   1.382 -0.0305  0.6698 -0.4937
17013TIP3    H172530   3.839   1.612   1.472  0.0006  3.6286 -0.1537
17013TIP3    H272531   3.831   1.709   1.356 -3.0157  1.0655 -2.2357
17014TIP3   OH272532   3.769   2.972  16.735  0.3209  0.3972 -0.0428
17014TIP3    H172533   3.757   2.994  16.643 -0.3863 -0.8178 -0.2553
17014TIP3    H272534   3.791   2.878  16.735 -0.4262  0.1987  1.0649
17015TIP3   OH272535   3.502   5.404   0.126 -0.2975 -0.1558  0.2657
17015TIP3    H172536   3.474   5.491   0.156  1.1425  1.5085 -2.7562
17015TIP3    H272537   3.563   5.374   0.194 -1.9838  0.4200  2.1306
17016TIP3   OH272538   5.429   4.808  16.326  0.6762 -0.8083  0.2112
17016TIP3    H172539   5.342   4.844  16.344  1.0269  0.8101 -1.0428
17016TIP3    H272540   5.439   4.736  16.389 -2.0586 -1.9072 -0.4546
17017TIP3   OH272541   2.676   1.117  14.365 -0.8234  0.2015 -0.0321
17017TIP3    H172542   2.731   1.112  14.287 -1.7210 -0.2587 -0.6428
17017TIP3    H272543   2.737   1.139  14.435  0.0175  0.4776 -0.8320
17018TIP3   OH272544   6.255   3.026  14.352 -0.0566 -0.1897 -0.2536
17018TIP3    H172545   6.244   2.932  14.363 -0.8784  0.0076  0.8140
17018TIP3    H272546   6.344   3.044  14.384 -0.6368 -0.3398  1.5648
17019TIP3   OH272547   3.247   3.786   0.231 -0.0722 -0.2991  0.2629
17019TIP3    H172548   3.282   3.845   0.164 -0.6857 -0.1230  0.0905
17019TIP3    H272549   3.303   3.709   0.226 -0.5692 -0.6158 -0.9982
17020TIP3   OH272550   3.081   0.842  14.777  0.0500  0.5198  0.6424
17020TIP3    H172551   3.036   0.914  14.734 -0.1853  0.7296  1.2358
17020TIP3    H272552   3.126   0.796  14.706 -2.9358 -1.0865 -0.3942
17021TIP3   OH272553   2.570   1.105   4.230  0.1989  0.3010  0.2251
17021TIP3    H172554   2.540   1.121   4.320 -0.6544  1.7876 -0.2849
17021TIP3    H272555   2.490   1.101   4.178  0.7170  2.3652 -0.8713
17022TIP3   OH272556   4.273   2.340   3.966  0.1361  0.0820 -0.2182
17022TIP3    H172557   4.180   2.334   3.989 -0.1248  1.4088 -0.8554
17022TIP3    H272558   4.309   2.400   4.031  0.9335 -1.6524  1.0291
17023TIP3   OH272559   4.428   4.430  12.481  0.7276 -0.0512  0.1223
17023TIP3    H172560   4.435   4.384  12.397 -2.8344  1.2323 -1.0604
17023TIP3    H272561   4.385   4.368  12.539 -0.6259  0.4444 -0.3230
17024TIP3   OH272562   4.540   5.641  16.887 -0.3056 -0.1080 -0.6007
17024TIP3    H172563   4.546   5.626  16.982 -0.2155  0.9561 -0.4295
17024TIP3    H272564   4.586   5.566  16.849 -0.7043 -0.7690  0.1791
17025TIP3   OH272565   4.509   4.185  16.547  0.0788 -0.3151  0.5138
17025TIP3    H172566   4.428   4.142  16.571 -0.5359 -0.3719 -1.4448
17025TIP3    H272567   4.483   4.274  16.522  0.2997 -0.8116 -1.6924
17026TIP3   OH272568   2.357   5.031   2.469 -0.6403 -0.6074  0.2437
17026TIP3    H172569   2.370   4.936   2.476  0.6525 -0.7874 -2.8171
17026TIP3    H272570   2.446   5.066   2.462 -1.1224  0.8250  0.9178
17027TIP3   OH272571   2.529   1.397   4.074  0.1122 -0.0301 -0.1143
17027TIP3    H172572   2.607   1.373   4.123 -0.2780 -1.4810 -0.1764
17027TIP3    H272573   2.490   1.314   4.047 -2.1078  0.5924  0.9040
17028TIP3   OH272574   1.172   3.860  14.748  0.3760  0.1401 -0.1411
17028TIP3    H172575   1.247   3.901  14.790 -0.6831 -0.9953  3.2377
17028TIP3    H272576   1.162   3.776  14.793 -0.5353 -1.6136 -3.2995
17029TIP3   OH272577   6.246   0.974   6.611 -0.5517  0.0533  1.1189
17029TIP3    H172578   6.191   0.904   6.576 -0.9123  0.3110  1.1712
17029TIP3    H272579   6.259   1.034   6.537 -2.5156  1.3607  1.7686
17030TIP3   OH272580   2.669   3.321  11.459 -0.6465 -0.0976 -0.4294
17030TIP3    H172581   2.674   3.360  11.372  0.2678 -0.3544 -0.5076
17030TIP3    H272582   2.649   3.229  11.443  0.1655 -0.2842 -0.4129
17031TIP3   OH272583   1.451   6.440  13.215  0.2247  0.0254  0.1073
17031TIP3    H172584   1.437   6.378  13.144  0.2693  1.2030 -0.9684
17031TIP3    H272585   1.469   6.385  13.292  0.5150 -1.2746 -0.8485
17032TIP3   OH272586   1.393   6.703  13.313 -0.1827  0.4184 -0.1076
17032TIP3    H172587   1.473   6.754  13.326  0.3023  0.0081 -1.2944
17032TIP3    H272588   1.424   6.617  13.284 -1.0355 -0.0031  0.2001
17033TIP3   OH272589   1.853   1.201  13.685 -0.1273 -0.0971  0.2373
17033TIP3    H172590   1.871   1.200  13.779 -0.4846 -0.3764  0.3070
17033TIP3    H272591   1.879   1.114  13.656 -0.1273 -0.0503  0.0999
17034TIP3   OH272592   0.256   1.810   0.322  0.3640 -0.1979  0.5704
17034TIP3    H172593   0.198   1.866   0.374 -1.0403  0.8410 -1.9468
17034TIP3    H272594   0.258   1.851   0.236  2.5460 -1.8714 -0.2662
17035TIP3   OH272595   1.268   5.608  14.850 -0.2828  0.1697  0.1223
17035TIP3    H172596   1.340   5.662  14.817 -0.1479  0.8909  1.5251
17035TIP3    H272597   1.198   5.621  14.786 -0.1650  1.8444  0.2737
17036TIP3   OH272598   1.125   5.281   1.606 -0.0720 -0.1806 -0.1519
17036TIP3    H172599   1.198   5.321   1.557 -0.1773 -0.3167 -0.4230
17036TIP3    H272600   1.163   5.201   1.644 -0.6514 -1.5097 -2.2113
17037TIP3   OH272601   4.871   2.068   0.599 -0.1820  0.0360  0.1149
17037TIP3    H172602   4.795   2.010   0.596 -0.1806 -0.0421  1.3070
17037TIP3    H272603   4.910   2.053   0.685  0.8123  0.5567 -0.2234
17038TIP3   OH272604   2.179   5.101  14.032  0.2527 -0.3236  0.1278
17038TIP3    H172605   2.113   5.104  13.962  1.2474  0.8059 -0.8028
17038TIP3    H272606   2.215   5.189  14.035  2.7338 -1.2257 -0.4226
17039TIP3   OH272607   3.367   5.127  11.735  0.5120  0.3619  0.0576
17039TIP3    H172608   3.386   5.173  11.654  0.6407 -1.4920 -1.0178
17039TIP3    H272609   3.453   5.109  11.774  0.6023 -0.8487 -0.6497
17040TIP3   OH272610   5.851   6.454   5.579  0.1608  0.1714 -0.8253
17040TIP3    H172611   5.901   6.455   5.496  0.1470 -3.3312 -1.0411
17040TIP3    H272612   5.760   6.458   5.552  0.1910  0.5658 -0.8704
17041TIP3   OH272613   2.824   6.747  13.618  0.1645  0.2950 -0.0691
17041TIP3    H172614   2.799   6.799  13.694  2.6806  0.8424  0.4575
17041TIP3    H272615   2.788   6.795  13.544 -0.8124  0.7015  0.6427
17042TIP3   OH272616   1.382   5.889  14.704 -0.2559  0.1779  0.5740
17042TIP3    H172617   1.439   5.916  14.776 -0.0545 -0.0268  0.4963
17042TIP3    H272618   1.439   5.894  14.626 -0.4134  0.2040  0.4596
17043TIP3   OH272619   1.085   3.018   2.338 -0.3950 -0.1628  0.3097
17043TIP3    H172620   1.173   3.057   2.333 -0.3110 -0.3891  0.0363
17043TIP3    H272621   1.027   3.093   2.348 -0.1439 -0.0290  0.7960
17044TIP3   OH272622   3.988   3.234   1.625 -0.0094 -0.0330  0.4881
17044TIP3    H172623   3.928   3.233   1.550 -0.6287  1.2698  0.9516
17044TIP3    H272624   4.032   3.149   1.620 -0.5579 -0.2747 -0.9301
17045TIP3   OH272625   3.478   6.704   2.873  0.2966 -0.7338 -0.4287
17045TIP3    H172626   3.479   6.609   2.864  1.9249 -0.6080 -2.5658
17045TIP3    H272627   3.396   6.731   2.830 -0.4511 -1.1492  0.6782
17046TIP3   OH272628   4.130   3.189  13.420  0.0125  0.6541 -0.0181
17046TIP3    H172629   4.180   3.268  13.442 -0.7215  1.2453 -0.4221
17046TIP3    H272630   4.040   3.219  13.414 -0.4677 -0.4744  1.1007
17047TIP3   OH272631   1.095   0.076   0.153  0.3111  0.1092 -0.0793
17047TIP3    H172632   1.058  -0.008   0.183 -1.9748  0.7977 -0.7428
17047TIP3    H272633   1.065   0.139   0.218 -2.0850  1.1098 -1.9713
17048TIP3   OH272634   4.549   4.745  17.215 -0.1056 -0.4377  0.0204
17048TIP3    H172635   4.582   4.832  17.190  1.5291 -1.0664 -0.1145
17048TIP3    H272636   4.538   4.751  17.310 -3.5835  1.0434 -0.3361
17049TIP3   OH272637   6.693   3.254  11.723  0.0369  0.1916  0.0916
17049TIP3    H172638   6.710   3.340  11.683 -1.1570  0.5538  0.3477
17049TIP3    H272639   6.721   3.264  11.814  1.3285 -0.1760 -0.2363
17050TIP3   OH272640   2.506   4.533  14.328  0.3895  0.0584 -0.2796
17050TIP3    H172641   2.544   4.606  14.280  2.6403 -1.0855 -0.4119
17050TIP3    H272642   2.580   4.497  14.378 -0.6646 -2.0422 -0.1299
17051TIP3   OH272643   4.759   1.133  13.561 -0.0450  0.1660 -0.3269
17051TIP3    H172644   4.710   1.198  13.612 -0.4394 -1.7623  1.8976
17051TIP3    H272645   4.714   1.130  13.476 -3.8344 -1.3953  1.5332
17052TIP3   OH272646   1.859   4.123   2.183  0.4843  0.2449 -0.2375
17052TIP3    H172647   1.835   4.211   2.152 -2.0159 -0.1797  0.2760
17052TIP3    H272648   1.784   4.069   2.160  0.7855 -1.1808  1.9057
17053TIP3   OH272649   6.192   2.850   4.501  0.4781 -0.4276 -0.0005
17053TIP3    H172650   6.161   2.774   4.451  0.2307 -0.4797  0.2274
17053TIP3    H272651   6.267   2.816   4.551 -0.7664 -1.0330  1.5385
17054TIP3   OH272652   3.534   4.016   3.495  0.1559 -0.7253 -1.4120
17054TIP3    H172653   3.478   3.967   3.555  0.1398  0.9908  0.0697
17054TIP3    H272654   3.498   3.998   3.408 -0.7986 -2.0508 -0.7752
17055TIP3   OH272655   5.000   5.585  15.645 -0.3028 -0.2600 -0.5907
17055TIP3    H172656   5.023   5.497  15.614 -0.2006 -0.0377 -1.1565
17055TIP3    H272657   4.909   5.576  15.676 -0.3954 -0.4981 -0.9224
17056TIP3   OH272658   1.601   5.519   2.141 -0.8688 -0.1873  0.3875
17056TIP3    H172659   1.513   5.496   2.111 -1.0459  1.1724 -0.1966
17056TIP3    H272660   1.651   5.532   2.060 -0.3628 -0.0958  0.7127
17057TIP3   OH272661   4.272   4.999  10.912  0.4007  0.0884  0.2998
17057TIP3    H172662   4.321   5.081  10.923  2.3018 -1.3095  3.5128
17057TIP3    H272663   4.324   4.949  10.849  0.5121  0.4318  0.1140
17058TIP3   OH272664   6.747   5.135  16.274 -0.1260 -0.2583 -0.0198
17058TIP3    H172665   6.721   5.175  16.357 -1.3987  0.2061 -0.6195
17058TIP3    H272666   6.686   5.063  16.262  0.6133 -0.8782 -0.1411
17059TIP3   OH272667   4.393   6.557   2.953 -0.4206  0.1077  0.1677
17059TIP3    H172668   4.476   6.522   2.985 -0.1384 -1.7102 -2.2902
17059TIP3    H272669   4.417   6.634   2.902  0.0318 -1.3138 -1.8807
17060TIP3   OH272670   3.242   6.070   4.311  0.2800  0.2241  0.0281
17060TIP3    H172671   3.304   5.998   4.326 -0.1653  0.2205  2.1642
17060TIP3    H272672   3.240   6.081   4.216  1.0067 -2.0197 -0.2979
17061TIP3   OH272673   6.235   5.614  12.707  0.1377 -0.1744 -0.2860
17061TIP3    H172674   6.190   5.602  12.791 -0.6814 -1.8607 -0.9333
17061TIP3    H272675   6.328   5.599  12.728 -0.0370 -0.4078  0.3368
17062TIP3   OH272676   6.117   6.202  15.283  0.8163  0.5659 -0.5828
17062TIP3    H172677   6.086   6.259  15.213  1.9330 -1.5725 -2.9925
17062TIP3    H272678   6.195   6.160  15.247  0.3118 -2.1267  1.1853
17063TIP3   OH272679   6.285   1.035  17.297 -0.5137  0.1599  0.6648
17063TIP3    H172680   6.278   1.111  17.239 -0.9815  0.5385  1.2027
17063TIP3    H272681   6.211   0.979  17.274  1.5595 -1.7625 -1.9615
17064TIP3   OH272682   3.798   6.588   4.232 -0.5838 -0.3797  0.1116
17064TIP3    H172683   3.853   6.646   4.180 -0.1172 -0.8146  0.1182
17064TIP3    H272684   3.716   6.583   4.183 -1.1450  1.3724  0.8061
17065TIP3   OH272685   6.238   1.404  11.009  0.1100 -0.0497 -0.1579
17065TIP3    H172686   6.207   1.482  11.054 -1.1869  0.1017 -1.2671
17065TIP3    H272687   6.202   1.410  10.921 -0.4615 -2.1412 -0.1337
17066TIP3   OH272688   3.169   0.489   3.336  0.0093  0.4230 -0.3636
17066TIP3    H172689   3.081   0.452   3.332 -0.8654  2.5155 -2.7157
17066TIP3    H272690   3.187   0.498   3.429  0.2602 -5.4154  0.5484
17067TIP3   OH272691   0.097   2.248   3.547  0.0409  0.1101  0.3901
17067TIP3    H172692   0.139   2.187   3.607  1.7986  0.4244 -0.4649
17067TIP3    H272693   0.142   2.234   3.464 -2.9427 -1.0011 -1.1949
17068TIP3   OH272694   2.909   3.359   5.034 -0.4022 -0.0654  1.0110
17068TIP3    H172695   2.885   3.344   5.125  1.9525  0.2222  1.7616
17068TIP3    H272696   2.908   3.454   5.023 -2.6414 -0.1353  0.0808
17069TIP3   OH272697   0.367   6.461   2.206 -0.1031 -0.0134  0.4231
17069TIP3    H172698   0.304   6.529   2.179 -0.8246  0.1970  2.4935
17069TIP3    H272699   0.451   6.492   2.172 -0.4169  1.9194  1.2809
17070TIP3   OH272700   6.237   4.618   4.090  0.7518 -0.4136 -0.8282
17070TIP3    H172701   6.330   4.637   4.087  0.6895 -0.2058 -2.7347
17070TIP3    H272702   6.197   4.681   4.031 -0.9518  1.0444  1.6825
17071TIP3   OH272703   3.969   2.047   4.584 -0.3869  0.3037 -0.2270
17071TIP3    H172704   3.885   2.013   4.615 -0.4761  0.7229 -0.0050
17071TIP3    H272705   3.951   2.138   4.562  0.0868  0.4786  0.1162
17072TIP3   OH272706   0.996   2.536  13.449  0.2036 -0.0598 -0.3208
17072TIP3    H172707   0.995   2.458  13.505  1.7620  0.5160  0.5693
17072TIP3    H272708   1.086   2.568  13.454 -0.1848  1.2888 -1.3926
17073TIP3   OH272709   6.223   0.050   3.937 -0.5511 -0.1455  0.4283
17073TIP3    H172710   6.235   0.122   3.876 -0.5674 -0.2699  0.2773
17073TIP3    H272711   6.307   0.004   3.935 -1.3922 -1.7608 -1.5855
17074TIP3   OH272712   4.801   2.893  10.986 -0.0301  0.6184 -0.2858
17074TIP3    H172713   4.891   2.886  11.016  0.1257 -0.0659 -0.8743
17074TIP3    H272714   4.803   2.960  10.918  0.7284 -1.6346 -2.6613
17075TIP3   OH272715   1.984   6.812  15.814  0.0153  0.5923 -0.2753
17075TIP3    H172716   2.013   6.780  15.729  0.8127 -0.3979  0.3443
17075TIP3    H272717   1.949   6.735  15.858  1.8808  0.5300  1.2131
17076TIP3   OH272718   3.730   1.935  11.117 -0.1651 -0.0641 -0.5125
17076TIP3    H172719   3.721   1.846  11.152 -1.0562  0.8792  1.8818
17076TIP3    H272720   3.640   1.964  11.102 -0.0299  1.1119  0.7153
17077TIP3   OH272721   0.944   6.114   0.101 -0.1678  0.1930 -0.1627
17077TIP3    H172722   0.917   6.084   0.015 -4.7012  1.4075  0.5911
17077TIP3    H272723   0.935   6.210   0.097  0.8363  0.3896  1.3176
17078TIP3   OH272724   0.573   4.105   4.193  0.3579 -0.1103 -0.3451
17078TIP3    H172725   0.620   4.177   4.150  0.6263  0.2028  0.4536
17078TIP3    H272726   0.562   4.039   4.124  0.3013  0.5991 -1.0319
17079TIP3   OH272727   4.056   6.356   1.557  0.2684  0.0594  0.2128
17079TIP3    H172728   4.011   6.411   1.622 -2.5474 -1.1491 -0.5758
17079TIP3    H272729   4.097   6.286   1.609 -0.3081  0.1776  0.8410
17080TIP3   OH272730   2.174   6.741  14.397 -0.5070 -0.6384  0.1747
17080TIP3    H172731   2.157   6.661  14.346 -1.3977 -0.3403 -0.0079
17080TIP3    H272732   2.098   6.750  14.454 -0.2275 -0.1310  0.4762
17081TIP3   OH272733   5.894   1.024  13.256 -0.0753  0.1474  0.6760
17081TIP3    H172734   5.953   0.969  13.308  0.5886  0.1162 -0.0880
17081TIP3    H272735   5.814   0.972  13.250  0.5037 -0.7174  0.0582
17082TIP3   OH272736   6.676   5.877  13.327  0.4436  0.1058  0.1375
17082TIP3    H172737   6.632   5.803  13.371 -0.1042  0.7050  0.6196
17082TIP3    H272738   6.709   5.930  13.399  0.0636  0.7854 -0.1848
17083TIP3   OH272739   2.732   4.266  10.778 -0.0462 -0.6631  0.1276
17083TIP3    H172740   2.778   4.344  10.806  0.7742 -0.8542 -0.6281
17083TIP3    H272741   2.801   4.208  10.744 -0.6124 -1.7658  0.7800
17084TIP3   OH272742   2.051   0.225   0.006  0.0202 -0.2178 -0.1613
17084TIP3    H172743   2.034   0.248   0.098 -1.3263  1.0313 -0.6762
17084TIP3    H272744   2.132   0.175   0.009 -0.6319 -1.2945  1.8483
17085TIP3   OH272745   6.048   0.031   1.266  0.0724  0.2744  0.4850
17085TIP3    H172746   6.121   0.037   1.204 -1.4910 -1.1101 -1.6108
17085TIP3    H272747   6.083  -0.021   1.339  1.4762  0.5484  0.0448
17086TIP3   OH272748   1.864   5.744  14.626  0.0261  0.6052  0.2331
17086TIP3    H172749   1.798   5.742  14.695  0.8128  0.9806  1.0100
17086TIP3    H272750   1.947   5.739  14.672  0.6211  2.1713 -0.5908
17087TIP3   OH272751   5.326   6.095   5.670 -0.5105 -0.2794  0.1725
17087TIP3    H172752   5.370   6.158   5.728 -1.5387  1.7844 -1.1429
17087TIP3    H272753   5.240   6.082   5.709 -1.1064  0.9065 -0.6836
17088TIP3   OH272754   1.904   4.074  13.744 -0.1193  0.1591  0.9108
17088TIP3    H172755   1.823   4.115  13.714 -1.0274 -1.8350  0.4918
17088TIP3    H272756   1.960   4.148  13.770 -2.6471  1.5583  2.8031
17089TIP3   OH272757   2.828   6.500  16.505 -0.8936 -0.3688 -0.0522
17089TIP3    H172758   2.863   6.419  16.542 -0.0023  0.0507  0.0444
17089TIP3    H272759   2.779   6.472  16.428 -0.9077 -1.0346  0.1970
17090TIP3   OH272760   2.771   0.825  12.617  0.1880 -0.0872 -1.2087
17090TIP3    H172761   2.699   0.790  12.671  0.2780  1.6308  0.1099
17090TIP3    H272762   2.731   0.842  12.532 -1.5073  2.3773 -0.0582
17091TIP3   OH272763   3.863   2.709   4.764  0.2872 -0.2253  0.5515
17091TIP3    H172764   3.790   2.711   4.826  1.3478 -0.5580  1.8527
17091TIP3    H272765   3.940   2.687   4.817  1.2245 -0.6258 -0.9016
17092TIP3   OH272766   5.787   0.218   4.360 -0.0650  0.4293  0.4266
17092TIP3    H172767   5.738   0.222   4.278 -0.2265  1.6097  0.5673
17092TIP3    H272768   5.878   0.232   4.335 -0.2564  2.0992  0.5608
17093TIP3   OH272769   4.029   1.789   4.004 -0.1850  0.9346 -0.4802
17093TIP3    H172770   4.057   1.879   3.983 -3.6677  2.3042  0.0441
17093TIP3    H272771   3.985   1.796   4.088  1.2187 -1.7636  0.5992
17094TIP3   OH272772   0.211   1.331   0.143 -0.3842  0.3010 -0.0826
17094TIP3    H172773   0.180   1.245   0.117 -0.4655 -0.1393  1.3743
17094TIP3    H272774   0.257   1.365   0.066  1.1091 -1.7401 -0.1763
17095TIP3   OH272775   4.169   0.530   4.124  0.3351 -0.6158 -0.2652
17095TIP3    H172776   4.178   0.516   4.218  1.2118 -0.1619 -0.2718
17095TIP3    H272777   4.077   0.510   4.105  0.0121 -0.1904  0.7819
17096TIP3   OH272778   5.050   0.301  11.963 -0.4834  0.2305  0.7540
17096TIP3    H172779   5.016   0.269  11.879  0.2385  1.2444  0.0478
17096TIP3    H272780   5.025   0.393  11.965  0.1795  0.4098  1.2993
17097TIP3   OH272781   5.101   2.325   2.943  0.1784 -0.2733 -0.0878
17097TIP3    H172782   5.165   2.385   2.982  0.8669 -1.7410  1.0980
17097TIP3    H272783   5.129   2.317   2.852 -0.8392  2.3688 -0.7382
17098TIP3   OH272784   2.771   4.812  15.447  0.1303  0.0562 -0.0152
17098TIP3    H172785   2.744   4.815  15.538 -1.5471  0.8635 -0.4999
17098TIP3    H272786   2.803   4.900  15.427  0.3752 -0.0810 -0.2557
17099TIP3   OH272787   5.153   0.053   4.987  0.3271  0.5183 -0.1968
17099TIP3    H172788   5.152  -0.001   5.066 -1.1373  1.3098  0.3793
17099TIP3    H272789   5.243   0.047   4.954  0.5346 -1.1882  0.5637
17100TIP3   OH272790   3.141   5.703  16.145 -0.2670 -0.4844  0.0285
17100TIP3    H172791   3.213   5.748  16.100 -1.5493  0.1034 -1.5354
17100TIP3    H272792   3.166   5.705  16.237  0.8451  1.3721 -0.2490
17101TIP3   OH272793   6.377   4.759  12.848 -0.1167  0.1201  0.0779
17101TIP3    H172794   6.457   4.706  12.845 -0.6363 -0.6658  0.0817
17101TIP3    H272795   6.357   4.766  12.941 -1.2474 -1.5230  0.0044
17102TIP3   OH272796   6.171   3.094   2.331  0.7283  0.3231  0.7077
17102TIP3    H172797   6.146   3.050   2.412 -0.7430 -0.1942  0.0189
17102TIP3    H272798   6.261   3.066   2.316  0.2694 -1.4756  0.9714
17103TIP3   OH272799   5.383   6.634   5.472 -0.2860 -0.0008 -0.1139
17103TIP3    H172800   5.374   6.718   5.517 -0.7739  0.1297 -0.4535
17103TIP3    H272801   5.329   6.574   5.524 -0.8173  0.1411 -0.4939
17104TIP3   OH272802   6.404   1.482  12.071 -0.2774 -0.4906 -0.5986
17104TIP3    H172803   6.337   1.520  12.015 -0.0176 -0.5801 -0.9817
17104TIP3    H272804   6.394   1.526  12.155 -0.0840  0.3065 -0.9843
17105TIP3   OH272805   4.617   3.317  12.909  0.1676  0.7266 -0.1788
17105TIP3    H172806   4.603   3.377  12.983 -0.4674 -0.6542  0.8623
17105TIP3    H272807   4.590   3.367  12.832 -2.6176  1.0260  0.8820
17106TIP3   OH272808   1.035   4.861  13.033 -0.2187  0.1876  0.1924
17106TIP3    H172809   1.086   4.921  13.089  1.3900 -1.3075  0.4134
17106TIP3    H272810   1.040   4.900  12.946  1.5393 -0.0211  0.1636
17107TIP3   OH272811   3.961   2.737  16.669 -0.0342 -0.6215  0.2645
17107TIP3    H172812   3.952   2.764  16.578 -0.3689 -0.8017  0.2422
17107TIP3    H272813   3.995   2.647  16.664 -0.1077 -0.6524  0.3136
17108TIP3   OH272814   3.248   4.979   0.174  0.1604  0.1905 -0.6987
17108TIP3    H172815   3.261   5.056   0.119 -0.5182 -0.3581 -1.6607
17108TIP3    H272816   3.328   4.974   0.226 -0.0692  1.9319 -0.1040
17109TIP3   OH272817   5.869   1.534  13.613 -0.6119  0.3028 -0.6391
17109TIP3    H172818   5.940   1.478  13.584 -0.7974  0.2422 -0.9871
17109TIP3    H272819   5.899   1.571  13.696  0.1669  0.9060 -1.1693
17110TIP3   OH272820   0.420   5.109  16.667 -0.1582  0.3855 -0.1906
17110TIP3    H172821   0.436   5.129  16.575 -0.9239  2.1950  0.0183
17110TIP3    H272822   0.495   5.147  16.713  0.1561 -0.3996 -0.0369
17111TIP3   OH272823   1.829   5.993  14.840 -0.3389  0.2125 -0.3725
17111TIP3    H172824   1.807   5.901  14.853 -0.7179  0.0893 -1.6588
17111TIP3    H272825   1.765   6.024  14.776  0.7176  0.9466 -1.1286
17112TIP3   OH272826   5.583   0.204  13.927 -0.1808 -0.5928  0.1412
17112TIP3    H172827   5.543   0.285  13.957  0.1232 -0.2782 -0.2778
17112TIP3    H272828   5.593   0.217  13.832  0.6597 -0.7701  0.2040
17113TIP3   OH272829   6.789   5.209   3.561 -0.0585  0.8868 -0.1270
17113TIP3    H172830   6.720   5.226   3.496 -0.6805 -0.6299  0.0797
17113TIP3    H272831   6.770   5.120   3.593  2.3759  0.1534 -0.5187
17114TIP3   OH272832   1.402   0.519  16.954 -0.5108 -0.0891  0.1258
17114TIP3    H172833   1.384   0.442  17.008 -2.3208 -0.6250 -1.1238
17114TIP3    H272834   1.493   0.510  16.927 -0.0973 -0.7098  1.6305
17115TIP3   OH272835   1.851   4.448  13.650  0.1232  0.3696 -0.2981
17115TIP3    H172836   1.821   4.375  13.597  1.7974 -1.8679  1.6299
17115TIP3    H272837   1.918   4.491  13.596 -1.8525  1.4587 -2.0091
17116TIP3   OH272838   3.065   5.742   0.661  0.5254 -0.5791  0.5966
17116TIP3    H172839   3.114   5.822   0.642  0.7284 -0.4176  1.7504
17116TIP3    H272840   3.004   5.733   0.587  0.7804  0.4125  0.2557
17117TIP3   OH272841   2.993   3.800  11.001  0.1766  0.4985 -0.1816
17117TIP3    H172842   2.913   3.768  10.960 -1.0848  1.5750  1.2916
17117TIP3    H272843   2.992   3.761  11.089 -0.3027  2.7242  0.8895
17118TIP3   OH272844   1.666   5.488  16.152  0.2250 -0.0509 -0.6317
17118TIP3    H172845   1.653   5.576  16.116  0.8254  0.9639  1.4491
17118TIP3    H272846   1.655   5.500  16.247  4.3093 -1.3568  0.1788
17119TIP3   OH272847   0.687   0.100  15.241 -0.3025  0.7419 -0.2363
17119TIP3    H172848   0.743   0.047  15.298  0.2406 -0.1107 -1.5258
17119TIP3    H272849   0.646   0.037  15.182 -0.2457  1.6693 -1.2983
17120TIP3   OH272850   4.339   0.710   4.728 -0.0905 -0.0589 -0.0539
17120TIP3    H172851   4.366   0.781   4.670  1.4932 -1.1093 -0.6860
17120TIP3    H272852   4.269   0.748   4.781 -0.5255  1.4152 -1.5671
17121TIP3   OH272853   2.891   3.390  12.049  0.4366  0.0246 -0.1774
17121TIP3    H172854   2.898   3.314  11.991 -1.0178 -1.8742  1.9247
17121TIP3    H272855   2.814   3.437  12.017  0.1080 -0.5714 -0.2819
17122TIP3   OH272856   5.620   5.000  11.578  0.6251 -0.5681 -0.5652
17122TIP3    H172857   5.668   5.082  11.576  1.8132 -1.2470 -1.5220
17122TIP3    H272858   5.535   5.020  11.539  0.9146  0.1977 -0.8066
17123TIP3   OH272859   6.587   1.107   4.868  0.0623  0.4349 -0.5080
17123TIP3    H172860   6.593   1.031   4.925 -0.4658 -0.4795 -1.6290
17123TIP3    H272861   6.527   1.166   4.913 -0.1551 -0.1680  0.0052
17124TIP3   OH272862   4.971   0.549   2.655  0.2753  0.5756 -0.1648
17124TIP3    H172863   5.030   0.533   2.729  0.2443 -1.5531 -0.5474
17124TIP3    H272864   4.892   0.499   2.674  0.4928 -0.5182 -1.8727
17125TIP3   OH272865   4.764   0.622  16.274 -0.0719  0.3227 -0.0914
17125TIP3    H172866   4.793   0.549  16.220 -1.3093  0.3641 -0.8381
17125TIP3    H272867   4.680   0.594  16.310 -0.7520  1.5137 -0.6978
17126TIP3   OH272868   3.347   6.515   6.319  0.2175 -0.2230 -0.0843
17126TIP3    H172869   3.325   6.484   6.231 -0.7375  1.2928 -0.4156
17126TIP3    H272870   3.298   6.458   6.378 -0.3109 -0.3072 -0.6038
17127TIP3   OH272871   6.192   5.563   6.433  0.2387  0.5170  0.1423
17127TIP3    H172872   6.272   5.557   6.484 -0.2854  2.4441  1.3031
17127TIP3    H272873   6.148   5.479   6.447  1.3900 -0.0298  0.6050
17128TIP3   OH272874   5.190   1.815  10.752 -0.4338 -0.4499  0.2228
17128TIP3    H172875   5.253   1.867  10.702  0.1666 -1.4018 -0.0316
17128TIP3    H272876   5.195   1.851  10.841 -1.3621  1.1191 -0.3101
17129TIP3   OH272877   2.302   1.429   1.602  0.4082 -0.8771  0.3194
17129TIP3    H172878   2.267   1.491   1.667  1.0015 -0.2044  0.0121
17129TIP3    H272879   2.313   1.348   1.651  2.6857  0.1164  1.6305
17130TIP3   OH272880   1.123   4.613  15.562 -0.2853 -0.2716 -0.1986
17130TIP3    H172881   1.130   4.575  15.475  2.9042 -1.3961  0.3882
17130TIP3    H272882   1.192   4.680  15.565 -2.4025  2.0026  0.4996
17131TIP3   OH272883   0.179   3.319   1.009  0.2508 -0.0805  0.2819
17131TIP3    H172884   0.200   3.332   1.102 -1.7954 -0.2770  0.8083
17131TIP3    H272885   0.118   3.245   1.008  1.6796 -1.3357 -1.4333
17132TIP3   OH272886   6.717   3.451   4.503 -0.2845 -0.2715  0.1734
17132TIP3    H172887   6.662   3.435   4.427 -0.3161 -0.4560  0.2336
17132TIP3    H272888   6.805   3.426   4.476  0.1266  1.7452 -0.5256
17133TIP3   OH272889   2.037   4.905   3.710 -0.0750 -0.7322 -0.1351
17133TIP3    H172890   2.046   4.916   3.805  1.4563 -1.7277 -0.1283
17133TIP3    H272891   2.101   4.965   3.672  0.3500 -1.3741 -0.4642
17134TIP3   OH272892   0.117   3.711  15.240 -0.1050 -0.3254 -0.1898
17134TIP3    H172893   0.067   3.630  15.253  0.2979 -1.0892 -2.7633
17134TIP3    H272894   0.072   3.755  15.167 -1.0241  2.4417  1.8750
17135TIP3   OH272895   5.316   4.222   0.473  0.2366 -0.0327  0.4598
17135TIP3    H172896   5.329   4.224   0.568 -0.0533 -0.4096  0.5085
17135TIP3    H272897   5.308   4.314   0.448  5.0939  0.5608  0.1340
17136TIP3   OH272898   0.916   0.548  13.788 -0.5119 -0.0575 -0.2642
17136TIP3    H172899   0.879   0.460  13.780  0.0101 -0.2050 -1.1158
17136TIP3    H272900   0.944   0.571  13.700  0.4348  0.4905  0.1659
17137TIP3   OH272901   4.356   0.231   3.429  0.6592 -0.4590  0.8863
17137TIP3    H172902   4.446   0.208   3.408  0.1978 -0.6888 -1.0407
17137TIP3    H272903   4.363   0.293   3.502  2.5134  1.1335 -0.5245
17138TIP3   OH272904   5.607   1.679   3.197 -0.3188  0.0798  0.1601
17138TIP3    H172905   5.523   1.635   3.211 -2.6418  3.8159 -0.5025
17138TIP3    H272906   5.596   1.724   3.113  2.4637  0.6028 -0.0159
17139TIP3   OH272907   2.053   1.592   4.406 -0.1232 -0.2398  0.3169
17139TIP3    H172908   2.141   1.561   4.386 -0.5510 -0.7460 -0.9128
17139TIP3    H272909   1.995   1.531   4.360 -1.0318  1.6824 -1.2385
17140TIP3   OH272910   0.863   1.830  10.567  0.3920 -0.2784  0.2920
17140TIP3    H172911   0.926   1.857  10.634  0.5419  1.6378 -0.5379
17140TIP3    H272912   0.914   1.777  10.506  0.5845 -0.8548  0.9424
17141TIP3   OH272913   2.445   1.287   0.790 -0.1259  0.3008 -0.1151
17141TIP3    H172914   2.389   1.243   0.854  1.0948  0.1923  0.9195
17141TIP3    H272915   2.432   1.238   0.709 -0.1704 -0.8307  0.5614
17142TIP3   OH272916   6.722   4.739   4.604  0.1404  0.4280 -0.0958
17142TIP3    H172917   6.648   4.785   4.562  0.9538 -0.3066 -2.4779
17142TIP3    H272918   6.761   4.688   4.534  0.9089 -1.8513  1.8874
17143TIP3   OH272919   2.985   5.945   0.171 -0.1682 -0.1309  0.3031
17143TIP3    H172920   3.047   5.873   0.165 -1.2687 -0.9884 -2.6789
17143TIP3    H272921   3.028   6.018   0.126 -0.4479 -0.0579  0.1490
17144TIP3   OH272922   1.065   4.871   2.326 -0.0354 -0.3177  0.1445
17144TIP3    H172923   1.069   4.788   2.373  1.4214  0.1888  0.9850
17144TIP3    H272924   1.082   4.937   2.393 -0.6724  0.6287 -0.6041
17145TIP3   OH272925   1.392   0.057   1.767  0.4946 -0.4249  0.2731
17145TIP3    H172926   1.305   0.084   1.795  0.6952  0.3201  0.1875
17145TIP3    H272927   1.408   0.107   1.688  1.8916  1.1134  1.4727
17146TIP3   OH272928   1.634   5.324  17.003 -0.1453  0.0099  0.6855
17146TIP3    H172929   1.638   5.419  17.015 -0.7175  0.3042 -1.0963
17146TIP3    H272930   1.724   5.298  16.985 -0.0776  0.3139  0.5688
17147TIP3   OH272931   0.048   3.622   5.947  0.5439  0.2344 -0.2236
17147TIP3    H172932  -0.014   3.558   5.915 -2.9657  2.0958  2.1774
17147TIP3    H272933   0.111   3.571   5.998 -3.0781 -1.4881  3.1006
17148TIP3   OH272934   0.195   2.157   2.947  0.4507 -0.0891 -0.3209
17148TIP3    H172935   0.288   2.138   2.940  0.3245 -0.5096 -0.8208
17148TIP3    H272936   0.192   2.250   2.971  1.0535 -0.6097  1.9923
17149TIP3   OH272937   4.135   6.436  13.949 -0.2901  0.0711  0.0163
17149TIP3    H172938   4.058   6.444  13.892 -1.0055 -0.4289  0.8838
17149TIP3    H272939   4.114   6.362  14.006  0.2165  0.8296  1.2122
17150TIP3   OH272940   6.058   1.316  14.610  0.1383  0.1048 -0.1307
17150TIP3    H172941   6.153   1.316  14.599  0.0547  1.4771 -1.0540
17150TIP3    H272942   6.026   1.383  14.550 -1.3853 -0.0013  0.5017
17151TIP3   OH272943   2.533   4.946  14.892 -0.0819 -0.1343  0.3440
17151TIP3    H172944   2.469   5.013  14.916 -1.7991 -1.4672 -0.3325
17151TIP3    H272945   2.604   4.995  14.851 -0.2793  1.4625  1.7736
17152TIP3   OH272946   2.804   1.560   3.683  0.0498  0.5647 -0.1915
17152TIP3    H172947   2.772   1.474   3.709 -2.7583  0.7714 -2.4739
17152TIP3    H272948   2.855   1.543   3.603 -1.6313  1.0674 -1.4220
17153TIP3   OH272949   4.149   0.290   5.155  0.3143  0.1140 -0.3391
17153TIP3    H172950   4.137   0.197   5.173  0.8256  0.1867  0.4065
17153TIP3    H272951   4.182   0.327   5.237  3.4494  0.3325 -1.5732
17154TIP3   OH272952   3.413   1.905   4.601  0.0002 -0.2853 -0.2281
17154TIP3    H172953   3.363   1.961   4.540 -2.8799 -0.4552  1.7643
17154TIP3    H272954   3.426   1.960   4.678 -0.6869 -1.5283  0.8115
17155TIP3   OH272955   0.081   2.508  14.201  0.3576 -0.0234  0.6323
17155TIP3    H172956   0.105   2.453  14.126 -2.9932 -2.5765  1.1450
17155TIP3    H272957   0.145   2.487  14.268  0.0458 -2.3012  0.2980
17156TIP3   OH272958   4.305   4.330  15.349  0.2868  0.1479 -0.3286
17156TIP3    H172959   4.367   4.369  15.288  1.6546  1.3492  1.7085
17156TIP3    H272960   4.299   4.393  15.421 -0.8013 -1.4373  1.0597
17157TIP3   OH272961   3.850   2.934  15.856  0.1449 -0.2660 -0.1681
17157TIP3    H172962   3.763   2.945  15.820 -0.1764  0.5057  0.7914
17157TIP3    H272963   3.864   2.839  15.857 -0.9109 -0.4260  0.1893
17158TIP3   OH272964   6.319   2.774   4.932 -0.0490 -0.0044  0.0622
17158TIP3    H172965   6.281   2.860   4.915  0.3633  0.4134  1.1482
17158TIP3    H272966   6.247   2.713   4.922 -0.6385  0.6049  0.4936
17159TIP3   OH272967   3.295   1.006   5.893  0.6512  0.1129 -0.4227
17159TIP3    H172968   3.342   0.923   5.891 -0.5362 -0.5936  0.2245
17159TIP3    H272969   3.341   1.058   5.959  0.9655 -0.2813 -0.3296
17160TIP3   OH272970   2.852   3.937   3.670 -0.0040  0.1091  0.0259
17160TIP3    H172971   2.944   3.921   3.688  0.0627 -1.3958 -1.4189
17160TIP3    H272972   2.848   3.952   3.576 -1.1693  0.8352  0.1621
17161TIP3   OH272973   1.492   1.198   0.168  0.3344  0.1026 -0.2484
17161TIP3    H172974   1.555   1.244   0.113 -0.5970  0.3394 -1.1490
17161TIP3    H272975   1.419   1.260   0.178  0.1518 -0.2346  0.6064
17162TIP3   OH272976   3.798   4.635   6.281  0.6872  0.6719 -0.7437
17162TIP3    H172977   3.708   4.633   6.312  1.0594  0.4236  0.3789
17162TIP3    H272978   3.819   4.544   6.260  0.4192  0.8443 -1.8452
17163TIP3   OH272979   0.140   0.589   0.872  0.5425  0.1566  0.5030
17163TIP3    H172980   0.103   0.519   0.926  0.0614  0.5565  0.7007
17163TIP3    H272981   0.118   0.669   0.919  0.5911  0.4751 -0.0111
17164TIP3   OH272982   2.436   1.369   3.265  0.2447 -0.3171 -0.1352
17164TIP3    H172983   2.431   1.275   3.244  1.1127 -0.1772 -1.0586
17164TIP3    H272984   2.359   1.406   3.222 -0.1425 -0.6057  0.2924
17165TIP3   OH272985   5.128   1.482   5.618  0.6780 -0.2212  0.2521
17165TIP3    H172986   5.058   1.542   5.645 -1.1457 -1.8613 -0.6015
17165TIP3    H272987   5.083   1.400   5.598  2.9114 -1.4639 -0.0124
17166TIP3   OH272988   3.947   1.979  15.600 -0.9664  0.6416 -0.4500
17166TIP3    H172989   3.940   1.903  15.541 -3.5249  0.6426 -0.2702
17166TIP3    H272990   3.910   1.948  15.683 -0.7782  1.6941  0.0443
17167TIP3   OH272991   2.126   2.516  14.242  0.2269 -0.1633 -0.0002
17167TIP3    H172992   2.119   2.453  14.314  0.0144  2.0141  1.9874
17167TIP3    H272993   2.041   2.561  14.241  1.3157  1.9788  0.4892
17168TIP3   OH272994   0.443   1.502   4.104 -0.3356  0.4200 -0.2308
17168TIP3    H172995   0.488   1.572   4.058 -0.8817 -0.4636 -2.2322
17168TIP3    H272996   0.361   1.542   4.134 -0.6718  0.6639 -1.4066
17169TIP3   OH272997   5.600   3.385  17.158 -0.5093 -0.6425  0.2354
17169TIP3    H172998   5.545   3.416  17.087 -0.5870  0.3685  0.7090
17169TIP3    H272999   5.600   3.290  17.149 -1.6233 -0.6147 -0.2954
17170TIP3   OH273000   4.351   6.668  11.517  0.3617  0.1830 -0.2836
17170TIP3    H173001   4.408   6.718  11.459 -1.7518  0.9302 -1.8620
17170TIP3    H273002   4.286   6.629  11.458  0.6604 -2.7358  1.1424
17171TIP3   OH273003   4.621   6.066  14.341  0.1742 -0.3202 -0.4840
17171TIP3    H173004   4.657   6.001  14.401 -0.9549 -0.4257  0.1141
17171TIP3    H273005   4.671   6.055  14.261 -0.5973 -2.6284 -0.7409
17172TIP3   OH273006   5.708   6.512   2.982  0.1040 -0.7319 -0.0227
17172TIP3    H173007   5.738   6.437   3.032 -1.7581 -0.8564  0.9796
17172TIP3    H273008   5.759   6.586   3.016  1.3742 -1.3728 -0.4619
17173TIP3   OH273009   3.437   6.085  16.648  0.0198  0.6014 -0.0169
17173TIP3    H173010   3.525   6.122  16.648  0.0493  0.5340  0.0655
17173TIP3    H273011   3.416   6.072  16.556  1.0715 -1.6329 -0.0151
17174TIP3   OH273012   4.536   6.096   4.399  0.1693  0.1122 -0.2145
17174TIP3    H173013   4.451   6.056   4.382 -1.5917  3.2490  0.3592
17174TIP3    H273014   4.555   6.074   4.490  0.5546 -1.4653 -0.6452
17175TIP3   OH273015   2.861   2.703   5.156 -0.3696 -0.0632 -0.4988
17175TIP3    H173016   2.935   2.714   5.216  1.0146  0.4071 -2.2162
17175TIP3    H273017   2.804   2.779   5.173  0.2318  0.3111 -0.1234
17176TIP3   OH273018   1.168   0.786  13.928 -0.2897 -0.4803 -0.3995
17176TIP3    H173019   1.249   0.779  13.877  1.0524 -0.9743  1.6732
17176TIP3    H273020   1.159   0.700  13.970 -1.1853 -0.0146  0.3985
17177TIP3   OH273021   2.461   4.544  12.998  0.3463 -0.6384 -0.4065
17177TIP3    H173022   2.419   4.491  13.066  1.2677  0.8383  1.4133
17177TIP3    H273023   2.388   4.578  12.946 -0.3220 -2.6247 -0.8823
17178TIP3   OH273024   4.021   6.345   2.175 -0.6723 -0.6716  0.5067
17178TIP3    H173025   4.080   6.326   2.102 -1.7192  1.0764 -0.8740
17178TIP3    H273026   3.947   6.390   2.135 -0.9733  0.9896  2.7405
17179TIP3   OH273027   0.894   3.849  13.952  0.1143 -0.0517  0.2791
17179TIP3    H173028   0.857   3.934  13.927 -1.0576 -0.1764  1.4611
17179TIP3    H273029   0.984   3.869  13.977 -0.0734  0.8150  0.3201
17180TIP3   OH273030   1.302   1.169  13.539 -0.6834 -0.0221 -0.5093
17180TIP3    H173031   1.365   1.121  13.592  0.8773 -0.3203 -2.5172
17180TIP3    H273032   1.283   1.248  13.590  0.4009 -0.4875  0.6653
17181TIP3   OH273033   4.228   6.286  15.182  0.5578  0.0034  0.5704
17181TIP3    H173034   4.287   6.344  15.133 -1.1122  1.5744  0.2975
17181TIP3    H273035   4.141   6.325  15.169 -0.6396 -2.4953  0.5316
17182TIP3   OH273036   6.419   4.085  13.675 -0.1834 -0.7358  0.0838
17182TIP3    H173037   6.346   4.112  13.732 -0.4711 -0.6385 -0.3259
17182TIP3    H273038   6.482   4.045  13.734  1.3254  2.8340  1.1760
17183TIP3   OH273039   3.454   6.663  14.415  0.0590  0.2543 -0.5130
17183TIP3    H173040   3.459   6.672  14.510  0.9624 -1.2466 -0.3954
17183TIP3    H273041   3.526   6.717  14.382 -0.3340  0.8777 -0.3766
17184TIP3   OH273042   1.188   5.680   1.167  0.2006  0.6701 -0.4926
17184TIP3    H173043   1.115   5.661   1.226  1.0392 -1.4772 -0.0598
17184TIP3    H273044   1.148   5.697   1.083 -0.8194 -0.2446 -0.2039
17185TIP3   OH273045   1.959   6.700  17.168  0.1634 -0.0805 -0.1387
17185TIP3    H173046   2.041   6.748  17.158  0.3824  0.0833  2.0656
17185TIP3    H273047   1.900   6.760  17.213 -1.6492  0.2389 -2.7140
17186TIP3   OH273048   1.315   3.669   4.503 -0.2634 -0.3448 -0.1545
17186TIP3    H173049   1.356   3.648   4.587  0.5641  0.4857 -0.3286
17186TIP3    H273050   1.223   3.682   4.523 -0.0891 -0.2644  0.6070
17187TIP3   OH273051   4.787   6.267  13.342  0.6307  0.0356  0.2900
17187TIP3    H173052   4.767   6.315  13.261  1.9241 -0.1972 -0.2021
17187TIP3    H273053   4.883   6.270  13.347  0.5821 -0.3484  1.5810
17188TIP3   OH273054   5.028   0.985   5.862  0.0508 -0.7256  0.0132
17188TIP3    H173055   4.952   1.013   5.811  0.5508 -0.8933 -0.8578
17188TIP3    H273056   5.088   0.949   5.797  1.0380 -0.2426  0.6262
17189TIP3   OH273057   2.979   5.342  12.547 -0.4369  0.0150 -0.1954
17189TIP3    H173058   2.928   5.261  12.544  1.7930 -1.5393  1.0142
17189TIP3    H273059   2.962   5.384  12.463 -0.4262 -2.5457 -1.5710
17190TIP3   OH273060   2.983   4.539   0.776 -0.5005  0.6052 -0.0688
17190TIP3    H173061   3.079   4.549   0.777 -0.3292 -0.7923 -0.1166
17190TIP3    H273062   2.961   4.523   0.868 -0.7442  1.3062 -0.0018
17191TIP3   OH273063   0.888   2.456  12.338 -0.0531 -0.2610  0.6465
17191TIP3    H173064   0.895   2.534  12.283  0.5780 -0.3560  0.5758
17191TIP3    H273065   0.917   2.485  12.424 -0.7449 -0.1874  0.8598
17192TIP3   OH273066   2.363   5.704   2.412 -0.0047  0.0583  0.3661
17192TIP3    H173067   2.389   5.635   2.473  2.2979  2.2361  2.0486
17192TIP3    H273068   2.283   5.740   2.450 -1.2092 -1.5422 -0.5074
17193TIP3   OH273069   5.795   6.427   0.008  0.6080 -0.7617 -0.1866
17193TIP3    H173070   5.768   6.336   0.016  0.4489 -0.8664 -1.6892
17193TIP3    H273071   5.887   6.423  -0.019  1.3812 -0.4191  2.1333
17194TIP3   OH273072   5.730   2.188  16.164 -0.3955 -0.2841  0.4566
17194TIP3    H173073   5.713   2.111  16.109  0.4696  0.8720 -1.5740
17194TIP3    H273074   5.823   2.207  16.151 -0.4292  0.6850  1.4863
17195TIP3   OH273075   3.362   3.902   4.107  0.6841  0.1293 -0.4776
17195TIP3    H173076   3.394   3.973   4.162 -1.1411  0.6862 -0.0483
17195TIP3    H273077   3.406   3.824   4.140  1.1053  0.7486  0.4585
17196TIP3   OH273078   3.439   5.704  15.882  0.2338  0.3667 -0.3567
17196TIP3    H173079   3.496   5.627  15.891  2.6208  1.9229 -1.0300
17196TIP3    H273080   3.486   5.761  15.822 -1.6526  2.1895 -0.2019
17197TIP3   OH273081   1.505   4.568  16.479  0.8677  0.0325  0.0060
17197TIP3    H173082   1.562   4.582  16.554  0.3515  1.8198  0.1253
17197TIP3    H273083   1.545   4.618  16.408  1.4927 -1.8483 -1.0329
17198TIP3   OH273084   4.819   4.523   2.095 -0.5201  0.5439  0.3252
17198TIP3    H173085   4.890   4.560   2.149 -0.3323  0.2371  0.2923
17198TIP3    H273086   4.851   4.531   2.005 -0.4787  0.3072  0.3178
17199TIP3   OH273087   0.559   3.933  11.344 -0.2033 -0.0308  0.1419
17199TIP3    H173088   0.475   3.914  11.302  0.6699 -2.5496 -0.6439
17199TIP3    H273089   0.547   3.908  11.436  0.1926 -2.3543 -0.3765
17200TIP3   OH273090   5.012   3.027  15.323  0.4960 -0.0526  0.0820
17200TIP3    H173091   4.940   2.970  15.296  0.2760  0.7924 -1.2070
17200TIP3    H273092   5.088   2.995  15.275  0.6813 -0.1121  0.4121
17201TIP3   OH273093   3.052   4.357  12.763  0.1716 -0.0420  0.2013
17201TIP3    H173094   2.971   4.346  12.813 -1.2862  0.3249 -1.9750
17201TIP3    H273095   3.039   4.438  12.714  1.0106 -0.9813 -1.6566
17202TIP3   OH273096   5.706   5.961   2.998 -0.3191 -0.2659 -0.4237
17202TIP3    H173097   5.614   5.964   2.972 -0.4896  2.2723  0.2462
17202TIP3    H273098   5.723   5.868   3.012 -1.4395 -1.3809 -5.0027
17203TIP3   OH273099   2.889   4.839   3.122 -0.0363  0.2760 -0.0698
17203TIP3    H173100   2.830   4.830   3.197  0.0272 -0.7602 -0.1235
17203TIP3    H273101   2.975   4.855   3.162  0.1964 -1.3524  0.1572
17204TIP3   OH273102   2.305   0.306   3.854 -0.2359  0.0750  0.7066
17204TIP3    H173103   2.316   0.246   3.927  1.2294  0.2358  0.6441
17204TIP3    H273104   2.262   0.254   3.786 -0.0864 -0.5433  1.0794
17205TIP3   OH273105   1.724   6.462  12.373  0.1909  0.5911  0.4001
17205TIP3    H173106   1.796   6.431  12.428 -0.5782  0.4557  1.3529
17205TIP3    H273107   1.721   6.556  12.389 -0.3218  0.4862  0.9525
17206TIP3   OH273108   5.735   4.516  11.591  0.2077 -0.9356 -0.4218
17206TIP3    H173109   5.724   4.581  11.660  0.9361  1.9921 -2.8534
17206TIP3    H273110   5.830   4.505  11.583  0.4785  2.0241 -3.5244
17207TIP3   OH273111   2.825   1.324  14.688 -0.7177  0.4271 -0.1683
17207TIP3    H173112   2.769   1.259  14.730 -1.4204 -0.6987 -2.6734
17207TIP3    H273113   2.767   1.397  14.669 -0.5815  0.5885  0.0173
17208TIP3   OH273114   3.034   3.279   1.519  0.0244  0.3583  0.5091
17208TIP3    H173115   3.036   3.192   1.477 -1.8130  0.4481  0.1687
17208TIP3    H273116   3.059   3.262   1.610 -2.3865 -0.9202  1.0095
17209TIP3   OH273117   6.257   0.395   3.743 -0.4421 -0.6725 -0.1960
17209TIP3    H173118   6.304   0.405   3.826  1.3793 -1.7366 -1.0487
17209TIP3    H273119   6.166   0.413   3.765 -0.3668 -2.9612  2.5017
17210TIP3   OH273120   2.264   5.787   4.209 -0.3771 -0.5488 -0.3645
17210TIP3    H173121   2.229   5.701   4.228  0.4461 -0.2256  3.2888
17210TIP3    H273122   2.200   5.849   4.245  0.3162  0.2699 -0.4896
17211TIP3   OH273123   0.838   2.610  14.209 -0.3608  0.6241  0.1581
17211TIP3    H173124   0.912   2.555  14.232 -0.3458  0.6152  0.0894
17211TIP3    H273125   0.811   2.651  14.291 -0.2914  0.6140  0.1852
17212TIP3   OH273126   4.785   5.173  16.366 -0.0400 -0.1981  0.0342
17212TIP3    H173127   4.700   5.212  16.349  0.6181  1.2598 -0.0078
17212TIP3    H273128   4.813   5.211  16.449 -0.7951 -3.0819  1.7407
17213TIP3   OH273129   2.531   0.878  16.531 -0.2548 -0.2739 -0.2579
17213TIP3    H173130   2.483   0.940  16.586 -0.9452 -1.6052  0.7006
17213TIP3    H273131   2.553   0.805  16.590  0.9605 -0.7426 -1.2249
17214TIP3   OH273132   4.399   2.131   5.697 -0.2096 -0.3731 -0.6933
17214TIP3    H173133   4.446   2.214   5.705 -1.3356  0.3086 -1.0573
17214TIP3    H273134   4.340   2.143   5.623 -1.1980 -1.1040 -0.0507
17215TIP3   OH273135   2.573   6.135  15.427  0.8235  0.0458  0.4659
17215TIP3    H173136   2.562   6.230  15.434 -0.4376 -0.1161  1.0246
17215TIP3    H273137   2.589   6.106  15.517  2.5664 -0.1372  0.1130
17216TIP3   OH273138   0.231   0.755  14.622  0.1358  0.1368  0.1557
17216TIP3    H173139   0.146   0.786  14.590  0.0894 -0.7960 -0.6787
17216TIP3    H273140   0.216   0.663  14.644  1.1008 -0.2494 -0.7115
17217TIP3   OH273141   4.057   3.580  16.276  0.2202 -0.1664  0.3576
17217TIP3    H173142   4.016   3.500  16.244  0.1553 -0.0247  0.0806
17217TIP3    H273143   4.012   3.650  16.229 -1.4296  0.2196  2.3524
17218TIP3   OH273144   3.951   5.336  16.209  0.3971 -0.1191 -0.9009
17218TIP3    H173145   3.924   5.276  16.278 -2.2508 -0.3842 -2.0347
17218TIP3    H273146   3.948   5.284  16.129  2.1775  0.4919 -1.3985
17219TIP3   OH273147   4.816   4.662   4.110  0.7064 -0.3925  0.3743
17219TIP3    H173148   4.845   4.599   4.044 -0.2363 -0.9098  0.4346
17219TIP3    H273149   4.827   4.747   4.068 -0.9961 -0.7659 -0.9236
17220TIP3   OH273150   4.771   6.002   5.759 -0.2613  0.2033  0.0184
17220TIP3    H173151   4.796   5.973   5.847  2.1129  3.1472  0.4925
17220TIP3    H273152   4.676   5.996   5.758 -0.3420 -0.4059  2.6033
17221TIP3   OH273153   5.803   6.231  12.272  0.0149 -0.0844  0.3163
17221TIP3    H173154   5.883   6.193  12.308 -0.4815 -0.8803  0.6020
17221TIP3    H273155   5.796   6.317  12.313 -0.2384 -0.7488  1.6934
17222TIP3   OH273156   2.145   1.267   2.060  0.1761  0.5513 -0.4716
17222TIP3    H173157   2.221   1.318   2.032  1.3435 -0.5583  0.5367
17222TIP3    H273158   2.183   1.192   2.107 -1.5963  1.2343  2.2363
17223TIP3   OH273159   1.999   2.091   4.613  0.3504 -0.2261 -0.2390
17223TIP3    H173160   2.034   2.033   4.681 -0.4635  0.2926  0.6472
17223TIP3    H273161   1.904   2.090   4.627  0.2839  0.9726 -0.4801
17224TIP3   OH273162   3.050   2.443  16.378 -0.4386  0.0038  0.4681
17224TIP3    H173163   3.073   2.444  16.471 -0.1343 -0.8185  0.4129
17224TIP3    H273164   3.072   2.355  16.349 -0.1457  0.3832 -0.4897
17225TIP3   OH273165   2.372   2.512  13.314 -0.0854 -0.2466 -0.1316
17225TIP3    H173166   2.361   2.574  13.243  0.8120  1.0162  0.7961
17225TIP3    H273167   2.313   2.439  13.292  1.5479 -0.8204 -3.1232
17226TIP3   OH273168   4.516   5.917   2.968  0.4237  0.1375 -0.5162
17226TIP3    H173169   4.505   6.009   2.992  1.1382  0.3140 -0.8237
17226TIP3    H273170   4.502   5.869   3.049  1.3650  0.6193 -0.0490
17227TIP3   OH273171   0.414   4.813  14.642  0.1163 -0.5244  0.1630
17227TIP3    H173172   0.401   4.720  14.624  0.8009 -0.5125 -0.4483
17227TIP3    H273173   0.427   4.853  14.556  2.9259 -0.3877  0.5510
17228TIP3   OH273174   4.837   1.018   5.091  0.5411  0.5781  0.3075
17228TIP3    H173175   4.759   0.964   5.104  0.8846 -0.1425 -0.5638
17228TIP3    H273176   4.849   1.062   5.175 -0.0298 -0.3342  0.8903
17229TIP3   OH273177   1.489   2.374  14.358 -0.3541  0.2942  0.3293
17229TIP3    H173178   1.559   2.310  14.347  2.4545  2.8267  1.9654
17229TIP3    H273179   1.472   2.407  14.269 -0.1263 -0.9552 -0.1985
17230TIP3   OH273180   6.290   6.026  10.933  0.3263 -0.0839  0.4775
17230TIP3    H173181   6.205   6.066  10.913  0.8089  0.4180 -0.6119
17230TIP3    H273182   6.341   6.097  10.972  0.1531 -0.4779  1.4769
17231TIP3   OH273183   0.666   4.351   5.397 -0.7768  1.1783 -0.1720
17231TIP3    H173184   0.724   4.279   5.422  1.1382  2.3237 -1.1485
17231TIP3    H273185   0.593   4.308   5.352  0.1604 -0.2002 -0.4370
17232TIP3   OH273186   0.617   5.148   0.019  0.1157  0.1512 -0.2716
17232TIP3    H173187   0.569   5.226  -0.006 -0.5486 -0.0917  0.2009
17232TIP3    H273188   0.566   5.111   0.092  1.2562  0.1335  0.5480
17233TIP3   OH273189   0.123   3.417  12.705 -0.2974  0.1356  0.4926
17233TIP3    H173190   0.034   3.383  12.710  0.9727 -3.8441 -0.4113
17233TIP3    H273191   0.132   3.446  12.614 -1.2634  2.8480  1.1682
17234TIP3   OH273192   3.390   4.416  17.071 -0.4164  0.2170 -0.6755
17234TIP3    H173193   3.401   4.388  16.980  0.4769 -0.3706 -0.3989
17234TIP3    H273194   3.433   4.501  17.076  3.0180 -1.3936  0.0370
17235TIP3   OH273195   5.787   6.771  10.802  0.3022  0.2552  0.5291
17235TIP3    H173196   5.843   6.706  10.846  0.5900 -1.0136 -1.5877
17235TIP3    H273197   5.791   6.848  10.860  1.7913 -0.8184  1.9764
17236TIP3   OH273198   2.431   5.541   4.423  0.4464 -0.4831 -0.9915
17236TIP3    H173199   2.414   5.525   4.516  2.4334 -0.8676 -0.6457
17236TIP3    H273200   2.359   5.598   4.395 -0.2780 -0.4898  0.7366
17237TIP3   OH273201   2.319   5.713   3.833  0.3911  0.1205 -1.0695
17237TIP3    H173202   2.291   5.635   3.785 -0.3217 -1.5277  1.8201
17237TIP3    H273203   2.380   5.680   3.899  0.4484  2.0820 -0.0731
17238TIP3   OH273204   0.366   1.212  11.430  0.0022 -0.1757 -0.0275
17238TIP3    H173205   0.416   1.293  11.419 -1.3547  0.5806 -0.8374
17238TIP3    H273206   0.320   1.223  11.513  0.3373 -0.4130  0.1917
17239TIP3   OH273207   4.915   0.261  10.991 -0.3262 -0.3164 -0.1378
17239TIP3    H173208   4.823   0.288  10.987 -0.6498 -1.2189  0.7300
17239TIP3    H273209   4.940   0.273  11.083  0.7572  0.9256 -0.5694
17240TIP3   OH273210   1.829   6.682   0.247 -0.1018  0.5098 -0.2695
17240TIP3    H173211   1.875   6.718   0.323  1.1473 -1.1447 -0.1684
17240TIP3    H273212   1.812   6.757   0.191  0.4793  1.5279  0.8723
17241TIP3   OH273213   5.004   6.467   0.591 -0.0496  0.3073 -0.1143
17241TIP3    H173214   5.036   6.472   0.501 -0.5072 -1.7729 -0.4344
17241TIP3    H273215   5.016   6.376   0.616  1.1388  1.0308  2.3692
17242TIP3   OH273216   1.146   6.239  15.309  0.1069 -0.3672 -0.4442
17242TIP3    H173217   1.051   6.248  15.296  0.0729 -1.4554 -1.1107
17242TIP3    H273218   1.155   6.169  15.374  0.4509 -1.1415 -1.2945
17243TIP3   OH273219   0.705   2.015  10.740  0.2118 -0.0866  0.4188
17243TIP3    H173220   0.760   1.977  10.671  0.0435 -1.2256  0.9013
17243TIP3    H273221   0.623   2.038  10.696  1.1224  1.8837 -0.3715
17244TIP3   OH273222   5.246   2.450   0.326  0.1564 -0.4345 -0.2345
17244TIP3    H173223   5.176   2.432   0.389 -0.2506  0.1997 -0.4921
17244TIP3    H273224   5.217   2.529   0.281  1.2130  0.0273 -0.1138
17245TIP3   OH273225   6.194   1.757  13.538 -0.3228  0.0518  0.2814
17245TIP3    H173226   6.246   1.693  13.490  3.6904  2.0280  1.5633
17245TIP3    H273227   6.194   1.724  13.629  2.8290  2.1968  1.2079
17246TIP3   OH273228   3.873   5.670  13.042 -0.2603 -0.0562  0.0304
17246TIP3    H173229   3.814   5.744  13.024  0.4731  1.3379  2.7613
17246TIP3    H273230   3.837   5.628  13.120  1.5220 -0.0206  0.9450
17247TIP3   OH273231   5.888   5.376   6.286  0.1982  0.7553 -0.2615
17247TIP3    H173232   5.886   5.462   6.326  0.6983  0.8481 -0.4197
17247TIP3    H273233   5.797   5.346   6.286 -0.0085  1.3767 -0.4108
17248TIP3   OH273234   2.258   6.106   6.012 -0.0486  0.0721  0.2310
17248TIP3    H173235   2.322   6.036   6.030 -0.2757 -0.5044 -1.0709
17248TIP3    H273236   2.174   6.061   6.014 -0.4141  0.7727  1.6265
17249TIP3   OH273237   3.147   6.368  16.725  0.0235  0.0345  0.0474
17249TIP3    H173238   3.123   6.309  16.796 -0.2324 -0.1294 -0.1701
17249TIP3    H273239   3.241   6.355  16.714  0.1350  0.3328  0.5974
17250TIP3   OH273240   4.245   4.593   3.710 -0.4626 -0.8675 -0.1151
17250TIP3    H173241   4.309   4.664   3.705  1.8622 -2.8275 -0.4726
17250TIP3    H273242   4.189   4.616   3.784  0.5179  1.0704  0.0818
17251TIP3   OH273243   3.483   4.322  16.805 -0.6625  0.3991 -0.2988
17251TIP3    H173244   3.442   4.244  16.842  1.0195 -1.1269 -1.4461
17251TIP3    H273245   3.411   4.384  16.795 -2.4725 -1.6711 -1.0576
17252TIP3   OH273246   3.855   5.045  12.457 -0.4418  0.6284  0.3886
17252TIP3    H173247   3.823   4.965  12.500 -0.6838 -0.9627 -2.4933
17252TIP3    H273248   3.792   5.113  12.483  0.5893  0.3790  4.0978
17253TIP3   OH273249   2.953   6.253  14.433  0.0174 -0.1664 -0.2900
17253TIP3    H173250   2.952   6.164  14.399  0.5218  0.2092 -1.3158
17253TIP3    H273251   3.043   6.283  14.419 -0.1798  0.5504 -0.0556
17254TIP3   OH273252   2.127   2.435  14.971  0.5841  0.3050 -0.1375
17254TIP3    H173253   2.134   2.481  14.887  1.6211  0.4344  0.0010
17254TIP3    H273254   2.070   2.489  15.024 -2.6156 -1.2540 -1.7014
17255TIP3   OH273255   3.069   0.419   4.607 -0.0902 -0.2230 -0.4346
17255TIP3    H173256   3.118   0.501   4.606 -1.6252  0.7584  0.6448
17255TIP3    H273257   3.059   0.397   4.699  0.7100 -1.9272 -0.7080
17256TIP3   OH273258   4.361   2.129   0.234 -0.6887  0.3120 -0.7004
17256TIP3    H173259   4.438   2.075   0.251 -1.9724 -0.8920  1.9532
17256TIP3    H273260   4.390   2.219   0.251  0.3628 -0.0156 -0.6900
17257TIP3   OH273261   6.081   5.352   3.643 -0.2223 -0.0576 -0.5797
17257TIP3    H173262   6.109   5.405   3.718  0.5576 -1.9630  0.5619
17257TIP3    H273263   6.012   5.403   3.602  0.8705  2.0877  0.0901
17258TIP3   OH273264   6.175   5.071   2.006  0.1388  0.1489 -0.1709
17258TIP3    H173265   6.181   5.104   2.095 -1.0208  0.0298 -0.0312
17258TIP3    H273266   6.119   5.134   1.960  0.4312  0.0184 -0.7226
17259TIP3   OH273267   4.400   1.727   4.163 -0.5316 -0.2461  0.7944
17259TIP3    H173268   4.485   1.713   4.122 -0.6784 -0.3214  0.5186
17259TIP3    H273269   4.411   1.694   4.252 -0.6447 -1.4133  0.3815
17260TIP3   OH273270   3.833   3.537  13.831  0.0094  0.2651 -0.5411
17260TIP3    H173271   3.761   3.590  13.865  0.0786 -1.0772  1.9791
17260TIP3    H273272   3.812   3.524  13.739 -2.7173  0.3564 -0.0203
17261TIP3   OH273273   2.473   1.779  15.769  0.3949 -0.7143  0.0836
17261TIP3    H173274   2.382   1.804  15.787 -0.1163 -0.4704 -2.4323
17261TIP3    H273275   2.511   1.856  15.726  1.4664 -1.1874  0.1617
17262TIP3   OH273276   2.769   6.324  13.001 -0.5431  0.5518  0.6462
17262TIP3    H173277   2.841   6.264  12.980  0.4744  1.8563  0.2778
17262TIP3    H273278   2.700   6.267  13.035 -0.3494 -1.0643 -1.4669
17263TIP3   OH273279   6.607   4.858  17.100  0.1579 -0.0601 -0.0290
17263TIP3    H173280   6.621   4.943  17.057 -2.3706  0.5047  0.0816
17263TIP3    H273281   6.560   4.880  17.180 -0.4884 -1.5596  0.0239
17264TIP3   OH273282   0.318   2.568   0.212 -0.8936 -0.7945  0.0125
17264TIP3    H173283   0.313   2.610   0.298 -3.2193  0.8051 -0.8295
17264TIP3    H273284   0.364   2.485   0.229  0.7991  0.4896  2.3337
17265TIP3   OH273285   0.963   3.316  14.844  0.1425  0.2347 -0.1102
17265TIP3    H173286   0.993   3.290  14.758 -1.1204 -0.4443 -0.3747
17265TIP3    H273287   0.903   3.389  14.828 -0.9924 -0.6306  0.0526
17266TIP3   OH273288   6.184   6.716  16.949  0.0453  0.2236 -0.1099
17266TIP3    H173289   6.237   6.746  16.875  0.6305 -0.5279 -0.0142
17266TIP3    H273290   6.237   6.647  16.990 -1.4253 -1.2974 -0.6350
17267TIP3   OH273291   5.005   3.055  14.613  0.3354  0.1156  0.1873
17267TIP3    H173292   4.953   3.132  14.586 -2.3966 -1.3746  0.8109
17267TIP3    H273293   5.032   3.076  14.702  1.0183  1.0102 -0.2132
17268TIP3   OH273294   0.278   0.032  12.694  0.2132 -0.4352  0.5009
17268TIP3    H173295   0.307   0.094  12.760 -0.2441  0.0619  0.2461
17268TIP3    H273296   0.305  -0.054  12.727 -0.1411 -0.2077  1.3900
17269TIP3   OH273297   1.280   3.641  13.231  0.0024  0.0900  0.3463
17269TIP3    H173298   1.192   3.657  13.196 -0.2229 -2.9920 -0.7691
17269TIP3    H273299   1.326   3.724  13.218 -1.6854  0.7240 -2.4293
17270TIP3   OH273300   0.352   3.854  14.957 -0.2396  0.4557 -0.1136
17270TIP3    H173301   0.288   3.892  15.018 -0.9780 -0.3481 -0.3746
17270TIP3    H273302   0.437   3.868  15.000 -0.6662  0.6917  0.6778
17271TIP3   OH273303   4.611   2.112  12.235 -0.6956  0.7651 -0.3840
17271TIP3    H173304   4.576   2.199  12.215  0.4287  1.0512 -1.1862
17271TIP3    H273305   4.598   2.103  12.330  0.0259  2.2097 -0.1232
17272TIP3   OH273306   2.988   2.078  14.000 -0.8303  0.2235  0.3322
17272TIP3    H173307   2.918   2.091  13.936 -1.9412  0.2572  1.5118
17272TIP3    H273308   3.055   2.142  13.976 -0.2961 -1.1103 -1.9955
17273TIP3   OH273309   4.476   4.169   3.066 -0.6339 -0.6757  0.2596
17273TIP3    H173310   4.496   4.086   3.023  1.3532 -0.9622  1.6391
17273TIP3    H273311   4.561   4.206   3.087 -1.5188  1.2571  0.5669
17274TIP3   OH273312   4.780   1.964  11.864 -0.2443  0.0524 -0.3682
17274TIP3    H173313   4.737   1.880  11.851  0.0931 -0.6306  2.3421
17274TIP3    H273314   4.797   1.968  11.958 -1.6568  3.8530 -0.1168
17275TIP3   OH273315   5.253   1.329   4.230  0.0451  0.6361  0.2692
17275TIP3    H173316   5.167   1.294   4.252  0.1648  1.1052  1.5779
17275TIP3    H273317   5.314   1.258   4.248 -0.1485 -0.2158 -2.0684
17276TIP3   OH273318   1.562   2.419  14.081  0.2744  0.2435  0.3378
17276TIP3    H173319   1.646   2.405  14.126 -0.6891  0.8255  2.4188
17276TIP3    H273320   1.537   2.508  14.104 -0.2195  0.6393 -1.5364
17277TIP3   OH273321   0.135   6.736   3.958 -0.2260 -0.4528 -0.0939
17277TIP3    H173322   0.222   6.771   3.939 -1.1195  0.7239 -2.3563
17277TIP3    H273323   0.145   6.691   4.042  2.5593 -0.4146 -0.3257
17278TIP3   OH273324   4.884   3.899   1.547  0.3778 -0.2065  0.3863
17278TIP3    H173325   4.870   3.911   1.641  0.7187 -0.6013  0.4942
17278TIP3    H273326   4.797   3.908   1.508  0.3581  0.8082  0.6374
17279TIP3   OH273327   1.741   1.739   3.586 -0.7290 -0.1918  0.3495
17279TIP3    H173328   1.657   1.772   3.620 -0.0367  1.0465  0.9346
17279TIP3    H273329   1.740   1.646   3.606 -1.4424  0.0333  1.4932
17280TIP3   OH273330   5.772   4.673  15.775 -0.1514  0.2333  0.2778
17280TIP3    H173331   5.732   4.607  15.832  0.4322 -1.2554 -0.9723
17280TIP3    H273332   5.734   4.756  15.804 -1.3006 -0.6976  1.5645
17281TIP3   OH273333   6.770   5.688   0.406  0.1532 -0.3476  0.0658
17281TIP3    H173334   6.731   5.658   0.488 -1.0232 -0.1173 -0.3930
17281TIP3    H273335   6.843   5.628   0.391 -0.5193 -1.3117  0.5244
17282TIP3   OH273336   1.478   5.397  15.746  0.1427  0.0919 -0.1543
17282TIP3    H173337   1.461   5.393  15.651 -0.8613  0.2701  0.0046
17282TIP3    H273338   1.492   5.306  15.772  1.9702  0.1709 -0.7189
17283TIP3   OH273339   0.112   0.956  12.475 -0.0831  0.2119  0.1635
17283TIP3    H173340   0.166   1.034  12.490 -0.8087  0.6400  0.5895
17283TIP3    H273341   0.134   0.929  12.386  1.6614 -0.2881  0.6967
17284TIP3   OH273342   0.965   1.519  11.802 -0.3092  0.2234  0.2658
17284TIP3    H173343   0.910   1.592  11.775 -1.4377 -0.8685 -0.4922
17284TIP3    H273344   1.054   1.544  11.775 -0.5867  1.5217  0.5077
17285TIP3   OH273345   0.609   2.910   1.384  0.3097  0.0763 -0.1879
17285TIP3    H173346   0.674   2.947   1.444 -1.1181  0.3323  1.2869
17285TIP3    H273347   0.597   2.976   1.317  1.6356 -0.0282 -0.5470
17286TIP3   OH273348   1.069   6.326  14.991  0.4649  0.6034  0.5305
17286TIP3    H173349   1.119   6.245  15.005  2.2936  1.2953 -1.3787
17286TIP3    H273350   1.094   6.382  15.064 -0.5507 -0.3990  1.6837
17287TIP3   OH273351   3.110   3.888   3.739 -0.3349 -0.1269  0.0475
17287TIP3    H173352   3.186   3.860   3.688  0.0057 -0.9292  0.9694
17287TIP3    H273353   3.147   3.925   3.819 -0.8931 -1.9390  1.2166
17288TIP3   OH273354   0.759   2.891  13.979 -0.3555  0.3907 -0.7321
17288TIP3    H173355   0.681   2.850  13.940 -0.3625 -0.2248 -0.0900
17288TIP3    H273356   0.758   2.861  14.070  0.9194 -0.0343 -0.8479
17289TIP3   OH273357   4.065   2.284  12.779 -0.5973  0.4862 -0.3775
17289TIP3    H173358   4.061   2.360  12.722 -1.2676  0.4026 -0.4497
17289TIP3    H273359   4.083   2.320  12.866 -0.5295  0.6942 -0.4774
17290TIP3   OH273360   3.474   1.600  13.974  0.1844 -0.1744  0.2180
17290TIP3    H173361   3.497   1.688  13.944  0.8247 -0.8760 -1.4651
17290TIP3    H273362   3.380   1.605  13.993  0.3773  1.0651  0.9525
17291TIP3   OH273363   5.557   1.684  14.533 -0.5204  0.2478  0.1930
17291TIP3    H173364   5.511   1.697  14.615  0.7471 -0.3891  1.0476
17291TIP3    H273365   5.489   1.687  14.466 -1.7937 -0.6989  1.3918
17292TIP3   OH273366   1.580   2.854   1.536 -0.0506 -0.1824 -0.2131
17292TIP3    H173367   1.512   2.881   1.474 -0.4051 -1.0173 -0.1927
17292TIP3    H273368   1.591   2.930   1.594 -2.3765 -0.6918  1.0144
17293TIP3   OH273369   2.416   6.276  15.034 -0.2748  0.3368 -0.7645
17293TIP3    H173370   2.334   6.264  15.081  0.2131  0.6874  0.2214
17293TIP3    H273371   2.398   6.247  14.945 -1.3238 -0.0477 -0.4401
17294TIP3   OH273372   0.878   5.796  12.780  0.1659  0.0955 -0.2164
17294TIP3    H173373   0.843   5.884  12.769 -0.5137  0.3123  2.6718
17294TIP3    H273374   0.957   5.794  12.726 -0.3547  2.1038 -1.1477
17295TIP3   OH273375   5.712   4.160   2.396  0.2877  0.0572  0.4533
17295TIP3    H173376   5.790   4.216   2.396  0.8472 -0.6915 -0.0864
17295TIP3    H273377   5.715   4.115   2.312  0.3094 -1.3853  1.1806
17296TIP3   OH273378   1.981   6.721  12.101  0.3733  0.0596  0.1830
17296TIP3    H173379   2.048   6.693  12.163  0.2215  0.9630  0.7787
17296TIP3    H273380   1.972   6.648  12.041  0.8076 -0.6785  0.9914
17297TIP3   OH273381   2.169   0.650  17.079  0.2950  0.1281 -0.1019
17297TIP3    H173382   2.109   0.580  17.053 -1.9819  1.6326  0.7632
17297TIP3    H273383   2.197   0.691  16.997 -0.1598 -0.3553 -0.5031
17298TIP3   OH273384   0.439   1.994   1.011  0.3612 -0.1516 -0.5171
17298TIP3    H173385   0.372   2.062   1.017  0.8526  0.5665 -2.4361
17298TIP3    H273386   0.464   1.993   0.919  3.4042  0.0369  0.1979
17299TIP3   OH273387   0.978   2.198   4.496 -0.2438  0.1802 -0.0776
17299TIP3    H173388   0.954   2.208   4.588  3.2845  1.1352  0.9231
17299TIP3    H273389   0.981   2.288   4.462  0.6168  0.0318 -0.4307
17300TIP3   OH273390   4.642   1.131  11.478 -0.0446  0.2940  0.1902
17300TIP3    H173391   4.609   1.184  11.551  2.4126  0.9115  0.9592
17300TIP3    H273392   4.639   1.190  11.403 -0.1936  0.5003  0.3549
17301TIP3   OH273393   4.857   0.375   1.633 -0.3325 -0.0084  0.2998
17301TIP3    H173394   4.945   0.337   1.637  0.4933  1.4460 -1.9936
17301TIP3    H273395   4.836   0.396   1.724  0.8729 -2.0701  1.1323
17302TIP3   OH273396   4.156   5.312  12.897 -0.3629  0.1347  0.2852
17302TIP3    H173397   4.111   5.365  12.831  0.2314  0.7231  0.3388
17302TIP3    H273398   4.184   5.375  12.963  0.1607 -0.2751  0.4638
17303TIP3   OH273399   4.295   0.044   0.613 -0.3176 -0.2786 -0.0953
17303TIP3    H173400   4.328  -0.022   0.552  1.6629  0.6439 -0.0951
17303TIP3    H273401   4.295   0.125   0.563 -1.3725  0.0073  0.3316
17304TIP3   OH273402   6.747   2.553   0.290  0.4290 -0.1666 -0.5483
17304TIP3    H173403   6.768   2.646   0.297  0.4412 -0.2130  0.0547
17304TIP3    H273404   6.818   2.516   0.238  1.7338 -0.2763  1.2364
17305TIP3   OH273405   2.528   5.142   0.817  0.3489  0.5971 -0.5593
17305TIP3    H173406   2.539   5.196   0.895  0.9497 -1.5378  0.9272
17305TIP3    H273407   2.543   5.053   0.847 -0.7838 -0.4640 -2.8530
17306TIP3   OH273408   2.115   4.917   2.669  0.0033 -0.3247 -0.5537
17306TIP3    H173409   2.036   4.865   2.658  0.6876 -1.1846 -1.5202
17306TIP3    H273410   2.179   4.857   2.708  1.0474 -0.5179 -2.4116
17307TIP3   OH273411   4.527   5.203   5.515  0.3603  0.0444 -0.3280
17307TIP3    H173412   4.496   5.112   5.509  1.3878 -0.4089  0.8019
17307TIP3    H273413   4.519   5.224   5.608 -1.1531  1.6078 -0.7687
17308TIP3   OH273414   4.522   3.531  14.014 -0.0321  0.1287  0.4471
17308TIP3    H173415   4.570   3.454  14.044 -1.6275 -1.1173 -0.0760
17308TIP3    H273416   4.490   3.507  13.927  1.2229  2.2121 -0.6882
17309TIP3   OH273417   0.160   0.960  12.941  0.5362 -0.7033 -0.0128
17309TIP3    H173418   0.095   0.889  12.932  0.7304 -0.8454 -0.3296
17309TIP3    H273419   0.155   1.006  12.857  1.9378 -1.6560 -0.6604
17310TIP3   OH273420   5.955   4.706  11.223 -0.1544 -0.1654 -0.0363
17310TIP3    H173421   5.912   4.786  11.255 -1.1335 -0.3898 -0.7406
17310TIP3    H273422   6.004   4.674  11.299  2.3440  2.4288 -0.3684
17311TIP3   OH273423   2.287   4.427   5.727 -0.0387 -0.2159 -0.1909
17311TIP3    H173424   2.259   4.435   5.818 -0.0587 -0.4084 -0.1785
17311TIP3    H273425   2.382   4.418   5.731  0.1981  1.8523 -0.3182
17312TIP3   OH273426   2.244   1.529  15.026  0.4619 -0.2200  0.2959
17312TIP3    H173427   2.262   1.582  14.949 -0.7804 -0.7740 -0.4222
17312TIP3    H273428   2.157   1.557  15.054  0.5845 -0.5616  1.0379
17313TIP3   OH273429   1.193   2.236  11.279 -0.1843 -0.2215 -0.3218
17313TIP3    H173430   1.223   2.228  11.189 -0.3691 -0.0875 -0.3953
17313TIP3    H273431   1.219   2.324  11.306  0.5501 -0.5335  0.0082
17314TIP3   OH273432   4.015   6.299  11.644  0.2619  0.2381  0.0064
17314TIP3    H173433   4.036   6.205  11.646  1.7492  0.4921 -1.3932
17314TIP3    H273434   4.100   6.342  11.640 -0.3874  1.4970 -2.3177
17315TIP3   OH273435   0.702   4.184  12.700 -0.0860  0.0562 -0.0521
17315TIP3    H173436   0.674   4.112  12.757 -0.6857  0.4959  0.2258
17315TIP3    H273437   0.622   4.211  12.654  0.0372  0.8119  0.1590
17316TIP3   OH273438   2.058   5.285   5.280 -0.6021 -1.2876  0.6371
17316TIP3    H173439   2.039   5.352   5.346  2.1641  1.0668 -0.7206
17316TIP3    H273440   1.975   5.273   5.233 -0.9390  2.4478 -0.0350
17317TIP3   OH273441   5.373   3.461   2.222  0.1053 -0.4867  0.9218
17317TIP3    H173442   5.450   3.458   2.165  0.6533  2.0410  1.3878
17317TIP3    H273443   5.301   3.486   2.164  0.1391 -0.4171  0.9108
17318TIP3   OH273444   1.384   2.741   6.304 -0.0259  0.2149  0.5331
17318TIP3    H173445   1.478   2.753   6.289  0.2090 -1.1523  0.7776
17318TIP3    H273446   1.356   2.684   6.233  0.5592 -4.1703  3.3955
17319TIP3   OH273447   6.027   3.517   5.210 -0.2083 -0.2420 -0.4841
17319TIP3    H173448   6.074   3.442   5.173 -0.3795  0.0837 -1.3742
17319TIP3    H273449   6.094   3.583   5.226 -0.3632  0.3143 -1.9813
17320TIP3   OH273450   0.566   5.135   1.831 -0.3230  0.0012  0.6652
17320TIP3    H173451   0.550   5.183   1.749 -0.3461  0.4215  0.9136
17320TIP3    H273452   0.486   5.086   1.846  0.1610 -1.1130 -0.2555
17321TIP3   OH273453   5.584   0.353  11.340  1.0081  0.4507 -0.2410
17321TIP3    H173454   5.584   0.308  11.256 -0.5156  1.4532 -0.8320
17321TIP3    H273455   5.608   0.443  11.319  0.0613  0.8433  0.2922
17322TIP3   OH273456   0.668   6.643  15.131 -0.0370 -0.4256  0.2797
17322TIP3    H173457   0.593   6.670  15.183 -0.6437 -1.7265  0.1143
17322TIP3    H273458   0.636   6.571  15.077  0.8362  0.2432 -1.1881
17323TIP3   OH273459   0.514   3.494   6.065  0.1796  0.1000 -0.5900
17323TIP3    H173460   0.540   3.557   6.132 -1.4754  2.2436 -1.8179
17323TIP3    H273461   0.541   3.410   6.099 -1.3308  0.9476  3.2133
17324TIP3   OH273462   0.366   0.930  11.598 -0.6127  0.3735 -0.1103
17324TIP3    H173463   0.271   0.936  11.592 -0.7614 -1.5610 -0.3181
17324TIP3    H273464   0.383   0.838  11.615  1.0912  1.1141  2.9861
17325TIP3   OH273465   6.446   5.811  12.816 -0.2541 -0.2606  0.2216
17325TIP3    H173466   6.492   5.736  12.779  1.2487  1.2451 -1.1463
17325TIP3    H273467   6.467   5.809  12.909 -0.4747 -1.6581  0.2648
17326TIP3   OH273468   1.925   5.487   1.594 -0.1957  0.0851 -0.4353
17326TIP3    H173469   1.896   5.574   1.623  0.2162 -0.4772  1.8173
17326TIP3    H273470   1.857   5.427   1.624 -0.4333 -0.4253 -1.9058
17327TIP3   OH273471   3.584   3.257  15.969  0.4375  0.5251  0.4265
17327TIP3    H173472   3.516   3.278  15.905  1.5097  0.7495 -0.6633
17327TIP3    H273473   3.571   3.321  16.039  0.4680  1.5668 -0.4872
17328TIP3   OH273474   5.658   0.041   0.799  0.3521  0.0259 -0.3474
17328TIP3    H173475   5.581   0.089   0.828  0.4875  0.7766 -1.2067
17328TIP3    H273476   5.640   0.020   0.708 -0.3193 -2.7955  0.3188
17329TIP3   OH273477   4.218   6.264   4.910 -0.0329  0.2641  0.2391
17329TIP3    H173478   4.204   6.185   4.858  0.6360  0.9693 -1.0485
17329TIP3    H273479   4.280   6.236   4.978  0.7898 -0.1657 -0.6536
17330TIP3   OH273480   2.768   5.430   0.290 -0.1875  0.2833  0.6990
17330TIP3    H173481   2.678   5.399   0.301  0.5083 -2.0325  0.4040
17330TIP3    H273482   2.810   5.413   0.375  0.5468 -0.8338  0.1325
17331TIP3   OH273483   5.227   2.315   3.573 -0.0972 -0.7340 -0.1958
17331TIP3    H173484   5.138   2.328   3.605  0.7249 -0.8381  2.3202
17331TIP3    H273485   5.222   2.334   3.479 -2.7061 -0.5755 -0.0785
17332TIP3   OH273486   3.988   5.171  15.994  0.2892 -0.4537  0.6295
17332TIP3    H173487   4.075   5.141  16.022  0.5708 -0.2366  0.0043
17332TIP3    H273488   3.949   5.095  15.951  0.3220 -0.4317  0.5616
17333TIP3   OH273489   6.421   6.762   6.164  0.5307 -0.3844 -0.3220
17333TIP3    H173490   6.442   6.675   6.130 -0.9963 -0.0794 -2.2225
17333TIP3    H273491   6.490   6.819   6.129 -0.6169 -0.2039 -2.3981
17334TIP3   OH273492   2.378   3.073   4.706  0.6128 -0.1901 -0.4690
17334TIP3    H173493   2.371   3.169   4.709  2.5135 -0.0109 -0.6776
17334TIP3    H273494   2.472   3.056   4.699  0.4412 -2.1352  1.1966
17335TIP3   OH273495   6.138   0.877  14.537  0.2299  0.2673 -0.4495
17335TIP3    H173496   6.169   0.799  14.584  0.4912  0.4399 -0.3280
17335TIP3    H273497   6.185   0.874  14.453  0.0164  0.1361 -0.5627
17336TIP3   OH273498   2.730   2.068  12.956  0.0363 -0.4030  0.3491
17336TIP3    H173499   2.651   2.123  12.962 -0.2173 -0.8107  0.7845
17336TIP3    H273500   2.772   2.097  12.875 -0.2953  0.1691  0.3685
17337TIP3   OH273501   3.777   0.180  13.207 -0.0240 -0.3199  0.5549
17337TIP3    H173502   3.781   0.237  13.131  0.0909 -1.2569 -0.1530
17337TIP3    H273503   3.699   0.125  13.193  0.0577 -0.5770  1.0532
17338TIP3   OH273504   0.027   4.365   6.223  0.4158  0.1895  0.7541
17338TIP3    H173505  -0.023   4.284   6.231  0.5166  0.1657  1.1142
17338TIP3    H273506  -0.011   4.423   6.289 -0.0661  0.6477  0.0954
17339TIP3   OH273507   4.847   0.781   2.277  0.1382  0.9732  0.4184
17339TIP3    H173508   4.938   0.792   2.306 -0.0875  0.8693  1.1841
17339TIP3    H273509   4.795   0.817   2.349 -0.5231 -1.7749  1.4134
17340TIP3   OH273510   2.304   2.284   3.911  0.6596  0.2424 -0.2148
17340TIP3    H173511   2.212   2.256   3.914  0.7859 -0.3186 -1.1189
17340TIP3    H273512   2.323   2.315   3.999 -0.4010  0.3610 -0.0157
17341TIP3   OH273513   3.767   4.785  13.633 -0.8234 -0.5099 -0.1282
17341TIP3    H173514   3.837   4.825  13.685 -0.1979  0.7395 -1.8118
17341TIP3    H273515   3.794   4.694  13.623  2.3967  0.5225 -3.2936
17342TIP3   OH273516   4.297   5.894  12.943  0.1477 -0.0656 -0.1233
17342TIP3    H173517   4.302   5.988  12.955 -0.8229 -0.2928  2.9397
17342TIP3    H273518   4.228   5.865  13.003  0.1498 -2.6859 -1.2228
17343TIP3   OH273519   6.154   3.011  12.016 -0.8908 -0.1508 -0.2799
17343TIP3    H173520   6.082   2.975  12.067 -2.5828  1.0774 -1.6795
17343TIP3    H273521   6.144   2.971  11.929  1.5036 -1.6782  0.0445
17344TIP3   OH273522   3.418   6.618  16.897  0.3089  0.2448 -0.0331
17344TIP3    H173523   3.491   6.566  16.865 -0.7306 -0.3896 -1.5037
17344TIP3    H273524   3.395   6.578  16.981  1.1608 -0.0308  0.0731
17345TIP3   OH273525   1.451   4.442  16.812 -0.0017 -0.1027  0.0645
17345TIP3    H173526   1.393   4.504  16.768 -0.5050  2.1374  3.5280
17345TIP3    H273527   1.450   4.365  16.755 -2.2438  1.7007 -2.6360
17346TIP3   OH273528   4.644   2.468  12.063 -0.1218 -0.1413 -0.7384
17346TIP3    H173529   4.665   2.410  12.136 -0.3856 -0.9338 -1.2796
17346TIP3    H273530   4.674   2.421  11.986 -1.4713 -0.1338 -1.2996
17347TIP3   OH273531   4.754   6.758  15.664 -0.1813  0.2725  0.1516
17347TIP3    H173532   4.772   6.707  15.585  0.5263  2.1541 -0.9820
17347TIP3    H273533   4.710   6.697  15.723 -1.5448 -0.9680 -2.0159
17348TIP3   OH273534   6.543   1.047  14.132  1.0376 -0.3920 -0.1336
17348TIP3    H173535   6.494   0.976  14.091  0.8628 -1.6101  2.0673
17348TIP3    H273536   6.603   1.077  14.063 -0.6704 -0.8679 -1.9419
17349TIP3   OH273537   3.957   4.799   2.090  0.4820  0.0003  0.2952
17349TIP3    H173538   3.864   4.804   2.109  0.2534 -0.5425 -0.6277
17349TIP3    H273539   4.000   4.816   2.174 -0.4345  0.5901  0.6546
17350TIP3   OH273540   0.341   6.808   2.260 -0.1961  0.0606 -0.0129
17350TIP3    H173541   0.373   6.878   2.316  3.0076 -1.7890  0.7296
17350TIP3    H273542   0.376   6.828   2.173 -0.9647  0.3511 -0.2692
17351TIP3   OH273543   3.361   1.003  13.455 -0.3815 -0.9659 -0.3435
17351TIP3    H173544   3.453   1.006  13.482 -0.1175 -0.8089 -1.2198
17351TIP3    H273545   3.361   1.041  13.367 -1.2846 -0.9871 -0.3593
17352TIP3   OH273546   0.295   4.401   0.237  0.5079 -0.0273  0.5806
17352TIP3    H173547   0.370   4.341   0.235  0.6785  0.1473  1.5438
17352TIP3    H273548   0.220   4.347   0.212  0.8546 -0.3491  0.2280
17353TIP3   OH273549   1.606   4.459   2.601  0.5098 -0.1357  0.1316
17353TIP3    H173550   1.672   4.512   2.556 -1.5098  1.1503 -1.5475
17353TIP3    H273551   1.650   4.426   2.679  2.2242  3.2729  0.8064
17354TIP3   OH273552   0.653   5.469   4.198 -0.3463  0.0651  0.4769
17354TIP3    H173553   0.699   5.452   4.116  0.3308 -0.0908  0.8816
17354TIP3    H273554   0.720   5.506   4.256 -0.8803  0.4382  0.8731
17355TIP3   OH273555   1.004   4.582   0.264  0.1438  0.3984 -0.3423
17355TIP3    H173556   1.078   4.616   0.314 -0.5726 -0.0459  1.0950
17355TIP3    H273557   1.035   4.498   0.229  0.0747 -0.2133  0.9910
17356TIP3   OH273558   5.983   4.528   2.990  0.5915 -0.0087  0.2657
17356TIP3    H173559   6.017   4.439   2.992 -0.8771 -0.6324 -0.5253
17356TIP3    H273560   5.888   4.517   2.999  0.4567  1.5437  1.0466
17357TIP3   OH273561   4.062   0.774  14.124 -0.1858 -0.3948  0.5650
17357TIP3    H173562   4.017   0.841  14.073  0.9214 -0.4876 -0.5744
17357TIP3    H273563   4.112   0.822  14.189  3.1022  0.2401 -2.1730
17358TIP3   OH273564   5.186   4.130   4.645  0.0972  0.5574 -0.2857
17358TIP3    H173565   5.122   4.183   4.597  0.7401  0.0267 -1.8030
17358TIP3    H273566   5.243   4.195   4.688  0.1074  1.0878 -1.0698
17359TIP3   OH273567   6.324   2.049  16.472  0.3991 -0.3238 -0.1874
17359TIP3    H173568   6.232   2.059  16.449  0.8578 -1.3521 -2.8131
17359TIP3    H273569   6.329   1.964  16.516 -0.0924  0.4534  1.4427
17360TIP3   OH273570   6.003   4.100  12.033 -0.3189  0.3854  0.3838
17360TIP3    H173571   5.952   4.171  12.073 -1.4302  0.3806 -0.9269
17360TIP3    H273572   5.964   4.090  11.946  0.9823 -0.6493 -0.1037
17361TIP3   OH273573   4.073   4.114   4.209 -0.4564  0.1191 -0.4099
17361TIP3    H173574   3.994   4.153   4.246 -0.2603  2.0476 -1.8194
17361TIP3    H273575   4.107   4.182   4.150  1.1904 -1.4051 -1.3081
17362TIP3   OH273576   3.900   1.480   3.145  0.4324  0.3801 -0.3240
17362TIP3    H173577   3.854   1.428   3.211  1.7142 -0.8665 -0.3812
17362TIP3    H273578   3.965   1.530   3.194 -1.1708  2.4787 -0.1866
17363TIP3   OH273579   6.178   5.656   6.004  0.0399 -0.2746 -0.5235
17363TIP3    H173580   6.239   5.685   5.937 -0.2023 -1.0274 -1.0886
17363TIP3    H273581   6.095   5.644   5.957 -0.4079  0.2382  0.1256
17364TIP3   OH273582   3.176   3.511   6.156 -0.3414  0.1615  0.2531
17364TIP3    H173583   3.241   3.536   6.221  1.0421 -0.3377 -0.8878
17364TIP3    H273584   3.186   3.416   6.147 -0.9544  0.1356 -0.2208
17365TIP3   OH273585   6.528   1.233   2.038  0.6930  0.6364 -0.2753
17365TIP3    H173586   6.612   1.279   2.032  1.6626 -1.1017 -0.8025
17365TIP3    H273587   6.512   1.201   1.949  0.3678 -0.5401  0.1906
17366TIP3   OH273588   2.059   3.783  10.283  0.1842 -0.5203 -0.0437
17366TIP3    H173589   2.075   3.812  10.373 -1.6963 -0.6357  0.3709
17366TIP3    H273590   2.080   3.859  10.230  1.5750 -0.5305  0.4451
17367TIP3   OH273591   1.231   2.787   3.489  0.0348 -0.6021 -0.0395
17367TIP3    H173592   1.232   2.862   3.548  0.1588 -0.4334 -0.2567
17367TIP3    H273593   1.140   2.757   3.491  0.1489 -0.9220  0.6460
17368TIP3   OH273594   2.795   3.791   5.251  0.0238 -1.0725  0.1607
17368TIP3    H173595   2.888   3.770   5.263  0.6440  1.1305 -0.2494
17368TIP3    H273596   2.754   3.708   5.229  1.3476 -2.6549  3.1930
17369TIP3   OH273597   2.611   5.400  15.341  0.4342 -0.2547  0.5289
17369TIP3    H173598   2.579   5.489  15.355  0.4277  0.0166 -1.0540
17369TIP3    H273599   2.545   5.345  15.383 -0.6337  0.4207 -0.2095
17370TIP3   OH273600   6.712   3.397   3.762 -0.4372  0.1075 -0.3345
17370TIP3    H173601   6.683   3.421   3.675  1.1899  0.3876 -0.8218
17370TIP3    H273602   6.770   3.468   3.790  1.3461 -1.2976 -0.2300
17371TIP3   OH273603   2.114   4.959   1.515  0.1598 -0.9594  0.0786
17371TIP3    H173604   2.023   4.930   1.507 -0.0427 -0.2650 -0.2657
17371TIP3    H273605   2.107   5.053   1.534  0.8068 -0.8338 -0.2686
17372TIP3   OH273606   2.645   1.989   3.238 -0.2447 -0.3440  0.8524
17372TIP3    H173607   2.693   1.916   3.277  0.9134  0.5577  1.1826
17372TIP3    H273608   2.629   2.049   3.311 -1.2393 -0.2744  0.5964
17373TIP3   OH273609   2.407   5.282   5.875 -0.6856 -0.0840 -0.3000
17373TIP3    H173610   2.418   5.196   5.916 -0.7742  0.2034  0.3420
17373TIP3    H273611   2.394   5.342   5.949  0.5795  0.6826 -0.6711
17374TIP3   OH273612   4.897   5.723  11.856 -0.5369 -0.1798 -0.1157
17374TIP3    H173613   4.991   5.740  11.860 -0.3457 -1.3986  2.0200
17374TIP3    H273614   4.857   5.810  11.855  0.5888  0.3546 -0.1515
17375TIP3   OH273615   5.879   2.264  13.980  0.0471  0.4432 -0.0211
17375TIP3    H173616   5.882   2.195  13.914 -1.4884  1.0155 -0.7312
17375TIP3    H273617   5.822   2.229  14.049  1.1516  0.0941  0.7434
17376TIP3   OH273618   4.147   5.489   1.373 -0.0119  0.6443 -0.3422
17376TIP3    H173619   4.095   5.437   1.312 -0.6621 -0.2170  0.8960
17376TIP3    H273620   4.227   5.437   1.386  0.0581  0.7489 -0.3618
17377TIP3   OH273621   2.174   6.369  14.351 -0.1228 -0.0010  0.5321
17377TIP3    H173622   2.211   6.332  14.270 -0.8498  1.2065 -0.3945
17377TIP3    H273623   2.082   6.341  14.350  0.2006 -1.2008  1.7205
17378TIP3   OH273624   4.413   4.975   2.052  0.2198 -0.4175 -0.1108
17378TIP3    H173625   4.369   4.999   2.134  1.2290  0.7148  0.1363
17378TIP3    H273626   4.417   4.879   2.054 -3.0093 -0.6557 -0.5977
17379TIP3   OH273627   2.361   3.660  10.862  0.0377 -0.0830  0.0309
17379TIP3    H173628   2.367   3.694  10.773  0.8848 -1.0475 -0.2952
17379TIP3    H273629   2.286   3.600  10.859  0.2153 -0.2983 -0.0937
17380TIP3   OH273630   3.600   6.401  13.570 -0.6798  0.1748  0.4460
17380TIP3    H173631   3.643   6.479  13.605 -0.6567 -0.5565  2.1639
17380TIP3    H273632   3.522   6.434  13.526 -0.7395  1.1705  1.2516
17381TIP3   OH273633   1.832   3.037  15.041  0.3355  0.3078 -0.0047
17381TIP3    H173634   1.788   3.119  15.022  0.7996  0.2080 -1.6920
17381TIP3    H273635   1.925   3.060  15.043  0.4141 -0.0320  0.3751
17382TIP3   OH273636   4.369   0.733   1.704  0.0082 -0.2871 -0.1892
17382TIP3    H173637   4.431   0.779   1.647  0.5617 -0.8316 -0.0298
17382TIP3    H273638   4.294   0.715   1.647  0.1510  0.0305 -0.4862
17383TIP3   OH273639   5.999   6.025  15.796 -0.0123 -0.2132 -0.1370
17383TIP3    H173640   5.955   6.071  15.868  0.0636 -0.3056 -0.0305
17383TIP3    H273641   6.025   6.094  15.735  0.2046 -0.1019  0.0789
17384TIP3   OH273642   6.123   3.737   0.051  0.0938 -0.0496  0.5027
17384TIP3    H173643   6.061   3.806   0.026 -0.4558 -0.1408  1.5232
17384TIP3    H273644   6.160   3.768   0.134  1.3056 -0.0839 -0.0040
17385TIP3   OH273645   4.090   3.093   0.656  0.3514 -0.8948  0.0613
17385TIP3    H173646   4.016   3.061   0.604  0.7016 -0.7711 -0.5140
17385TIP3    H273647   4.061   3.082   0.747 -0.7614  0.0542 -0.1560
17386TIP3   OH273648   2.333   3.983  11.250  0.7098  0.2918 -0.2312
17386TIP3    H173649   2.370   4.063  11.211  1.2466 -0.2205 -0.7958
17386TIP3    H273650   2.389   3.913  11.217  0.2979 -0.3096  0.3365
17387TIP3   OH273651   6.613   3.338  14.292 -0.3126  0.0772  0.0795
17387TIP3    H173652   6.538   3.395  14.313 -1.5292 -0.8120 -1.6489
17387TIP3    H273653   6.600   3.261  14.348 -1.1594 -0.4213 -0.7777
17388TIP3   OH273654   6.665   2.959   1.681  0.0854  0.6041  0.4629
17388TIP3    H173655   6.744   2.906   1.691 -0.3640  0.2243  2.3089
17388TIP3    H273656   6.694   3.036   1.632  1.1318 -0.4976 -0.7166
17389TIP3   OH273657   0.291   5.955  11.011 -0.8374 -0.4147 -0.0752
17389TIP3    H173658   0.209   5.909  11.030  0.0816 -1.9649  0.3300
17389TIP3    H273659   0.343   5.893  10.960 -0.4065  1.0381 -1.4832
17390TIP3   OH273660   0.489   4.728   5.291 -0.3423 -0.5210  0.2886
17390TIP3    H173661   0.527   4.667   5.355  1.0629 -0.3703 -0.3598
17390TIP3    H273662   0.449   4.797   5.344  0.9702 -0.2953  1.0286
17391TIP3   OH273663   2.133   2.944   2.841  0.4279  0.4947 -0.7616
17391TIP3    H173664   2.139   3.004   2.916  0.6857  0.1468 -0.4972
17391TIP3    H273665   2.215   2.956   2.794  0.8583 -0.2517 -0.2353
17392TIP3   OH273666   2.339   5.859   3.293 -0.4323 -0.0388  0.1093
17392TIP3    H173667   2.413   5.876   3.236 -0.9015  1.2645 -0.1631
17392TIP3    H273668   2.374   5.804   3.363  0.5322 -0.2921 -0.5608
17393TIP3   OH273669   4.941   2.213   4.472  0.4897  0.1866  0.4237
17393TIP3    H173670   4.944   2.269   4.550  1.6644  1.4449 -0.4803
17393TIP3    H273671   4.895   2.134   4.501 -1.4274  1.6646  1.7092
17394TIP3   OH273672   6.290   5.513   2.957 -0.1963  0.0407 -0.3870
17394TIP3    H173673   6.300   5.543   2.867 -0.9180  0.8706 -0.2118
17394TIP3    H273674   6.307   5.591   3.010  0.0371 -0.3937  0.1836
17395TIP3   OH273675   3.026   5.037  15.119 -0.2085  0.5225 -0.7469
17395TIP3    H173676   3.020   5.018  15.213  2.4421 -1.9878 -0.9579
17395TIP3    H273677   2.935   5.039  15.089 -1.0583 -0.8506  1.4801
17396TIP3   OH273678   2.958   5.538  16.773  0.0290  0.0897  0.2730
17396TIP3    H173679   2.979   5.560  16.864  0.5770  0.2939  0.1030
17396TIP3    H273680   2.874   5.493  16.778  0.1379 -0.0551  0.8998
17397TIP3   OH273681   3.970   1.779   6.305 -0.3381  0.5077 -0.2503
17397TIP3    H173682   3.946   1.861   6.347  2.7604  1.7601 -0.6517
17397TIP3    H273683   4.046   1.749   6.354 -0.3003 -1.1777 -1.2677
17398TIP3   OH273684   6.174   3.759   4.875  0.1237 -0.0921 -0.7229
17398TIP3    H173685   6.156   3.811   4.953 -3.0780 -0.7241 -0.9015
17398TIP3    H273686   6.249   3.704   4.899  0.4582  1.1052  1.1586
17399TIP3   OH273687   3.089   2.265   1.181 -0.9422  0.0601  0.8245
17399TIP3    H173688   3.071   2.176   1.152  0.1891 -0.1385  0.6883
17399TIP3    H273689   3.109   2.313   1.100  1.8397 -0.4023  1.1239
17400TIP3   OH273690   0.995   1.700  13.462  0.0455 -0.4299  0.1385
17400TIP3    H173691   0.971   1.672  13.550 -0.2139  0.4268  0.3553
17400TIP3    H273692   1.089   1.685  13.456  0.3350  0.8785  1.1061
17401TIP3   OH273693   2.734   3.236   5.820 -0.4309  0.0194 -0.0878
17401TIP3    H173694   2.774   3.323   5.810 -2.7901  1.1046 -1.0618
17401TIP3    H273695   2.677   3.244   5.897 -0.6471 -0.6702 -0.1682
17402TIP3   OH273696   1.661   6.548   2.795  0.2907  0.5073  0.1159
17402TIP3    H173697   1.613   6.552   2.878  0.6816  0.3503  0.3522
17402TIP3    H273698   1.671   6.454   2.778  0.7408  0.5419  0.1995
17403TIP3   OH273699   2.265   2.670   4.166  0.3263  0.0255  0.5929
17403TIP3    H173700   2.311   2.740   4.120  1.5644 -0.8788  0.3891
17403TIP3    H273701   2.179   2.706   4.185  0.2974  0.9608 -1.1077
17404TIP3   OH273702   0.150   2.238  12.718  0.0136  0.6000  0.6518
17404TIP3    H173703   0.206   2.278  12.651  1.6557 -0.4041  1.3616
17404TIP3    H273704   0.165   2.291  12.796 -1.3818  1.3610  0.4288
17405TIP3   OH273705   3.290   4.369   1.006  0.2539  0.3545 -0.2885
17405TIP3    H173706   3.379   4.336   1.010  0.8876  2.0517  0.4614
17405TIP3    H273707   3.289   4.429   0.932 -0.0858  0.8507  0.1103
17406TIP3   OH273708   0.158   0.805   2.531 -0.2072  0.1541  0.2609
17406TIP3    H173709   0.158   0.831   2.439  1.5066 -2.0411 -0.4478
17406TIP3    H273710   0.136   0.712   2.530 -0.8051  0.2160  2.1537
17407TIP3   OH273711   3.428   3.481   1.617  0.5835 -0.2900 -0.0647
17407TIP3    H173712   3.405   3.562   1.570  3.0943  0.3748 -0.3048
17407TIP3    H273713   3.490   3.510   1.684  0.4014 -1.8411  0.8049
17408TIP3   OH273714   4.976   3.321  15.812  0.1974 -0.1698  0.0023
17408TIP3    H173715   4.988   3.266  15.735  0.5432  2.3213 -1.8321
17408TIP3    H273716   5.064   3.331  15.848  0.7769  2.0198 -1.8144
17409TIP3   OH273717   3.145   1.798  10.790 -0.0972 -0.4182  0.0838
17409TIP3    H173718   3.056   1.789  10.755 -0.0917 -0.2593  0.0301
17409TIP3    H273719   3.178   1.879  10.752 -0.3674  0.1554  1.0489
17410TIP3   OH273720   3.420   6.687  14.693 -0.9595  0.3230  0.6194
17410TIP3    H173721   3.443   6.756  14.756 -0.3177  1.0627 -0.3974
17410TIP3    H273722   3.327   6.700  14.676 -1.5051 -0.7797  2.4587
17411TIP3   OH273723   5.348   5.112  16.825  0.6662 -0.1205 -0.4074
17411TIP3    H173724   5.259   5.077  16.820  0.2012  0.9005  0.3226
17411TIP3    H273725   5.339   5.205  16.805  1.2313  0.4510  1.7394
17412TIP3   OH273726   1.716   0.523  14.471  0.3987 -0.4304  0.3128
17412TIP3    H173727   1.628   0.543  14.504  0.5391  0.1004  0.3877
17412TIP3    H273728   1.769   0.513  14.550  0.0718 -2.4463  0.3146
17413TIP3   OH273729   6.328   0.887   0.871 -0.0618 -0.5507  0.0919
17413TIP3    H173730   6.240   0.869   0.906  0.1500  0.3606  1.1550
17413TIP3    H273731   6.352   0.971   0.910  0.0415  0.7825 -2.5984
17414TIP3   OH273732   5.739   0.187  12.628  0.3167  0.0957 -0.4890
17414TIP3    H173733   5.745   0.198  12.723 -0.1234  0.6210 -0.5154
17414TIP3    H273734   5.645   0.182  12.610  0.4235 -1.3633 -0.7597
17415TIP3   OH273735   0.348   3.288  15.418 -0.2321  0.5666 -0.2088
17415TIP3    H173736   0.406   3.354  15.457 -0.8501  0.1479  1.4928
17415TIP3    H273737   0.407   3.232  15.368  0.6920  0.8128  0.5611
17416TIP3   OH273738   5.438   1.428   2.847  0.1264 -0.2338  0.2117
17416TIP3    H173739   5.386   1.360   2.806 -0.0937 -0.8475  1.4696
17416TIP3    H273740   5.405   1.510   2.810  0.4379 -0.7813 -1.3618
17417TIP3   OH273741   4.874   5.584   1.072  0.0242  0.3515  0.4019
17417TIP3    H173742   4.867   5.669   1.114  0.3204 -0.3201  1.8810
17417TIP3    H273743   4.968   5.568   1.065  0.0517  1.2929 -2.3859
17418TIP3   OH273744   3.760   0.769   0.402  0.3434 -0.4538  0.3971
17418TIP3    H173745   3.741   0.862   0.391  0.7034 -0.4204  0.0263
17418TIP3    H273746   3.745   0.752   0.495  0.7478  0.0888  0.5666
17419TIP3   OH273747   6.680   1.597   2.926  0.1685  0.0240  0.4439
17419TIP3    H173748   6.726   1.513   2.926  1.9285  0.9081 -0.9854
17419TIP3    H273749   6.716   1.644   2.850  0.4505  2.6889  2.0911
17420TIP3   OH273750   4.155   2.731  14.818 -0.1706 -0.0785  0.0592
17420TIP3    H173751   4.085   2.795  14.823 -0.5638 -0.5947  1.8124
17420TIP3    H273752   4.115   2.654  14.777 -0.4685 -0.1659  0.5118
17421TIP3   OH273753   5.328   6.674  16.974  0.2350 -0.3932  0.0790
17421TIP3    H173754   5.296   6.602  17.028 -0.9749  0.2442  0.2442
17421TIP3    H273755   5.286   6.661  16.889  1.8771 -1.2082 -0.6527
17422TIP3   OH273756   3.497   2.981  16.848  0.0991  0.0547 -0.1037
17422TIP3    H173757   3.558   2.907  16.846 -0.3273 -0.3264 -2.0471
17422TIP3    H273758   3.548   3.056  16.818 -0.4125 -0.3679 -2.2358
17423TIP3   OH273759   0.303   6.667  10.834 -0.6391  0.2608 -0.2161
17423TIP3    H173760   0.222   6.715  10.849 -1.5058 -0.7443 -1.4506
17423TIP3    H273761   0.279   6.575  10.842  1.1147 -0.0643  2.7079
17424TIP3   OH273762   5.500   1.298  16.045 -0.2605  0.4446 -0.4235
17424TIP3    H173763   5.588   1.329  16.069 -0.0918 -0.4840  0.2085
17424TIP3    H273764   5.444   1.375  16.054  0.3458  0.8416  0.0191
17425TIP3   OH273765   6.248   3.826  15.328 -0.0475 -0.0135  0.1565
17425TIP3    H173766   6.324   3.870  15.368  0.8458  0.6222 -2.0887
17425TIP3    H273767   6.207   3.893  15.273  0.1932 -1.4005 -1.8268
17426TIP3   OH273768   4.058   5.831  16.877  0.1818  0.3416  0.6505
17426TIP3    H173769   4.126   5.848  16.812 -2.0703  0.3057 -1.9044
17426TIP3    H273770   4.066   5.737  16.896  0.5062  0.2224 -0.0551
17427TIP3   OH273771   1.355   3.346  13.481 -0.3018 -0.2450 -0.0729
17427TIP3    H173772   1.305   3.278  13.527  0.6753 -1.7583 -1.1541
17427TIP3    H273773   1.384   3.405  13.550  1.1547 -2.4627  1.3253
17428TIP3   OH273774   0.277   6.589   0.409  0.4356  0.0599 -0.3953
17428TIP3    H173775   0.268   6.520   0.344  1.1006  0.6987 -1.1826
17428TIP3    H273776   0.187   6.611   0.434  0.1874 -0.3291 -0.9473
17429TIP3   OH273777   0.945   0.299   3.921 -0.3088 -0.2857 -0.3487
17429TIP3    H173778   0.972   0.248   3.998 -0.6743 -0.6850 -0.4797
17429TIP3    H273779   0.859   0.264   3.899 -1.9576  2.3294  1.3238
17430TIP3   OH273780   1.357   0.493   4.969  0.5815 -0.1004  0.1825
17430TIP3    H173781   1.264   0.493   4.949  0.6714  1.5765 -0.3468
17430TIP3    H273782   1.362   0.510   5.063  0.3656 -0.4868  0.2670
17431TIP3   OH273783   4.174   0.277  10.765  0.1133 -0.0403  0.3463
17431TIP3    H173784   4.145   0.208  10.707 -0.9543  1.0199 -0.4171
17431TIP3    H273785   4.094   0.326  10.787  0.4821 -0.3433  2.6379
17432TIP3   OH273786   5.393   0.137  13.645  0.2246  0.0452  0.6390
17432TIP3    H173787   5.444   0.217  13.655 -0.7809  0.8546 -0.5309
17432TIP3    H273788   5.455   0.072  13.612  0.1016  1.6607 -3.2184
17433TIP3   OH273789   3.107   4.928  14.505 -0.5650 -0.6779  0.1175
17433TIP3    H173790   3.106   5.008  14.557  1.6776  0.9463 -2.0763
17433TIP3    H273791   3.035   4.939  14.443 -0.7671 -0.7441  0.3414
17434TIP3   OH273792   4.166   5.071   3.275 -0.3558 -0.2361  0.1593
17434TIP3    H173793   4.220   5.149   3.289 -0.0531 -0.4773  0.3434
17434TIP3    H273794   4.083   5.091   3.319 -0.4776  0.2002 -0.2618
17435TIP3   OH273795   3.932   2.152  16.784  0.2398 -0.5660 -0.3592
17435TIP3    H173796   3.843   2.137  16.754 -0.0614 -0.9276  0.6697
17435TIP3    H273797   3.984   2.157  16.704 -0.8530  0.7565 -1.0148
17436TIP3   OH273798   1.055   0.102   1.654  0.1927 -0.6867 -0.0536
17436TIP3    H173799   1.112   0.173   1.624  0.0090  0.0585  1.3112
17436TIP3    H273800   1.083   0.026   1.603  2.2547 -0.2815  0.3852
17437TIP3   OH273801   4.530   1.332  11.636  0.7438  0.0661  0.0465
17437TIP3    H173802   4.584   1.411  11.638 -0.2997  0.7989  1.7464
17437TIP3    H273803   4.462   1.352  11.572  1.4669 -0.1857 -0.8278
17438TIP3   OH273804   1.230   6.088   3.182  0.7087  0.3191 -0.4392
17438TIP3    H173805   1.160   6.031   3.152 -0.3080  1.7661 -0.9304
17438TIP3    H273806   1.270   6.041   3.255 -1.2317 -0.2468  0.3244
17439TIP3   OH273807   6.261   3.069   0.090  0.2372 -0.7791 -0.1438
17439TIP3    H173808   6.242   3.161   0.108 -1.6202 -1.5319  2.4602
17439TIP3    H273809   6.355   3.066   0.076  0.5809  1.3470  1.1805
17440TIP3   OH273810   5.141   6.354   5.505  0.8013 -0.0925  0.0770
17440TIP3    H173811   5.153   6.409   5.583  1.4524 -0.9680  0.6079
17440TIP3    H273812   5.058   6.310   5.520  0.9516 -0.3018  0.3127
17441TIP3   OH273813   3.122   2.721   6.743 -0.4176 -0.1288 -0.2358
17441TIP3    H173814   3.169   2.639   6.754  0.2923 -0.7544 -5.4541
17441TIP3    H273815   3.030   2.694   6.734 -0.5039 -0.0366  0.3236
17442TIP3   OH273816   3.279   5.660   3.317  0.2725  0.0965  0.0148
17442TIP3    H173817   3.268   5.698   3.230 -1.2542  0.3249  0.2758
17442TIP3    H273818   3.221   5.711   3.373  0.4247 -0.7273  0.9584
17443TIP3   OH273819   2.665   4.209   3.543 -0.0898 -0.1863 -0.2294
17443TIP3    H173820   2.659   4.120   3.578 -0.1162 -0.5567 -1.1287
17443TIP3    H273821   2.644   4.199   3.450 -0.0359  0.7569 -0.3532
17444TIP3   OH273822   5.407   4.520   1.162 -0.1354 -0.0144  0.0420
17444TIP3    H173823   5.323   4.552   1.195 -0.4220  0.1818 -0.8405
17444TIP3    H273824   5.412   4.555   1.072  0.4527 -0.8176 -0.2470
17445TIP3   OH273825   4.111   5.114   2.661  0.2736  0.1061 -0.0435
17445TIP3    H173826   4.078   5.166   2.587 -0.0088 -0.1395 -0.0921
17445TIP3    H273827   4.035   5.062   2.688  0.2640  0.4870  0.6726
17446TIP3   OH273828   4.557   1.188   3.155  0.1855  0.0103  0.3344
17446TIP3    H173829   4.619   1.259   3.144  0.0441  0.3323  1.4987
17446TIP3    H273830   4.581   1.147   3.238 -0.4300 -0.5926  0.2293
17447TIP3   OH273831   0.898   5.628  17.149 -0.6125  0.2238  0.3732
17447TIP3    H173832   0.915   5.566  17.220  1.5554 -1.6374 -1.5865
17447TIP3    H273833   0.829   5.587  17.096 -0.7174  0.5471  0.2560
17448TIP3   OH273834   2.889   4.490   1.066 -0.2644 -0.3566 -0.4800
17448TIP3    H173835   2.925   4.530   1.145 -2.3272  0.3099  0.1777
17448TIP3    H273836   2.861   4.403   1.095 -1.1803 -0.0481 -0.4022
17449TIP3   OH273837   3.898   3.531  15.935 -0.3956  0.1356  0.3031
17449TIP3    H173838   3.825   3.538  15.874 -0.0387 -0.1934 -0.1694
17449TIP3    H273839   3.901   3.438  15.958 -0.3482  0.2093  0.6058
17450TIP3   OH273840   4.899   1.716   2.667  0.1393 -0.0437 -0.4417
17450TIP3    H173841   4.968   1.734   2.731 -0.1038 -0.9792  0.0970
17450TIP3    H273842   4.865   1.630   2.692 -2.2857  1.0444  0.2769
17451TIP3   OH273843   0.129   2.277   3.891 -0.3396 -1.0120  0.4801
17451TIP3    H173844   0.041   2.314   3.893 -0.0843  0.0215 -2.5393
17451TIP3    H273845   0.117   2.189   3.855 -0.0973 -0.4174 -1.1564
17452TIP3   OH273846   2.312   2.269  14.648  0.6512  0.1389  0.2180
17452TIP3    H173847   2.361   2.283  14.567 -0.9232  1.4217 -0.5904
17452TIP3    H273848   2.221   2.287  14.624 -0.0026 -0.4655  2.0431
17453TIP3   OH273849   3.716   6.417  16.110  0.6950  0.2227 -0.5658
17453TIP3    H173850   3.723   6.442  16.202 -2.5500  0.8191 -0.3627
17453TIP3    H273851   3.761   6.487  16.063 -0.3598  1.6477  0.4618
17454TIP3   OH273852   1.095   3.762  14.298 -0.1742 -0.3043  0.0859
17454TIP3    H173853   1.131   3.780  14.212 -0.4894  0.5908  0.1336
17454TIP3    H273854   1.169   3.728  14.349  0.7785  2.0215  0.3586
17455TIP3   OH273855   3.268   2.972   3.234  0.1985 -0.6838 -0.3921
17455TIP3    H173856   3.206   2.967   3.161  0.2714  1.6250 -0.7013
17455TIP3    H273857   3.348   3.008   3.195  0.1843  0.7645  0.8144
17456TIP3   OH273858   2.122   2.954  12.854 -0.0988  0.1826  0.5202
17456TIP3    H173859   2.084   2.872  12.884  1.3373 -0.9197 -0.5121
17456TIP3    H273860   2.122   3.010  12.931 -4.1956  0.5232  0.4973
17457TIP3   OH273861   3.001   3.950  13.602  0.5282  0.3586 -0.0855
17457TIP3    H173862   3.062   3.923  13.533 -1.2351  0.1395 -1.6619
17457TIP3    H273863   3.021   4.042  13.618  1.4838  0.1984 -0.3045
17458TIP3   OH273864   2.987   3.969  12.635  0.0515 -0.1260  0.8697
17458TIP3    H173865   2.966   3.922  12.555  0.9955  0.9755 -0.0703
17458TIP3    H273866   2.934   4.048  12.632  0.3862  0.1154  1.1157
17459TIP3   OH273867   2.102   2.529   3.637  0.2619 -0.3587 -0.3849
17459TIP3    H173868   2.130   2.586   3.565 -1.4561  2.4830  0.9806
17459TIP3    H273869   2.182   2.508   3.684  1.0071  0.9395 -1.0087
17460TIP3   OH273870   3.850   0.743  16.558 -0.0507 -0.0909 -0.2640
17460TIP3    H173871   3.780   0.701  16.509 -0.3401  1.5805 -1.3989
17460TIP3    H273872   3.874   0.819  16.504  1.8687 -0.0001  0.6385
17461TIP3   OH273873   6.432   2.238   4.360 -0.1435 -0.6699 -0.0251
17461TIP3    H173874   6.343   2.246   4.325  0.5109  0.1910 -1.6262
17461TIP3    H273875   6.469   2.164   4.311  0.3490 -0.3502 -0.1381
17462TIP3   OH273876   6.251   2.265   4.620  0.7858 -0.4733 -0.0236
17462TIP3    H173877   6.182   2.321   4.585 -0.1077 -0.4222  1.6853
17462TIP3    H273878   6.324   2.276   4.560  0.3464  1.8596 -0.2317
17463TIP3   OH273879   5.626   5.443   2.559  0.0405  0.1539  0.2268
17463TIP3    H173880   5.587   5.529   2.574 -1.7211 -0.2676 -1.5167
17463TIP3    H273881   5.659   5.417   2.645 -0.1184  2.1977  0.9675
17464TIP3   OH273882   6.359   2.643  11.151  0.0130 -0.0430  0.0829
17464TIP3    H173883   6.437   2.646  11.095  0.3503  0.2414  0.5635
17464TIP3    H273884   6.370   2.563  11.203  0.0583  0.0771  0.2578
17465TIP3   OH273885   5.829   0.766  13.061 -0.1606  0.0189  0.2105
17465TIP3    H173886   5.822   0.734  13.151  1.4645 -1.4075 -0.1197
17465TIP3    H273887   5.768   0.712  13.011 -1.0330  0.7839  0.4168
17466TIP3   OH273888   5.854   1.229   5.221 -0.0659  0.1737 -0.1894
17466TIP3    H173889   5.936   1.258   5.181  0.7144  0.3414  1.4473
17466TIP3    H273890   5.870   1.138   5.245  0.0323  0.4903  1.0271
17467TIP3   OH273891   4.885   2.333  11.966 -0.1596 -0.9527 -0.7163
17467TIP3    H173892   4.817   2.272  11.937  0.1920 -1.8829  0.3415
17467TIP3    H273893   4.954   2.277  12.002  0.4853  0.0453 -0.3484
17468TIP3   OH273894   5.996   6.167  14.592 -0.8398 -0.3326 -0.4661
17468TIP3    H173895   6.057   6.165  14.665  0.8741 -1.2530 -1.8397
17468TIP3    H273896   5.977   6.259  14.578 -0.0469 -0.0592  0.2201
17469TIP3   OH273897   5.320   4.084  17.074 -0.0934  0.0077 -0.4270
17469TIP3    H173898   5.229   4.113  17.083  0.8715  2.7274  3.4330
17469TIP3    H273899   5.334   4.025  17.148  1.4913  0.5775 -0.2246
17470TIP3   OH273900   3.531   4.783   4.296  0.0940  0.3828  0.2368
17470TIP3    H173901   3.594   4.738   4.240 -0.6753  0.9699 -1.1544
17470TIP3    H273902   3.582   4.814   4.370  1.1143 -0.5588 -0.0539
17471TIP3   OH273903   3.541   1.353   4.153 -0.4830  0.2665  0.0082
17471TIP3    H173904   3.464   1.303   4.182 -1.3951  1.1553 -0.7733
17471TIP3    H273905   3.608   1.287   4.137 -0.9874 -0.5151  0.9711
17472TIP3   OH273906   6.413   2.924   4.295 -0.3074 -0.5948  0.4340
17472TIP3    H173907   6.450   3.012   4.292 -0.6321 -0.4582  0.3997
17472TIP3    H273908   6.367   2.921   4.379 -1.2467 -0.3455 -0.0603
17473TIP3   OH273909   6.638   5.556   0.859 -0.0694  0.4352  0.0365
17473TIP3    H173910   6.697   5.481   0.851 -1.5345 -0.6716 -1.0623
17473TIP3    H273911   6.604   5.550   0.948  1.0670  0.7846  0.5056
17474TIP3   OH273912   5.803   5.216   0.395  0.7082 -0.0902  0.6845
17474TIP3    H173913   5.790   5.182   0.484  0.4957 -0.1418  0.6356
17474TIP3    H273914   5.866   5.156   0.355 -1.2691 -1.7522 -0.1194
17475TIP3   OH273915   3.196   5.161   6.036 -0.1473 -0.1374  0.1531
17475TIP3    H173916   3.257   5.130   6.103  0.3213 -0.5101 -0.4460
17475TIP3    H273917   3.152   5.083   6.005  0.5445 -0.1352 -0.8705
17476TIP3   OH273918   5.755   4.045  16.509  0.7010 -0.3718 -0.0987
17476TIP3    H173919   5.759   3.989  16.432 -0.5165 -1.3019  0.4672
17476TIP3    H273920   5.748   3.984  16.583  0.5262  0.5081  0.6397
17477TIP3   OH273921   5.312   4.355   3.482 -0.3315  0.2021  0.1047
17477TIP3    H173922   5.403   4.329   3.470 -0.1044  1.3588 -0.9614
17477TIP3    H273923   5.300   4.429   3.421 -1.6638  0.7937  1.0308
17478TIP3   OH273924   3.595   3.625  11.819 -0.4138  0.6805  1.0673
17478TIP3    H173925   3.528   3.597  11.881 -0.6775  0.5180  0.7113
17478TIP3    H273926   3.580   3.719  11.807 -0.3721  0.7095  1.2314
17479TIP3   OH273927   0.103   0.292   6.052  0.0899  0.0585 -0.0011
17479TIP3    H173928   0.182   0.239   6.044 -0.3728 -0.9916  1.8629
17479TIP3    H273929   0.036   0.231   6.081 -1.0007  1.2728  0.1221
17480TIP3   OH273930   1.113   2.150   2.300  0.0049  0.4668 -0.3015
17480TIP3    H173931   1.037   2.092   2.306  0.2574 -0.0074 -1.3508
17480TIP3    H273932   1.102   2.195   2.216 -0.7906  2.8418  0.9952
17481TIP3   OH273933   5.530   2.220   6.776 -0.0474  0.3119  0.0969
17481TIP3    H173934   5.612   2.170   6.772  0.7041  1.0522  3.5818
17481TIP3    H273935   5.558   2.311   6.779 -0.6307  0.5375  4.0040
17482TIP3   OH273936   4.271   3.781   2.386  0.6698  0.4016  0.0982
17482TIP3    H173937   4.217   3.704   2.401  1.4661  0.0094  1.0735
17482TIP3    H273938   4.271   3.792   2.291 -1.6339  0.8250  0.1015
17483TIP3   OH273939   3.182   3.343   0.351 -0.3870  0.1502  0.5661
17483TIP3    H173940   3.170   3.257   0.392 -1.3920 -0.6013 -1.1945
17483TIP3    H273941   3.122   3.343   0.276  1.8334  1.1199 -1.3785
17484TIP3   OH273942   0.951   4.224   3.629 -0.0727 -0.3311  0.1312
17484TIP3    H173943   0.951   4.134   3.598  1.5852 -0.4707  0.4727
17484TIP3    H273944   0.978   4.276   3.553  1.1420 -0.3698  0.5217
17485TIP3   OH273945   1.407   1.890   4.276 -0.2047  0.5096 -0.2146
17485TIP3    H173946   1.361   1.811   4.250 -1.8014  1.3208  0.0108
17485TIP3    H273947   1.452   1.867   4.357 -3.5451  0.6908  1.9166
17486TIP3   OH273948   5.732   0.150  16.831 -0.1108  0.3495 -0.2637
17486TIP3    H173949   5.658   0.097  16.860 -0.4468 -0.3053 -2.2131
17486TIP3    H273950   5.797   0.086  16.801  0.7596  0.9613  0.2583
17487TIP3   OH273951   1.960   6.568   4.957  0.6239 -0.7556  0.0973
17487TIP3    H173952   1.920   6.655   4.960 -0.2850 -1.1314 -0.6225
17487TIP3    H273953   1.892   6.509   4.991  1.2934 -1.1778  0.7585
17488TIP3   OH273954   3.482   4.486  12.994  0.0585  0.1455  0.1100
17488TIP3    H173955   3.471   4.450  13.082 -2.0288  1.6499  0.5470
17488TIP3    H273956   3.552   4.551  13.003  1.5074 -1.3461  0.0634
17489TIP3   OH273957   1.591   0.807   1.721 -0.1061 -0.1483  0.3770
17489TIP3    H173958   1.584   0.901   1.743  2.0917 -0.1135  1.1097
17489TIP3    H273959   1.605   0.806   1.627 -3.2925  0.0156 -0.2396
17490TIP3   OH273960   3.342   3.532   0.206 -0.3553 -0.3025 -0.2787
17490TIP3    H173961   3.300   3.476   0.271  1.7090 -0.9741  0.5827
17490TIP3    H273962   3.360   3.473   0.132 -0.4765 -0.1422 -0.4367
17491TIP3   OH273963   5.603   3.212  10.298 -0.6019 -0.0950  0.4996
17491TIP3    H173964   5.618   3.261  10.218  1.8595 -0.2267  0.7836
17491TIP3    H273965   5.644   3.127  10.282  1.2899  0.3738  2.3293
17492TIP3   OH273966   0.140   4.952  15.555 -0.1001 -0.6303  0.1840
17492TIP3    H173967   0.052   4.928  15.527  0.1127 -1.3635  0.1319
17492TIP3    H273968   0.198   4.903  15.498  0.3622  0.5821 -0.4208
17493TIP3   OH273969   1.970   2.799   5.277 -0.5410 -0.0938 -0.5673
17493TIP3    H173970   2.032   2.795   5.349 -0.5340  1.2581 -0.4755
17493TIP3    H273971   1.925   2.715   5.279  1.2627 -1.0998 -0.6361
17494TIP3   OH273972   2.806   0.977   3.267 -0.0386  0.1364  0.1659
17494TIP3    H173973   2.855   1.059   3.262  0.0089  0.0356 -1.8385
17494TIP3    H273974   2.749   0.978   3.190  0.5964 -2.0626 -0.4366
17495TIP3   OH273975   1.822   4.787  12.490  0.0776 -0.0513 -0.0439
17495TIP3    H173976   1.855   4.854  12.430 -0.1000 -1.1597 -1.4523
17495TIP3    H273977   1.898   4.734  12.512  0.0926  0.1968  0.5007
17496TIP3   OH273978   1.366   3.951  16.577 -0.8701  0.3722  0.0510
17496TIP3    H173979   1.375   3.857  16.592 -0.6238  0.5061  0.7609
17496TIP3    H273980   1.297   3.958  16.511  0.5276 -0.4031 -1.5812
17497TIP3   OH273981   1.405   4.126  13.911  0.9753 -0.4673  0.3865
17497TIP3    H173982   1.452   4.142  13.993  1.3135  1.6524 -0.1738
17497TIP3    H273983   1.344   4.199  13.903  0.3765 -1.0703 -0.8561
17498TIP3   OH273984   2.982   6.175  16.312 -0.1749 -0.3788 -0.3024
17498TIP3    H173985   2.896   6.201  16.346 -0.9207 -2.5888 -0.3120
17498TIP3    H273986   3.010   6.104  16.370  1.2973 -0.2098 -0.7702
17499TIP3   OH273987   1.368   1.859   0.730  0.1298 -0.0307  0.2223
17499TIP3    H173988   1.391   1.836   0.640 -0.6620  0.5769 -0.1486
17499TIP3    H273989   1.409   1.944   0.744  2.0853 -1.0820  1.1983
17500TIP3   OH273990   2.321   3.784   2.449 -0.0694  0.5946 -0.5468
17500TIP3    H173991   2.262   3.789   2.374 -1.3597  0.4065  0.4110
17500TIP3    H273992   2.406   3.813   2.416 -1.0507  2.3991 -1.6115
17501TIP3   OH273993   2.725   4.298   6.344 -0.3792  0.1856  0.4255
17501TIP3    H173994   2.630   4.298   6.330 -0.3639 -1.0358  0.2343
17501TIP3    H273995   2.756   4.220   6.298  0.5108 -0.3445  1.8614
17502TIP3   OH273996   3.862   2.088  14.729  0.3496  0.5037 -0.1166
17502TIP3    H173997   3.934   2.029  14.750  0.8720  1.0177 -0.4141
17502TIP3    H273998   3.874   2.163  14.788 -1.5243 -0.5570  1.7726
17503TIP3   OH273999   2.590   2.922   4.503  0.2211 -0.2282  0.1685
17503TIP3    H174000   2.683   2.932   4.483  0.0356 -2.2177 -2.0874
17503TIP3    H274001   2.588   2.878   4.588  1.2799  0.4371  0.5614
17504TIP3   OH274002   5.359   6.578   0.336 -0.2026 -0.6083  0.0455
17504TIP3    H174003   5.319   6.586   0.423  0.8061  1.7301  0.3564
17504TIP3    H274004   5.289   6.603   0.275  0.0845  1.3888  0.4619
17505TIP3   OH274005   1.798   3.182   0.737  0.3401  0.5542 -0.1701
17505TIP3    H174006   1.737   3.196   0.664 -0.6667  0.2855  0.5894
17505TIP3    H274007   1.742   3.154   0.809  1.4183  0.0290  0.4811
17506TIP3   OH274008   4.904   1.155   3.337 -0.4802 -0.3635 -0.0484
17506TIP3    H174009   4.900   1.250   3.339  1.8097 -0.2075  0.1137
17506TIP3    H274010   4.815   1.126   3.358 -0.9710  1.7119  0.9519
17507TIP3   OH274011   5.095   5.718  12.569 -0.4320  0.1073  0.3735
17507TIP3    H174012   5.057   5.693  12.652  1.8948 -1.1438  1.1577
17507TIP3    H274013   5.084   5.641  12.513  0.4030 -0.0694  0.4379
17508TIP3   OH274014   5.351   1.541   5.743 -0.3201  0.8552 -0.3184
17508TIP3    H174015   5.264   1.521   5.709 -0.5309 -1.5953  1.3893
17508TIP3    H274016   5.335   1.562   5.835  0.9631 -0.8413  0.3289
17509TIP3   OH274017   4.452   6.322   4.073 -0.0046  0.3331  0.0934
17509TIP3    H174018   4.362   6.341   4.045  0.1746  0.7153 -0.2441
17509TIP3    H274019   4.449   6.326   4.168 -0.6587 -1.1266  0.1595
17510TIP3   OH274020   2.488   5.556   2.190  0.2182  0.2243 -0.5941
17510TIP3    H174021   2.507   5.644   2.222  1.0724  0.1309 -0.8366
17510TIP3    H274022   2.394   5.557   2.172  0.3864  1.3755 -1.4818
17511TIP3   OH274023   0.244   6.810   5.565  0.0326 -0.5033  0.1405
17511TIP3    H174024   0.288   6.731   5.536 -2.7116 -2.1957  0.2778
17511TIP3    H274025   0.240   6.802   5.660 -0.0308 -0.0503  0.1802
17512TIP3   OH274026   6.026   3.748  13.028 -0.4776 -0.1091 -0.0334
17512TIP3    H174027   6.028   3.672  13.086  0.9717  0.0511  0.1430
17512TIP3    H274028   6.106   3.796  13.047  0.5341 -0.5080 -2.7423
17513TIP3   OH274029   3.658   0.373   5.581  0.5924 -0.8311 -0.4491
17513TIP3    H174030   3.638   0.465   5.597 -0.8852 -1.1806 -0.1175
17513TIP3    H274031   3.716   0.374   5.505  0.9524  0.3875 -0.1839
17514TIP3   OH274032   6.254   5.979  16.799 -0.2701  0.1891 -0.2865
17514TIP3    H174033   6.335   5.932  16.820 -1.1004 -1.5583 -0.7248
17514TIP3    H274034   6.256   5.988  16.703 -1.2021 -1.1542 -0.4649
17515TIP3   OH274035   5.820   2.247   4.773  0.3754  0.3488 -0.4940
17515TIP3    H174036   5.805   2.338   4.747 -0.7372  0.0203 -1.0806
17515TIP3    H274037   5.838   2.252   4.867  0.2111  1.1678 -0.4976
17516TIP3   OH274038   2.485   6.263   1.599  0.1135  0.7378 -0.4031
17516TIP3    H174039   2.460   6.243   1.508  2.7559  0.4582 -1.1683
17516TIP3    H274040   2.518   6.180   1.633 -0.2037  1.0133  0.5837
17517TIP3   OH274041   4.337   1.236   3.840  0.5083 -0.1323  0.2046
17517TIP3    H174042   4.360   1.209   3.928  2.1276 -0.1350 -0.1865
17517TIP3    H274043   4.246   1.264   3.846  1.0826  1.5274  2.2750
17518TIP3   OH274044   4.264   1.605   2.725  0.1539  0.2178 -0.5125
17518TIP3    H174045   4.173   1.636   2.730  0.2546  0.3774  1.2545
17518TIP3    H274046   4.306   1.661   2.660 -0.6778  1.1075 -0.3041
17519TIP3   OH274047   2.294   4.171  12.460 -0.2037  0.0459 -0.3928
17519TIP3    H174048   2.281   4.080  12.487 -2.1159 -0.0793 -1.5181
17519TIP3    H274049   2.284   4.221  12.541  0.3108 -0.6904  0.1430
17520TIP3   OH274050   2.473   1.959  10.985 -0.5204  0.1499  0.6442
17520TIP3    H174051   2.555   1.979  10.941 -0.4046  0.1012  0.8362
17520TIP3    H274052   2.421   2.039  10.978 -0.3644  0.2572  0.7287
17521TIP3   OH274053   4.512   3.858  11.984  0.0714 -0.0242 -0.2569
17521TIP3    H174054   4.539   3.866  11.893  1.0756 -1.0810 -0.0715
17521TIP3    H274055   4.438   3.918  11.992  0.7528  1.0399 -1.4432
17522TIP3   OH274056   5.093   5.439  16.664  0.1233  0.0900 -0.2665
17522TIP3    H174057   5.129   5.525  16.641  0.4386 -0.1948 -0.8675
17522TIP3    H274058   5.163   5.395  16.711  0.2306 -0.1113 -0.6105
17523TIP3   OH274059   1.908   6.811  14.963  1.0642  0.0324 -0.6808
17523TIP3    H174060   1.956   6.772  14.889  1.6954  2.3397 -1.5967
17523TIP3    H274061   1.969   6.805  15.036  1.6577  0.4461 -1.1309
17524TIP3   OH274062   6.445   5.987  11.623 -0.0367  0.1129 -0.1812
17524TIP3    H174063   6.430   5.931  11.547  1.7200  2.1501 -2.1879
17524TIP3    H274064   6.513   5.942  11.673  1.4022  0.3725 -1.7972
17525TIP3   OH274065   0.185   4.379   4.908 -0.1502  0.2656  0.1509
17525TIP3    H174066   0.274   4.342   4.914  0.0609  0.8971  1.0791
17525TIP3    H274067   0.164   4.405   4.997 -1.5475 -0.4684  0.0566
17526TIP3   OH274068   5.157   5.540   3.418 -0.0341 -0.8300  0.1277
17526TIP3    H174069   5.239   5.552   3.467  0.0278 -0.0466 -0.1476
17526TIP3    H274070   5.182   5.553   3.327 -0.5336 -0.1689  0.0748
17527TIP3   OH274071   3.017   3.777   0.911  0.1345  0.1563 -0.1641
17527TIP3    H174072   2.947   3.817   0.860  0.5389  0.4799 -0.4736
17527TIP3    H274073   3.098   3.808   0.870  0.4630 -0.7341 -0.2256
17528TIP3   OH274074   0.362   3.357   5.107  0.2788  0.1588  0.5029
17528TIP3    H174075   0.365   3.337   5.013  1.2345  1.3625  0.2544
17528TIP3    H274076   0.272   3.381   5.124  0.2275  0.5039 -0.2316
17529TIP3   OH274077   1.939   2.293   1.136  0.1137 -0.0351 -0.1210
17529TIP3    H174078   2.024   2.320   1.173  0.5269 -1.7779  0.2667
17529TIP3    H274079   1.894   2.251   1.209  0.0239 -1.5177 -1.0028
17530TIP3   OH274080   3.382   5.630   0.227 -0.3086 -0.1164  0.8331
17530TIP3    H174081   3.367   5.620   0.321  2.2730 -0.3481  1.2820
17530TIP3    H274082   3.409   5.722   0.216 -0.8554 -0.0112  0.2465
17531TIP3   OH274083   2.064   4.043   0.302  0.0567 -0.3073 -0.1957
17531TIP3    H174084   2.071   4.138   0.288 -1.3209  0.0063  1.0948
17531TIP3    H274085   2.017   4.033   0.384  0.4042 -2.1359 -0.1624
17532TIP3   OH274086   0.013   3.568  11.195 -0.4540 -0.1775 -0.1633
17532TIP3    H174087   0.106   3.584  11.209 -0.4559 -1.5560  1.8681
17532TIP3    H274088  -0.031   3.638  11.244 -0.5740  1.3238 -2.2638
17533TIP3   OH274089   2.878   3.273  12.567  0.0334 -0.0288  0.6434
17533TIP3    H174090   2.958   3.273  12.514 -0.3031 -0.5170  0.1127
17533TIP3    H274091   2.808   3.252  12.504 -0.4383 -0.1377  1.1942
17534TIP3   OH274092   5.858   6.180  13.712 -0.3391 -0.0308  0.2304
17534TIP3    H174093   5.901   6.247  13.766  1.0381 -1.1411  0.5718
17534TIP3    H274094   5.858   6.217  13.624  2.7731 -0.5676 -0.1042
17535TIP3   OH274095   1.311   4.238  14.991  0.4485  0.2021 -0.4404
17535TIP3    H174096   1.233   4.211  15.041 -0.0056  0.0036 -1.2295
17535TIP3    H274097   1.359   4.296  15.050  0.1108 -0.3071  0.3521
17536TIP3   OH274098   4.202   3.210  15.000 -0.4925 -0.0384  0.3327
17536TIP3    H174099   4.249   3.264  15.063 -0.8668 -1.8239  2.2683
17536TIP3    H274100   4.233   3.239  14.914  3.3356 -0.3658  1.4295
17537TIP3   OH274101   3.036   3.995   2.719  0.0257 -0.2845 -0.7064
17537TIP3    H174102   2.953   3.949   2.709 -0.1958 -0.2746  0.8526
17537TIP3    H274103   3.032   4.034   2.806  1.7421 -0.4639 -0.4983
17538TIP3   OH274104   3.970   2.253   5.061  0.0787  0.0202  0.4344
17538TIP3    H174105   4.054   2.276   5.102  0.1013  0.8158 -0.0374
17538TIP3    H274106   3.994   2.208   4.980  0.1046  2.0327 -0.7269
17539TIP3   OH274107   1.090   2.106   3.938 -0.2092  0.3169  0.4132
17539TIP3    H174108   1.050   2.029   3.896 -0.5041  0.4633  0.4177
17539TIP3    H274109   1.156   2.136   3.875 -1.4490  1.2338 -0.5061
17540TIP3   OH274110   5.882   6.499   6.641  0.2124  0.2468  0.1751
17540TIP3    H174111   5.854   6.459   6.559  0.5943 -0.3989  0.3500
17540TIP3    H274112   5.817   6.567   6.659 -1.1056 -1.0306  0.4415
17541TIP3   OH274113   4.416   4.800  13.176 -0.2841  0.1987  0.0774
17541TIP3    H174114   4.366   4.769  13.251 -0.5835  0.9672  0.2045
17541TIP3    H274115   4.489   4.849  13.214  0.3446 -0.5588 -0.1160
17542TIP3   OH274116   2.131   5.138  13.486  0.2161 -0.5940  0.5764
17542TIP3    H174117   2.127   5.233  13.475  2.2120 -0.5248  0.0821
17542TIP3    H274118   2.054   5.105  13.440 -1.0612  0.8096  1.6029
17543TIP3   OH274119   4.115   5.082   1.878 -0.4920 -0.5571  0.1836
17543TIP3    H174120   4.140   5.127   1.959  2.0893  0.9964 -1.3213
17543TIP3    H274121   4.178   5.010   1.871  0.5973  0.4730 -1.2984
17544TIP3   OH274122   4.333   2.775   1.863 -0.1186  0.6917 -0.7732
17544TIP3    H174123   4.253   2.828   1.861 -0.9360 -0.5251 -1.3295
17544TIP3    H274124   4.398   2.832   1.904 -1.0917  1.9464 -0.9117
17545TIP3   OH274125   1.468   2.832   5.009 -0.1781  0.0863 -0.0239
17545TIP3    H174126   1.446   2.901   4.946  1.9193 -0.6510 -1.6770
17545TIP3    H274127   1.407   2.761   4.989 -1.9910  1.1446  1.3369
17546TIP3   OH274128   3.069   5.200  14.645 -0.0324  0.3945  0.8105
17546TIP3    H174129   3.043   5.138  14.713 -1.4298  1.4883  1.3254
17546TIP3    H274130   3.149   5.240  14.678  0.4565 -0.5746  0.8216
17547TIP3   OH274131   2.724   5.522  11.645 -0.3211  0.4114  0.8039
17547TIP3    H174132   2.701   5.609  11.677 -1.2945 -0.2835  2.1185
17547TIP3    H274133   2.819   5.518  11.650  0.1929  2.7689 -3.1304
17548TIP3   OH274134   1.985   4.523  10.766 -0.2885  0.6744  0.1504
17548TIP3    H174135   1.895   4.557  10.761 -0.3395  0.3859 -1.2335
17548TIP3    H274136   1.976   4.440  10.812 -0.9733 -0.1005 -1.3338
17549TIP3   OH274137   1.331   1.477   3.574 -0.4612  0.0513  0.1946
17549TIP3    H174138   1.300   1.519   3.494  1.3160  1.2400  0.0581
17549TIP3    H274139   1.379   1.400   3.543  0.6061  0.7530  0.0406
17550TIP3   OH274140   3.712   1.980   1.897 -0.1877  0.3770 -0.0593
17550TIP3    H174141   3.677   1.934   1.820  0.3360 -2.6228  1.3366
17550TIP3    H274142   3.691   1.923   1.970  1.0032  2.1994  1.8031
17551TIP3   OH274143   1.111   1.637   0.051 -0.0130  0.3373 -0.1137
17551TIP3    H174144   1.127   1.696   0.125  1.1365 -0.9116  0.6697
17551TIP3    H274145   1.133   1.689  -0.026 -2.1801  1.9990  0.2800
17552TIP3   OH274146   6.449   5.289  16.853 -0.0119 -0.5534  0.3612
17552TIP3    H174147   6.500   5.368  16.836  0.8293 -0.5602  2.4822
17552TIP3    H274148   6.458   5.237  16.774  1.3448  0.4857 -0.2145
17553TIP3   OH274149   4.968   2.738  16.081  0.3516 -0.1102 -0.3393
17553TIP3    H174150   4.977   2.653  16.037 -1.7218 -0.6515  0.1448
17553TIP3    H274151   4.927   2.716  16.165 -0.4179  1.3934 -0.2969
17554TIP3   OH274152   2.726   3.496  13.313  0.3041  0.3801  0.4294
17554TIP3    H174153   2.664   3.535  13.252 -0.3703 -0.8868  0.2612
17554TIP3    H274154   2.748   3.412  13.273  2.0895  0.7768  0.5277
17555TIP3   OH274155   1.616   5.729  10.865  0.3617 -0.3329  0.5363
17555TIP3    H174156   1.583   5.801  10.919  0.3610 -0.7320  1.0754
17555TIP3    H274157   1.711   5.729  10.878  0.7562  1.3565 -1.6740
17556TIP3   OH274158   2.079   5.378   4.530 -0.2523  0.2894  0.6542
17556TIP3    H174159   2.060   5.327   4.452 -0.2760 -1.1676  1.5701
17556TIP3    H274160   2.092   5.468   4.498 -0.6584 -0.1907 -0.9469
17557TIP3   OH274161   2.124   0.797   0.038  0.2659 -0.2106  0.0367
17557TIP3    H174162   2.210   0.833   0.057  0.2939  1.8148 -3.1288
17557TIP3    H274163   2.129   0.769  -0.054 -2.6039  0.8991 -0.5960
17558TIP3   OH274164   6.515   3.857  16.985  0.1783 -0.0839  0.0021
17558TIP3    H174165   6.531   3.934  17.039 -0.9770  0.2793 -0.1393
17558TIP3    H274166   6.475   3.892  16.905  0.7075 -0.7290 -0.5529
17559TIP3   OH274167   2.507   2.004  15.618  0.4444 -0.1534 -0.2558
17559TIP3    H174168   2.486   2.090  15.584  1.4589 -0.5771 -2.0725
17559TIP3    H274169   2.440   1.946  15.582 -0.2260 -0.1667  0.9452
17560TIP3   OH274170   1.404   2.838   3.992  0.0070 -0.1117  0.0922
17560TIP3    H174171   1.434   2.903   3.929  0.1743 -2.0650 -1.9193
17560TIP3    H274172   1.432   2.754   3.957 -0.2355 -1.3340  2.5879
17561TIP3   OH274173   0.803   5.359  12.890 -0.0460  0.3558  0.2665
17561TIP3    H174174   0.824   5.425  12.824 -1.0285  1.0306  0.6021
17561TIP3    H274175   0.758   5.408  12.960  0.1917 -0.4853  1.0327
17562TIP3   OH274176   3.798   1.990   0.406  0.3492  0.0755  0.1109
17562TIP3    H174177   3.766   1.999   0.316 -0.2198  0.8046  0.3757
17562TIP3    H274178   3.850   2.069   0.421  0.4561 -0.0522  0.4189
17563TIP3   OH274179   5.141   6.552   4.471 -0.3482 -0.3838  0.2886
17563TIP3    H174180   5.147   6.464   4.507 -0.2835 -0.8244 -0.7696
17563TIP3    H274181   5.190   6.607   4.532  0.4543 -1.2465  0.4260
17564TIP3   OH274182   3.248   6.244   0.743  0.4849  0.3347 -0.2211
17564TIP3    H174183   3.188   6.262   0.816 -0.2488  0.1739 -0.7777
17564TIP3    H274184   3.334   6.271   0.776 -0.0041  1.2641  0.3244
17565TIP3   OH274185   4.201   2.803   1.316 -0.6936  0.5703  0.2344
17565TIP3    H174186   4.278   2.746   1.321 -1.8255 -0.9631  1.4350
17565TIP3    H274187   4.176   2.803   1.224 -0.0793 -0.0591  0.0636
17566TIP3   OH274188   3.658   3.562   1.773 -0.0094  0.6771 -0.1062
17566TIP3    H174189   3.749   3.554   1.744  0.7384  0.4999  2.0936
17566TIP3    H274190   3.659   3.534   1.864 -2.7362 -1.6264 -0.6277
17567TIP3   OH274191   1.341   5.848   3.345 -0.0321  0.0623  0.1680
17567TIP3    H174192   1.311   5.836   3.435  0.0242  1.6878  0.4350
17567TIP3    H274193   1.342   5.760   3.308  1.0414 -0.7801  2.0878
17568TIP3   OH274194   2.000   0.731   4.685  0.0766 -0.4242 -0.2312
17568TIP3    H174195   1.941   0.803   4.704 -1.0104 -0.9278 -1.5115
17568TIP3    H274196   1.942   0.659   4.658  1.2074 -1.2921 -0.4326
17569TIP3   OH274197   4.995   3.550   3.693  0.5520  0.6260 -0.4649
17569TIP3    H174198   5.009   3.590   3.607 -1.0485 -1.4235 -1.7636
17569TIP3    H274199   4.901   3.538   3.700  0.6627  0.4361  1.4809
17570TIP3   OH274200   3.780   6.182  14.247 -0.1538  0.3922  0.3577
17570TIP3    H174201   3.696   6.226  14.237 -0.2867  0.2099  0.6716
17570TIP3    H274202   3.838   6.248  14.284 -0.1331  0.5457  0.0525
17571TIP3   OH274203   4.563   3.941  12.279  0.2757 -0.5707 -0.1917
17571TIP3    H174204   4.486   3.987  12.245  0.1841  0.1368  0.9332
17571TIP3    H274205   4.587   3.880  12.209 -1.6322 -1.2027 -0.3649
17572TIP3   OH274206   1.738   3.431   0.242 -0.1497 -0.0490 -0.4054
17572TIP3    H174207   1.730   3.476   0.157 -2.2751  1.9582  0.7388
17572TIP3    H274208   1.657   3.380   0.249  0.8552 -1.7065 -0.3258
17573TIP3   OH274209   5.798   6.041  16.386  0.0877 -0.7085 -0.0446
17573TIP3    H174210   5.827   6.123  16.425 -2.0829  0.3839 -0.5688
17573TIP3    H274211   5.800   6.057  16.291  1.9469 -2.1387 -0.3056
17574TIP3   OH274212   3.193   0.711  11.699 -0.3150  0.0263  0.0278
17574TIP3    H174213   3.173   0.717  11.606 -1.2247 -0.3442  0.1900
17574TIP3    H274214   3.287   0.727  11.705 -0.5164  1.6764 -0.7899
17575TIP3   OH274215   3.118   1.551   1.044 -0.4932  0.2062  0.1558
17575TIP3    H174216   3.063   1.482   1.008 -0.8409  0.5752 -0.0221
17575TIP3    H274217   3.080   1.633   1.011 -0.5696  0.5274  1.0188
17576TIP3   OH274218   6.731   2.958  17.047  0.5060  0.3682 -0.0476
17576TIP3    H174219   6.782   3.036  17.027 -1.4552  2.0073  0.9820
17576TIP3    H274220   6.640   2.987  17.044 -0.8497 -3.0266 -4.8083
17577TIP3   OH274221   0.444   4.185   3.177 -0.2113 -0.2256  0.0343
17577TIP3    H174222   0.496   4.266   3.182  0.1240 -0.4695  0.6115
17577TIP3    H274223   0.358   4.214   3.146  0.9954 -0.1650 -3.8522
17578TIP3   OH274224   0.497   6.264   2.703  0.5447  0.1107 -0.3214
17578TIP3    H174225   0.522   6.202   2.634  0.5976  0.2337 -0.4123
17578TIP3    H274226   0.431   6.217   2.755 -0.9369  0.7174 -1.5938
17579TIP3   OH274227   3.226   5.345   1.448  0.2723 -0.1678  0.0641
17579TIP3    H174228   3.224   5.379   1.358 -0.2844  0.4765  0.3160
17579TIP3    H274229   3.134   5.338   1.473  0.3840 -1.5125  0.1576
17580TIP3   OH274230   6.528   5.424  15.549 -0.2870 -0.2397 -1.0086
17580TIP3    H174231   6.453   5.484  15.546 -0.2510 -0.0580  0.6991
17580TIP3    H274232   6.509   5.367  15.624  1.5944  0.2587 -0.0976
17581TIP3   OH274233   1.287   5.280  15.541 -0.1810  0.3462 -0.8574
17581TIP3    H174234   1.341   5.223  15.486 -1.1873 -1.2484 -0.2490
17581TIP3    H274235   1.221   5.222  15.578 -0.1510  1.5659  1.2495
17582TIP3   OH274236   1.276   5.170  11.568  0.4333 -0.2534  0.6109
17582TIP3    H174237   1.276   5.109  11.641 -1.0764 -0.6161  0.3257
17582TIP3    H274238   1.327   5.125  11.499 -0.0585 -0.8895  0.6531
17583TIP3   OH274239   2.992   6.632   6.042 -0.2174  0.7409 -0.0814
17583TIP3    H174240   2.948   6.591   6.117 -2.9134  3.2978 -0.1131
17583TIP3    H274241   3.037   6.708   6.079  1.8314 -0.1707 -0.5414
17584TIP3   OH274242   6.658   3.585  14.519  0.3445  0.0995 -0.4325
17584TIP3    H174243   6.666   3.664  14.466  0.0188 -0.4971 -1.4131
17584TIP3    H274244   6.567   3.557  14.505  1.1781 -1.9563 -2.3738
17585TIP3   OH274245   4.868   5.868   5.287  0.2335  0.5823  0.2233
17585TIP3    H174246   4.836   5.777   5.287  2.2124 -0.2989 -3.1634
17585TIP3    H274247   4.921   5.874   5.366 -0.5495 -0.9584  0.9245
17586TIP3   OH274248   1.397   3.407  16.555 -0.3250  0.0753  0.0057
17586TIP3    H174249   1.478   3.366  16.526  0.8472  0.9935  1.7573
17586TIP3    H274250   1.367   3.459  16.480  0.8432 -0.0872 -0.5934
17587TIP3   OH274251   5.756   2.837   3.957 -0.3980  0.1192 -0.2819
17587TIP3    H174252   5.817   2.765   3.940 -0.2161  0.0810  0.5052
17587TIP3    H274253   5.784   2.906   3.897  0.4145  0.0979  0.0556
17588TIP3   OH274254   1.330   0.793  14.659 -0.1656  0.0418 -0.3203
17588TIP3    H174255   1.364   0.827  14.576 -0.5522 -0.0882 -0.5352
17588TIP3    H274256   1.252   0.845  14.675 -0.1097  0.0431 -0.0511
17589TIP3   OH274257   3.150   4.805   3.211 -0.0547 -0.0827  0.0878
17589TIP3    H174258   3.170   4.847   3.295  0.4268 -2.8000  1.4262
17589TIP3    H274259   3.234   4.770   3.181 -0.5084 -0.4909 -0.7534
17590TIP3   OH274260   1.645   4.344  15.557  0.6538  0.4149  0.8784
17590TIP3    H174261   1.674   4.253  15.563  0.2281  0.2424  0.4202
17590TIP3    H274262   1.656   4.367  15.465 -1.0189  0.2113  0.5947
17591TIP3   OH274263   5.172   3.033  12.062 -0.2187  0.4952  0.1583
17591TIP3    H174264   5.169   2.941  12.035  1.1887  0.7286 -0.9177
17591TIP3    H274265   5.090   3.047  12.109 -1.2817 -0.8556 -1.1939
17592TIP3   OH274266   5.539   5.858  12.870  0.4241 -0.5527  0.9841
17592TIP3    H174267   5.546   5.948  12.840 -0.5706  0.1190  2.6447
17592TIP3    H274268   5.448   5.834  12.852  0.2040 -0.6131  2.0948
17593TIP3   OH274269   3.794   5.086   5.155 -0.1064 -0.6227  0.1589
17593TIP3    H174270   3.749   5.013   5.112 -1.7599 -0.5675  1.6825
17593TIP3    H274271   3.845   5.045   5.225 -1.1490 -0.3531  1.1095
17594TIP3   OH274272   0.587   6.809   2.565 -0.5348 -0.3798 -0.2902
17594TIP3    H174273   0.624   6.833   2.650 -0.2939  1.2344 -0.8212
17594TIP3    H274274   0.562   6.717   2.575 -0.6752 -0.1724  1.5720
17595TIP3   OH274275   4.710   0.555   6.796 -0.0086 -0.1733  0.1357
17595TIP3    H174276   4.778   0.622   6.802  0.2109 -0.4406  0.7582
17595TIP3    H274277   4.744   0.482   6.849  0.3265 -1.2639 -1.5282
17596TIP3   OH274278   4.900   6.631   7.027 -0.1987  0.1626  0.0912
17596TIP3    H174279   4.975   6.625   6.968 -0.4238 -1.2628 -0.1089
17596TIP3    H274280   4.937   6.628   7.115  0.0246  0.2777  0.0010
17597TIP3   OH274281   6.731   2.220  12.089 -0.9725 -0.2478 -0.0054
17597TIP3    H174282   6.690   2.140  12.123  1.3712 -2.0225 -1.0095
17597TIP3    H274283   6.818   2.221  12.131 -0.8227  1.5969 -0.3064
17598TIP3   OH274284   2.168   0.310  12.798  0.4451  0.2070 -0.3060
17598TIP3    H174285   2.194   0.293  12.888  1.2213  2.5810 -0.0017
17598TIP3    H274286   2.234   0.266  12.745  0.7935 -0.0517  0.3265
17599TIP3   OH274287   4.734   2.690  13.972  0.8449 -0.1734  0.5340
17599TIP3    H174288   4.696   2.733  13.895 -0.1197 -0.6111  0.7595
17599TIP3    H274289   4.665   2.693  14.038  1.4127 -0.4507  1.1524
17600TIP3   OH274290   6.158   1.394  13.829  0.4424  0.4822 -0.5248
17600TIP3    H174291   6.209   1.474  13.817  1.3428  0.3542  1.8567
17600TIP3    H274292   6.098   1.392  13.755  2.9503  1.3689 -2.7550
17601TIP3   OH274293   1.894   4.394  11.938 -0.2939 -0.0060 -0.4403
17601TIP3    H174294   1.952   4.446  11.992 -1.6097  0.4216  0.6162
17601TIP3    H274295   1.920   4.303  11.954 -0.3637  0.1479  0.5533
17602TIP3   OH274296   5.337   5.478   5.193 -0.4148  0.5895  0.0381
17602TIP3    H174297   5.247   5.490   5.164  0.0621  0.3295 -1.6378
17602TIP3    H274298   5.340   5.387   5.225 -0.6150  0.4186 -0.4281
17603TIP3   OH274299   5.500   1.603   4.872 -0.2889  0.0154 -0.0288
17603TIP3    H174300   5.438   1.656   4.922  0.0556  1.1945 -0.8087
17603TIP3    H274301   5.574   1.661   4.855 -0.3172 -0.3978 -1.7432
17604TIP3   OH274302   5.692   1.250   2.496 -0.4811  0.3384 -0.4598
17604TIP3    H174303   5.771   1.282   2.453 -1.1469  0.9066 -1.2912
17604TIP3    H274304   5.708   1.264   2.590  0.6698 -0.1941 -0.5618
17605TIP3   OH274305   2.196   3.599   1.123  0.1789 -0.0468 -0.0807
17605TIP3    H174306   2.277   3.585   1.074 -0.1298 -1.4449 -0.2403
17605TIP3    H274307   2.134   3.632   1.058  0.6215  1.1017  0.0581
17606TIP3   OH274308   0.177   1.671  10.838  0.4844  0.7613 -0.0819
17606TIP3    H174309   0.213   1.759  10.846  1.3933  0.3272  0.9276
17606TIP3    H274310   0.252   1.613  10.855 -0.4732 -0.1954  1.0549
17607TIP3   OH274311   5.083   2.565  11.086 -0.4260 -0.1678 -0.0797
17607TIP3    H174312   5.069   2.474  11.062 -1.4429 -0.2431  0.7415
17607TIP3    H274313   5.000   2.608  11.069 -0.4384  0.2688  1.0077
17608TIP3   OH274314   2.982   5.278   3.719 -0.0348  0.0774  0.0116
17608TIP3    H174315   3.016   5.313   3.802 -2.0212  1.7855  0.1913
17608TIP3    H274316   2.920   5.211   3.745  0.1693 -0.1732 -0.1460
17609TIP3   OH274317   3.496   5.474  13.068 -0.4146 -0.7027  0.0339
17609TIP3    H174318   3.480   5.517  12.984  0.9526  0.8130  0.5183
17609TIP3    H274319   3.408   5.452  13.100 -0.9953 -0.6461 -1.4384
17610TIP3   OH274320   3.537   3.710  15.828 -0.5444 -0.7676  0.2687
17610TIP3    H174321   3.583   3.637  15.787 -1.1550 -0.9650 -0.0922
17610TIP3    H274322   3.606   3.773  15.850 -0.2301 -0.2534 -1.8850
17611TIP3   OH274323   5.464   3.601   5.950 -0.0766  0.2128 -0.0229
17611TIP3    H174324   5.422   3.517   5.931 -0.7422  0.1283  1.6473
17611TIP3    H274325   5.557   3.581   5.953 -0.1612 -0.2855 -0.4800
17612TIP3   OH274326   6.773   1.141  14.003 -0.3778 -0.6504  0.4299
17612TIP3    H174327   6.868   1.144  14.000 -0.3643 -1.4345 -0.0492
17612TIP3    H274328   6.745   1.178  13.919 -0.4893 -0.8268  0.3903
17613TIP3   OH274329   6.255   3.452  14.016 -0.0501 -0.4020  0.1862
17613TIP3    H174330   6.278   3.536  14.056  0.5901  0.6854 -2.2321
17613TIP3    H274331   6.226   3.397  14.089  1.8549  1.0943  2.1974
17614TIP3   OH274332   3.482   2.413  15.480  0.1419 -0.2132 -0.5457
17614TIP3    H174333   3.572   2.441  15.462 -0.5255  2.5636  0.0859
17614TIP3    H274334   3.429   2.458  15.414 -1.0138  0.1135  0.5742
17615TIP3   OH274335   4.461   6.708  17.024  0.3087  0.0834 -0.3494
17615TIP3    H174336   4.543   6.665  16.998  0.0817 -0.4681 -0.1616
17615TIP3    H274337   4.450   6.685  17.116 -0.2126 -0.1078 -0.4563
17616TIP3   OH274338   1.112   2.497   4.719 -0.7483  0.5345  0.5914
17616TIP3    H174339   1.162   2.446   4.782 -0.5716 -3.2797 -2.2782
17616TIP3    H274340   1.173   2.564   4.687  1.7551 -2.1765 -0.7461
17617TIP3   OH274341   5.625   0.669   0.123 -0.9289 -0.1626  0.2217
17617TIP3    H174342   5.539   0.628   0.112 -1.3574  0.9339 -0.7575
17617TIP3    H274343   5.625   0.701   0.213 -0.6183 -2.1718  0.9715
17618TIP3   OH274344   3.803   4.214   2.561 -0.1267 -0.0601  0.9145
17618TIP3    H174345   3.896   4.236   2.569  0.2725 -1.7627  1.3023
17618TIP3    H274346   3.760   4.299   2.549  1.4314  0.7940  1.0248
17619TIP3   OH274347   4.758   1.337  12.015  0.4497 -0.6067  0.0656
17619TIP3    H174348   4.668   1.323  11.985  0.5434 -0.3302 -0.3502
17619TIP3    H274349   4.785   1.252  12.048 -0.2554 -0.4815  0.9878
17620TIP3   OH274350   3.411   4.439   5.638  0.0667  0.1052  0.2181
17620TIP3    H174351   3.466   4.421   5.561 -1.0020 -1.8319 -0.1426
17620TIP3    H274352   3.350   4.507   5.608 -1.0266 -1.3541 -1.0630
17621TIP3   OH274353   6.202   1.667   3.223 -0.0394  0.6018  0.6897
17621TIP3    H174354   6.274   1.621   3.267 -0.7334  0.7288  2.0053
17621TIP3    H274355   6.143   1.691   3.294 -0.9107  1.3445 -0.2707
17622TIP3   OH274356   4.927   1.140   6.486 -0.2237 -0.1575  0.4260
17622TIP3    H174357   5.001   1.150   6.426  0.9053 -2.0286  1.4110
17622TIP3    H274358   4.870   1.214   6.466  1.1406  0.4685 -1.4578
17623TIP3   OH274359   2.887   2.612   6.666  0.2495  0.1468  0.3874
17623TIP3    H174360   2.874   2.532   6.614 -0.8053  0.5185  0.0414
17623TIP3    H274361   2.864   2.683   6.605  0.2109  0.6524  0.9887
17624TIP3   OH274362   5.957   0.222   2.992 -0.5971 -0.3425 -0.3478
17624TIP3    H174363   6.012   0.202   3.068  0.2556 -2.0067 -1.3538
17624TIP3    H274364   5.872   0.247   3.030 -0.9542 -3.3469  1.1928
17625TIP3   OH274365   0.742   5.138   0.921 -0.5918 -0.2658  0.1580
17625TIP3    H174366   0.707   5.171   1.004 -0.9472  0.2594 -0.1961
17625TIP3    H274367   0.803   5.205   0.892 -0.5486 -0.4002 -0.0616
17626TIP3   OH274368   6.307   5.601  16.635 -0.7859 -0.0013  0.0135
17626TIP3    H174369   6.348   5.614  16.550 -1.5813 -1.3284 -0.6064
17626TIP3    H274370   6.360   5.654  16.696 -0.5350  1.3873 -1.3603
17627TIP3   OH274371   6.230   5.949  16.211  0.6944 -0.0893  0.4987
17627TIP3    H174372   6.220   5.983  16.300  0.5043 -0.3556  0.5796
17627TIP3    H274373   6.318   5.975  16.186  0.5383  0.4951  0.5478
17628TIP3   OH274374   3.315   3.888  14.404  0.3601  0.4320 -0.2503
17628TIP3    H174375   3.309   3.840  14.487 -3.6874 -1.2142 -1.2228
17628TIP3    H274376   3.374   3.836  14.350  2.9697  1.4675  1.3955
17629TIP3   OH274377   5.870   6.686   4.138  0.5488 -0.8966  0.1626
17629TIP3    H174378   5.830   6.704   4.223 -0.9905 -2.1525 -0.2323
17629TIP3    H274379   5.921   6.764   4.117 -3.6762  2.0401 -0.4073
17630TIP3   OH274380   6.518   5.488  12.976 -0.3381 -0.2960  0.2100
17630TIP3    H174381   6.476   5.517  13.057  1.2615 -1.9286  1.7017
17630TIP3    H274382   6.490   5.397  12.966  0.9779 -0.6978 -0.0094
17631TIP3   OH274383   4.859   6.165   5.318 -0.5494  0.1891 -0.1045
17631TIP3    H174384   4.851   6.071   5.301 -1.9734  0.4734 -1.1908
17631TIP3    H274385   4.785   6.186   5.375 -0.1124  0.6162  0.3155
17632TIP3   OH274386   0.530   0.519  16.701  0.2244 -0.2593 -0.7452
17632TIP3    H174387   0.496   0.602  16.734 -1.8983  0.2516 -3.7732
17632TIP3    H274388   0.480   0.452  16.748  0.8112  0.1878  0.5641
17633TIP3   OH274389   2.506   1.674  14.594 -0.1955  0.0969 -0.1719
17633TIP3    H174390   2.535   1.757  14.633 -0.4732  0.3601 -0.5193
17633TIP3    H274391   2.558   1.607  14.639 -0.1484  0.4378  0.2856
17634TIP3   OH274392   1.837   1.579  13.336  0.4452  0.4025  0.0250
17634TIP3    H174393   1.761   1.626  13.303  0.5248  0.3429 -0.2424
17634TIP3    H274394   1.901   1.648  13.357  0.6963  0.3977 -0.7039
17635TIP3   OH274395   0.564   4.950  13.212 -0.8142  0.6844  0.2007
17635TIP3    H174396   0.637   4.895  13.185 -0.0879  0.8114  1.7422
17635TIP3    H274397   0.507   4.954  13.136  0.1554 -0.4666 -0.6303
17636TIP3   OH274398   2.930   0.918   1.945 -0.2015  0.1057  0.3106
17636TIP3    H174399   2.965   0.868   1.871 -0.2892  0.7633 -0.1868
17636TIP3    H274400   2.891   0.852   2.002  1.0032 -0.5487  0.4128
17637TIP3   OH274401   1.295   3.949   3.886 -0.3417  0.0446  0.3017
17637TIP3    H174402   1.276   4.026   3.939  0.5565  0.9084 -0.5825
17637TIP3    H274403   1.242   3.879   3.924 -2.5835  1.4975  0.0190
17638TIP3   OH274404   6.195   2.893   5.935 -0.2101 -0.0430  0.2660
17638TIP3    H174405   6.257   2.958   5.902 -0.2826 -0.7052 -1.2233
17638TIP3    H274406   6.140   2.942   5.996  1.0485  0.8089  0.7670
17639TIP3   OH274407   3.400   3.473  11.428  0.0619  0.3246 -0.9577
17639TIP3    H174408   3.331   3.414  11.396  1.3597 -1.5711 -0.4725
17639TIP3    H274409   3.357   3.526  11.495 -0.6108 -2.1075  0.7080
17640TIP3   OH274410   0.416   4.977  12.946  0.1608 -0.5900 -0.1368
17640TIP3    H174411   0.321   4.984  12.940  0.1556 -1.2996 -1.0623
17640TIP3    H274412   0.434   4.883  12.935  0.9954 -0.4114 -0.3674
17641TIP3   OH274413   5.887   6.388   2.240  0.0244 -0.1473 -0.0192
17641TIP3    H174414   5.796   6.367   2.216 -0.3083 -1.0395  1.8661
17641TIP3    H274415   5.918   6.442   2.168 -2.6198  1.7668  0.0970
17642TIP3   OH274416   0.131   3.268   3.797  0.0188 -0.3461  0.3995
17642TIP3    H174417   0.184   3.347   3.785 -0.1730 -0.3958 -0.9772
17642TIP3    H274418   0.042   3.295   3.775 -0.5590 -0.2811  2.6449
17643TIP3   OH274419   3.744   3.133  10.987  0.4356 -0.5005  0.1049
17643TIP3    H174420   3.695   3.080  11.049 -1.2171  0.7543 -0.0778
17643TIP3    H274421   3.763   3.074  10.914  1.3146 -1.6397  1.2213
17644TIP3   OH274422   3.185   4.877  14.233 -0.2231  0.1284 -0.4024
17644TIP3    H174423   3.150   4.808  14.290  0.9284  1.0211  1.4493
17644TIP3    H274424   3.148   4.958  14.268 -0.8295  0.6004 -2.0007
17645TIP3   OH274425   1.854   2.751  16.718  0.0506  0.4680 -0.1330
17645TIP3    H174426   1.815   2.677  16.765 -1.3286 -0.7482 -2.9178
17645TIP3    H274427   1.948   2.738  16.726 -0.1701 -1.1831  0.1161
17646TIP3   OH274428   0.618   1.815   3.694  0.1824 -0.9100 -0.2485
17646TIP3    H174429   0.527   1.805   3.667  0.4337 -2.7110 -0.5157
17646TIP3    H274430   0.648   1.726   3.714  1.4889 -0.2081  1.1435
17647TIP3   OH274431   6.118   1.796   1.477  0.0438  0.2066 -0.6096
17647TIP3    H174432   6.211   1.790   1.458  0.0691  0.8824 -0.7294
17647TIP3    H274433   6.086   1.706   1.469  0.8918 -0.2279  0.5777
17648TIP3   OH274434   0.261   0.588  16.472  0.4494  0.5279 -0.1805
17648TIP3    H174435   0.289   0.616  16.560  2.3025 -2.1698  0.1843
17648TIP3    H274436   0.321   0.518  16.448 -1.3355 -0.2758 -2.7481
17649TIP3   OH274437   2.832   3.404  11.660  0.3478  0.6538 -0.1732
17649TIP3    H174438   2.865   3.319  11.688  0.8983  0.9178  0.0073
17649TIP3    H274439   2.770   3.384  11.590  1.1548  0.1433 -0.7659
17650TIP3   OH274440   3.279   1.656  13.680  0.1372 -0.4087  0.2826
17650TIP3    H174441   3.289   1.562  13.667  0.7649 -0.4714  1.1484
17650TIP3    H274442   3.258   1.666  13.773 -0.5572  0.2696  0.0694
17651TIP3   OH274443   1.650   0.401   4.950 -0.5572 -0.0130  0.7829
17651TIP3    H174444   1.585   0.345   4.994 -0.4051 -0.2254  0.7418
17651TIP3    H274445   1.630   0.391   4.857 -2.4660  2.3471  0.8359
17652TIP3   OH274446   1.993   5.601   0.893  0.2822 -0.1371 -0.3681
17652TIP3    H174447   1.907   5.615   0.932  0.0726 -0.9509 -0.5190
17652TIP3    H274448   1.985   5.634   0.803 -0.5241 -2.0800 -1.0627
17653TIP3   OH274449   1.181   1.327  14.223 -0.0065  0.3492  0.2128
17653TIP3    H174450   1.232   1.275  14.161 -0.5122 -0.1592  0.2073
17653TIP3    H274451   1.094   1.332  14.184 -0.3181  0.0617  0.8489
17654TIP3   OH274452   1.082   1.917   5.932  0.0180 -0.2905  1.2365
17654TIP3    H174453   1.089   1.831   5.973  0.1695 -0.9046 -0.0240
17654TIP3    H274454   0.988   1.935   5.929 -0.0669 -0.8187  0.6992
17655TIP3   OH274455   3.621   1.083   4.956  0.1968 -0.2975 -0.8056
17655TIP3    H174456   3.594   1.038   4.876  2.0568  0.0548 -1.6996
17655TIP3    H274457   3.675   1.157   4.924 -0.1059  0.6274  0.7300
17656TIP3   OH274458   0.140   2.751  16.605 -0.5164  0.5971  0.0035
17656TIP3    H174459   0.054   2.767  16.567 -0.4916 -0.6270 -0.6200
17656TIP3    H274460   0.202   2.762  16.532 -0.5475 -2.6778 -0.6667
17657TIP3   OH274461   4.629   3.424  11.372  0.2479 -0.0158 -0.0526
17657TIP3    H174462   4.674   3.346  11.404 -0.5731 -1.1415 -1.5489
17657TIP3    H274463   4.616   3.409  11.279 -2.6449  0.5219  0.1737
17658TIP3   OH274464   5.269   0.805   2.644  0.2089 -0.1486 -0.0509
17658TIP3    H174465   5.278   0.802   2.739 -2.1278 -0.7459  0.1994
17658TIP3    H274466   5.288   0.716   2.615  0.6269 -0.0375 -0.1274
17659TIP3   OH274467   0.289   1.858   6.373  0.4494 -0.1493  0.0685
17659TIP3    H174468   0.325   1.773   6.399  0.5645 -1.3977 -3.6413
17659TIP3    H274469   0.211   1.869   6.427  1.2132 -1.8721  1.6420
17660TIP3   OH274470   6.458   6.212   1.864 -0.1249  0.1544  0.1370
17660TIP3    H174471   6.489   6.292   1.821  0.8693  0.5986  1.5841
17660TIP3    H274472   6.366   6.230   1.884  0.0460  0.8939  0.3039
17661TIP3   OH274473   3.812   5.807  15.271  0.2232  0.2814 -0.3884
17661TIP3    H174474   3.790   5.877  15.210  0.4563 -0.1507 -0.9801
17661TIP3    H274475   3.898   5.776  15.243  0.2459 -0.0592  0.0380
17662TIP3   OH274476   6.273   6.422  15.377  0.0437  0.1248  0.1502
17662TIP3    H174477   6.335   6.378  15.319 -0.1158 -1.7208  1.2802
17662TIP3    H274478   6.190   6.376  15.363  0.2182 -1.0327  2.4493
17663TIP3   OH274479   5.868   6.039   6.013 -0.3428  0.3889  0.1197
17663TIP3    H174480   5.801   6.022   6.080 -0.6049 -1.2700 -0.5271
17663TIP3    H274481   5.818   6.061   5.934 -0.2453 -1.9313 -0.6696
17664TIP3   OH274482   3.245   1.862   3.988 -0.3313 -0.0357 -0.3889
17664TIP3    H174483   3.247   1.931   3.922 -1.6593 -1.6670 -2.2390
17664TIP3    H274484   3.157   1.825   3.981  0.5924 -2.4728 -0.0687
17665TIP3   OH274485   1.611   3.403   1.760  0.0436  0.1691  1.3775
17665TIP3    H174486   1.537   3.389   1.701 -0.9404 -1.1367  2.8555
17665TIP3    H274487   1.607   3.496   1.783 -0.6557  0.2757  0.8459
17666TIP3   OH274488   1.672   6.562  15.217 -0.5184  0.9635 -0.5726
17666TIP3    H174489   1.755   6.540  15.261 -0.0667  0.1887 -1.7471
17666TIP3    H274490   1.670   6.657  15.217 -0.0190  0.9892  0.1786
17667TIP3   OH274491   1.869   2.208   3.657 -0.1556 -0.4275  0.1037
17667TIP3    H174492   1.878   2.118   3.628  1.6878  0.1734 -1.4498
17667TIP3    H274493   1.786   2.211   3.705  0.7544 -3.3957  2.0885
17668TIP3   OH274494   1.233   0.017  14.156  0.2920  0.0976  0.2749
17668TIP3    H174495   1.263   0.028  14.246  0.5436 -0.9279  0.3214
17668TIP3    H274496   1.207  -0.075  14.151 -0.4758  0.3474 -0.4749
17669TIP3   OH274497   3.482   3.580   3.476  0.2060 -0.2354  0.1728
17669TIP3    H174498   3.553   3.605   3.417 -0.8475 -0.8226 -1.3955
17669TIP3    H274499   3.491   3.486   3.486  0.1159 -0.1992  0.6170
17670TIP3   OH274500   1.759   0.380  15.753 -0.0654 -0.0288  0.2812
17670TIP3    H174501   1.765   0.412  15.843 -1.4608 -0.4696  0.5461
17670TIP3    H274502   1.691   0.433  15.713 -2.3215 -2.4142  0.6872
17671TIP3   OH274503   3.858   1.873   3.221  0.0134  1.0675  0.4345
17671TIP3    H174504   3.828   1.793   3.178  0.1332  0.9820  0.5077
17671TIP3    H274505   3.882   1.845   3.309 -1.1898  1.4315  0.8926
17672TIP3   OH274506   1.997   6.439   5.784 -0.3982 -0.3716 -0.4826
17672TIP3    H174507   1.965   6.352   5.804  0.5405 -0.5022  0.5634
17672TIP3    H274508   2.092   6.429   5.779 -0.3660  0.3435 -1.6718
17673TIP3   OH274509   3.016   1.624   4.768 -0.0473 -0.3038 -0.2406
17673TIP3    H174510   3.023   1.556   4.835  1.0544  2.5631  2.7846
17673TIP3    H274511   2.921   1.633   4.754 -0.3240 -0.7341  1.1972
17674TIP3   OH274512   0.321   5.671   0.553 -0.6888 -0.4167  0.1950
17674TIP3    H174513   0.382   5.637   0.486 -0.3760 -1.1442  0.8360
17674TIP3    H274514   0.361   5.645   0.636 -1.8622 -0.8783  0.6324
17675TIP3   OH274515   5.459   6.038  14.478 -0.1755  0.0543 -0.1300
17675TIP3    H174516   5.536   6.064  14.428  0.4026 -1.5822 -0.1585
17675TIP3    H274517   5.494   5.984  14.549 -1.2815 -0.7301 -0.1539
17676TIP3   OH274518   2.639   6.773   0.132 -0.1109 -0.6533  0.0788
17676TIP3    H174519   2.712   6.834   0.120 -2.0342  1.8689  0.1580
17676TIP3    H274520   2.621   6.740   0.044  0.8741 -1.0133  0.0028
17677TIP3   OH274521   6.075   1.623  11.033 -0.3537  0.4001  0.4574
17677TIP3    H174522   6.071   1.627  11.129  0.4101 -0.9801  0.5794
17677TIP3    H274523   5.988   1.594  11.007 -0.6008  0.8958  0.7256
17678TIP3   OH274524   3.266   1.592  13.066  0.1097 -0.5033 -0.2588
17678TIP3    H174525   3.328   1.587  12.993  0.8556  0.0841  0.3243
17678TIP3    H274526   3.272   1.682  13.097  2.0025 -1.4331  2.4010
17679TIP3   OH274527   0.854   1.901  15.924  0.0272 -0.1275 -0.3389
17679TIP3    H174528   0.864   1.933  16.014 -0.6855 -1.5264  0.2795
17679TIP3    H274529   0.765   1.927  15.899  0.2022  0.2052 -0.6139
17680TIP3   OH274530   3.911   5.511   2.601 -0.4661  0.8668  0.0930
17680TIP3    H174531   3.821   5.507   2.632 -0.7574  2.1263 -0.4973
17680TIP3    H274532   3.913   5.587   2.542  0.5853 -0.0867 -1.1804
17681TIP3   OH274533   4.400   1.271  16.351  0.2780 -0.2622 -0.9052
17681TIP3    H174534   4.450   1.340  16.395 -1.0359  1.1663 -1.5474
17681TIP3    H274535   4.393   1.201  16.415  2.9419 -0.4904 -0.7465
17682TIP3   OH274536   0.404   1.520  16.537  0.5072 -0.1065 -0.0594
17682TIP3    H174537   0.411   1.425  16.538  1.3865 -0.0498  0.4505
17682TIP3    H274538   0.395   1.544  16.629  0.1533  0.2912 -0.1974
17683TIP3   OH274539   1.248   6.172  11.699 -0.0331 -0.2642 -0.2400
17683TIP3    H174540   1.272   6.126  11.619  0.5211 -0.1595 -0.1316
17683TIP3    H274541   1.306   6.136  11.766  0.0967  0.2725 -0.0633
17684TIP3   OH274542   0.745   3.650  11.544 -0.1351 -0.2647 -0.2322
17684TIP3    H174543   0.826   3.616  11.583  1.2590  1.1322 -1.7628
17684TIP3    H274544   0.718   3.583  11.481  0.6674 -0.1054 -0.7595
17685TIP3   OH274545   0.920   4.088   0.229 -0.2298 -0.2446  0.0452
17685TIP3    H174546   0.852   4.069   0.165 -0.1525 -1.7676  0.3853
17685TIP3    H274547   0.950   4.002   0.259  1.0681  0.4108  0.7154
17686TIP3   OH274548   1.120   0.874   5.162  0.6527 -0.3676  0.2146
17686TIP3    H174549   1.125   0.829   5.246  0.4032  0.2512  0.5723
17686TIP3    H274550   1.121   0.805   5.096 -2.3499 -1.0718  0.8065
17687TIP3   OH274551   3.641   1.810   4.951  0.3107 -0.2890  0.5352
17687TIP3    H174552   3.574   1.749   4.920  0.0797  0.9723 -1.7300
17687TIP3    H274553   3.605   1.848   5.031 -0.9660 -0.8049  0.2266
17688TIP3   OH274554   4.041   4.045  14.219  0.6061 -0.2808  0.1017
17688TIP3    H174555   4.081   3.973  14.170 -1.2748 -1.2781 -0.0904
17688TIP3    H274556   4.092   4.050  14.300  1.4051 -1.1443 -0.3273
17689TIP3   OH274557   1.000   1.465  15.261  0.4570 -0.7168 -0.1336
17689TIP3    H174558   1.077   1.514  15.232  0.2830 -0.1875  0.2922
17689TIP3    H274559   0.957   1.438  15.180 -1.1364  2.4637 -0.5114
17690TIP3   OH274560   2.905   3.093   2.378  0.4965 -0.4615 -0.3845
17690TIP3    H174561   2.882   3.027   2.313 -0.0057 -0.4697 -0.2008
17690TIP3    H274562   2.972   3.146   2.336  0.1633 -0.4569 -0.9173
17691TIP3   OH274563   2.663   1.639  12.212 -0.2328  0.0066  0.1131
17691TIP3    H174564   2.716   1.612  12.286  1.3270 -0.6974 -1.2035
17691TIP3    H274565   2.695   1.587  12.139 -1.4786  0.9254 -1.1475
17692TIP3   OH274566   5.283   0.975  13.548  0.2013  0.1969  0.3684
17692TIP3    H174567   5.197   0.976  13.505  0.1432  1.0437  0.5031
17692TIP3    H274568   5.274   1.033  13.623  1.5357  2.1324 -0.8757
17693TIP3   OH274569   2.952   0.438   0.571 -0.8299 -0.8086 -0.2172
17693TIP3    H174570   2.930   0.514   0.625 -0.7194 -0.4647 -0.6488
17693TIP3    H274571   3.044   0.420   0.593 -0.3310  0.2375 -1.3468
17694TIP3   OH274572   4.794   5.593   5.355  0.1094 -0.5973 -0.7719
17694TIP3    H174573   4.714   5.644   5.352  1.3523  1.4540 -1.2291
17694TIP3    H274574   4.823   5.597   5.446 -0.8999 -2.4211 -0.3188
17695TIP3   OH274575   2.137   2.526  11.519  0.1776  0.3717  0.0935
17695TIP3    H174576   2.177   2.535  11.605  0.7368  1.6518 -0.2750
17695TIP3    H274577   2.208   2.543  11.457 -0.6482  1.5662 -0.5889
17696TIP3   OH274578   0.080   3.166  11.379 -0.1745 -0.4382 -0.4737
17696TIP3    H174579   0.015   3.096  11.382 -0.3730 -0.2680 -0.7935
17696TIP3    H274580   0.068   3.206  11.293  1.6118 -1.6175 -1.3410
17697TIP3   OH274581   4.519   1.227  11.951 -0.4313  0.3157  0.0163
17697TIP3    H174582   4.518   1.202  12.044  1.2961 -2.0231 -0.5236
17697TIP3    H274583   4.432   1.203  11.919 -0.2978 -0.9426  0.5511
17698TIP3   OH274584   2.814   4.400   5.462  0.6707 -0.1801  0.6614
17698TIP3    H174585   2.740   4.343   5.442  0.3350  0.5544 -0.2869
17698TIP3    H274586   2.880   4.342   5.500  0.2916 -1.1741 -0.1547
17699TIP3   OH274587   1.957   5.471   5.022 -0.0194  0.2425 -0.2639
17699TIP3    H174588   2.003   5.397   5.061  0.4527 -0.3703 -1.9026
17699TIP3    H274589   1.919   5.517   5.097 -1.2883 -2.2516  0.7579
17700TIP3   OH274590   3.075   1.047  11.352  0.0873 -0.2900 -0.1069
17700TIP3    H174591   3.080   1.083  11.264  1.2646  0.0568  0.0877
17700TIP3    H274592   2.989   1.074  11.384  0.4439  1.3193 -0.4194
17701TIP3   OH274593   6.766   5.780  16.444 -0.3401 -0.1697  0.1377
17701TIP3    H174594   6.798   5.809  16.358  0.8286  1.1574  0.9747
17701TIP3    H274595   6.843   5.782  16.501 -1.0121 -1.4015  1.1468
17702TIP3   OH274596   0.456   2.694  16.582 -0.5606 -0.0439  0.4539
17702TIP3    H174597   0.436   2.767  16.523  1.1156 -0.3605 -0.5686
17702TIP3    H274598   0.484   2.737  16.663  0.7632  0.5025 -0.2580
17703TIP3   OH274599   4.265   1.204   4.104  0.0949  0.0343  0.1969
17703TIP3    H174600   4.209   1.127   4.103 -0.2949  0.3138 -0.4037
17703TIP3    H274601   4.205   1.278   4.116  0.6980  0.0943  3.7589
17704TIP3   OH274602   1.364   4.221   1.664 -0.1886 -0.6448 -0.4155
17704TIP3    H174603   1.333   4.282   1.731  0.2413 -1.1135  0.2266
17704TIP3    H274604   1.284   4.181   1.630 -0.4121 -0.4111 -0.1770
17705TIP3   OH274605   0.572   6.186  12.717  0.5367 -0.0870 -0.0335
17705TIP3    H174606   0.606   6.199  12.628  1.2895  0.2686  0.2996
17705TIP3    H274607   0.642   6.215  12.774 -0.6981  1.6333  0.6922
17706TIP3   OH274608   5.152   1.164  17.099 -0.2191  0.2935 -0.0737
17706TIP3    H174609   5.133   1.217  17.177 -0.6666  0.3660 -0.2325
17706TIP3    H274610   5.144   1.073  17.130 -1.0845  0.3190 -0.1932
17707TIP3   OH274611   0.808   0.033  12.285  0.3568  0.2807  0.0004
17707TIP3    H174612   0.832   0.086  12.209 -0.6279 -0.7362 -1.0610
17707TIP3    H274613   0.746  -0.031  12.251 -0.6957  0.2558  1.8137
17708TIP3   OH274614   6.582   6.568  11.919 -0.2528  0.3976 -0.0617
17708TIP3    H174615   6.672   6.585  11.947  0.1201  1.0575 -1.5744
17708TIP3    H274616   6.591   6.506  11.847 -0.9302  1.1368 -0.8020
17709TIP3   OH274617   0.363   5.820  15.538 -0.9260 -0.4133 -0.3722
17709TIP3    H174618   0.323   5.733  15.545  0.6462 -1.3067 -1.7711
17709TIP3    H274619   0.441   5.815  15.593 -0.7818  0.0732 -0.5325
17710TIP3   OH274620   2.273   3.159   0.540  0.5609 -0.0308 -0.2658
17710TIP3    H174621   2.198   3.213   0.565  1.0591 -0.2064  1.8336
17710TIP3    H274622   2.238   3.095   0.478 -0.6270  0.9843 -0.6629
17711TIP3   OH274623   1.385   4.832   4.719  0.2637  0.2467  0.4215
17711TIP3    H174624   1.470   4.841   4.676 -0.2156 -1.9622 -1.1866
17711TIP3    H274625   1.403   4.787   4.801  0.5090 -2.7939 -1.1490
17712TIP3   OH274626   3.245   2.799  13.719  0.0381  0.1499 -0.1592
17712TIP3    H174627   3.206   2.802  13.632 -0.0851 -0.7884 -0.1529
17712TIP3    H274628   3.339   2.803  13.704  0.1106 -1.7083 -0.4852
17713TIP3   OH274629   1.360   4.618   5.345  0.3495 -0.3821  0.2728
17713TIP3    H174630   1.425   4.550   5.324  0.0337 -0.3622 -0.8202
17713TIP3    H274631   1.365   4.626   5.440  2.3335 -0.0046  0.1865
17714TIP3   OH274632   6.110   5.598  16.935 -0.5624  0.2300 -0.7351
17714TIP3    H174633   6.045   5.554  16.879 -0.4210 -0.2933 -0.4992
17714TIP3    H274634   6.155   5.526  16.980 -0.5272  0.6342 -0.1130
17715TIP3   OH274635   1.084   4.367   1.399  0.4516  0.0621 -0.9193
17715TIP3    H174636   1.128   4.441   1.440  1.1962 -0.2759 -1.0878
17715TIP3    H274637   1.103   4.293   1.458  0.9706 -0.2928 -1.5286
17716TIP3   OH274638   1.025   3.263   4.213  0.2212 -0.4010  0.2685
17716TIP3    H174639   1.090   3.202   4.179  2.3610  1.1218  1.3651
17716TIP3    H274640   1.034   3.258   4.308 -1.4147 -0.2424  0.4669
17717TIP3   OH274641   0.570   4.985  17.079  0.0349  0.2114 -0.5920
17717TIP3    H174642   0.564   4.896  17.113 -0.2676  0.0616 -1.0334
17717TIP3    H274643   0.600   5.037  17.153  0.2489 -0.2644 -0.3426
17718TIP3   OH274644   3.045   1.629   1.903  0.1831  0.1497 -0.2441
17718TIP3    H174645   3.132   1.626   1.944  0.7875 -1.2032 -1.5377
17718TIP3    H274646   3.031   1.722   1.885  1.5996  0.3384 -0.4790
17719TIP3   OH274647   6.715   5.104   3.268  0.5572 -0.5947 -0.5921
17719TIP3    H174648   6.713   5.043   3.194 -0.3436 -1.3445  0.0232
17719TIP3    H274649   6.660   5.063   3.335 -2.3177  2.0960 -1.0769
17720TIP3   OH274650   1.123   3.149  14.117 -0.1989 -0.2265  0.0884
17720TIP3    H174651   1.107   3.178  14.207 -1.3489 -0.7663  0.0786
17720TIP3    H274652   1.041   3.168  14.071 -0.0244 -1.0029 -0.5598
17721TIP3   OH274653   5.846   5.602   5.985  0.2267 -0.2274  0.0389
17721TIP3    H174654   5.883   5.586   5.899  4.1558 -0.8000  1.6577
17721TIP3    H274655   5.807   5.519   6.011  2.2472 -1.1911  0.1667
17722TIP3   OH274656   0.147   3.996   0.476 -0.2046  0.3096 -0.4640
17722TIP3    H174657   0.205   3.985   0.551 -2.1494 -0.0887  1.0707
17722TIP3    H274658   0.142   3.909   0.437  0.9118  0.5457 -1.1769
17723TIP3   OH274659   3.234   5.378  12.322  0.2382  0.0410  0.7105
17723TIP3    H174660   3.182   5.332  12.388 -0.2956  0.2723  0.4602
17723TIP3    H274661   3.318   5.332  12.321  0.4195  0.3231  1.8668
17724TIP3   OH274662   1.301   4.693  12.272 -0.0758 -0.0592  0.2455
17724TIP3    H174663   1.227   4.681  12.332  0.8417 -1.1704  1.2035
17724TIP3    H274664   1.263   4.686  12.185 -0.9809 -1.5025  0.7201
17725TIP3   OH274665   2.682   0.016   4.331 -0.0427 -0.0658  1.0170
17725TIP3    H174666   2.595  -0.016   4.306 -1.0894  3.4508 -0.5528
17725TIP3    H274667   2.669   0.060   4.415 -0.3571  2.1244 -0.0980
17726TIP3   OH274668   5.461   0.762   0.724 -0.5822  0.3660 -1.3865
17726TIP3    H174669   5.396   0.813   0.676 -0.3800  0.7487 -1.2606
17726TIP3    H274670   5.498   0.824   0.787  0.3652  0.3432 -1.8953
17727TIP3   OH274671   2.691   5.438   5.236 -0.1459 -0.0495 -0.5222
17727TIP3    H174672   2.656   5.357   5.199  0.7798 -0.5901 -0.2404
17727TIP3    H274673   2.652   5.442   5.324 -0.5870  0.0846 -0.7174
17728TIP3   OH274674   2.739   1.481   0.065  0.2011  0.0081  0.3031
17728TIP3    H174675   2.792   1.417   0.017 -1.4188 -0.9582 -0.2625
17728TIP3    H274676   2.663   1.432   0.095 -0.1297  1.2341  1.5793
17729TIP3   OH274677   1.716   2.152  13.735  0.5326  0.5117 -0.0751
17729TIP3    H174678   1.778   2.126  13.803  0.7079  0.1681 -0.3627
17729TIP3    H274679   1.762   2.220  13.686  0.9109 -0.1293 -0.6317
17730TIP3   OH274680   2.120   0.921  16.858 -0.0844  0.6165 -0.6871
17730TIP3    H174681   2.074   0.955  16.781 -0.2157  1.3389 -0.2965
17730TIP3    H274682   2.150   0.999  16.904 -0.3884  0.2075  0.2192
17731TIP3   OH274683   3.653   5.690   4.770  0.1743 -0.3374  0.4843
17731TIP3    H174684   3.640   5.695   4.675 -0.3962 -1.5528  0.4779
17731TIP3    H274685   3.713   5.763   4.790 -1.3246  1.2311 -0.4807
17732TIP3   OH274686   4.173   1.740   5.348 -0.6963  0.4236 -0.1650
17732TIP3    H174687   4.088   1.702   5.372 -0.7780  0.2669 -0.6907
17732TIP3    H274688   4.152   1.806   5.283 -0.3074 -0.4561 -1.2080
17733TIP3   OH274689   4.150   0.460  13.822 -0.8597 -0.0348 -0.1640
17733TIP3    H174690   4.160   0.366  13.836  2.3295  0.5448  2.6599
17733TIP3    H274691   4.102   0.491  13.899  0.5293  0.9453  0.3406
17734TIP3   OH274692   1.398   5.346   1.722  0.1860  0.1271 -0.3373
17734TIP3    H174693   1.478   5.374   1.767  1.1445 -0.6435 -1.5112
17734TIP3    H274694   1.408   5.252   1.709 -0.9753 -0.0079 -0.3953
17735TIP3   OH274695   2.411   0.972  12.977  0.2245 -0.1109  0.0442
17735TIP3    H174696   2.325   0.994  13.014  0.6780  1.7218  0.0819
17735TIP3    H274697   2.465   1.049  12.993  2.4921 -1.9232  1.7178
17736TIP3   OH274698   0.344   6.465   0.700 -0.0732  0.0300  0.0289
17736TIP3    H174699   0.274   6.510   0.654  0.0666  0.3833  0.1642
17736TIP3    H274700   0.385   6.410   0.632 -0.0105  0.3804 -0.2206
17737TIP3   OH274701   3.344   3.488   2.481  0.8513 -0.7358 -0.3277
17737TIP3    H174702   3.386   3.446   2.406  0.1972 -0.6822 -0.7317
17737TIP3    H274703   3.381   3.576   2.484  1.1396 -0.8551 -0.3711
17738TIP3   OH274704   4.015   4.393  14.798  0.5497 -0.0721 -0.2887
17738TIP3    H174705   4.045   4.465  14.854 -2.2143 -0.4907  1.9421
17738TIP3    H274706   3.959   4.435  14.733  1.8687  0.1477 -1.3137
17739TIP3   OH274707   4.827   6.584  12.891 -0.8370  0.0324  0.4041
17739TIP3    H174708   4.764   6.646  12.927 -0.1494  2.5661 -2.3227
17739TIP3    H274709   4.810   6.586  12.796 -0.2392 -3.4659  0.0901
17740TIP3   OH274710   2.864   4.432  16.434  0.1269 -0.5610 -0.0526
17740TIP3    H174711   2.773   4.446  16.460 -0.0641 -0.3329 -0.8261
17740TIP3    H274712   2.860   4.419  16.340  1.0514  1.0212 -0.3453
17741TIP3   OH274713   0.275   0.616   4.235  1.0243  0.6920 -0.2256
17741TIP3    H174714   0.308   0.654   4.317  1.0550  1.4591 -0.5837
17741TIP3    H274715   0.195   0.665   4.216  0.5032 -0.1168 -0.1710
17742TIP3   OH274716   2.600   6.316   3.481 -0.2369  0.6429 -0.7999
17742TIP3    H174717   2.575   6.387   3.539  0.3451  1.3571 -1.3894
17742TIP3    H274718   2.520   6.266   3.467 -0.9842  1.9682 -1.4388
17743TIP3   OH274719   3.234   1.753  13.441 -0.2894 -0.3756 -0.1908
17743TIP3    H174720   3.180   1.831  13.429 -0.2357 -0.3699 -0.3846
17743TIP3    H274721   3.225   1.732  13.534 -1.7532 -1.1926 -0.4808
17744TIP3   OH274722   2.383   1.016  12.079 -0.6551 -0.8824 -0.1599
17744TIP3    H174723   2.437   1.095  12.081  0.0704 -1.1509 -3.5215
17744TIP3    H274724   2.301   1.041  12.123 -0.3884  1.7018 -1.0065
17745TIP3   OH274725   6.429   5.007  14.806  0.2581  0.8394  0.5363
17745TIP3    H174726   6.517   4.995  14.842  0.0255  2.2854  1.7002
17745TIP3    H274727   6.441   5.069  14.734  0.4072 -0.3211 -0.4701
17746TIP3   OH274728   6.531   0.904  17.223  0.0225  0.1108 -0.0753
17746TIP3    H174729   6.611   0.954  17.209  0.2755  0.1011  1.1978
17746TIP3    H274730   6.465   0.969  17.244  0.2957 -0.0475  1.3460
17747TIP3   OH274731   6.317   0.996  16.476 -0.4050 -0.0639 -0.5084
17747TIP3    H174732   6.335   0.907  16.505  0.6665  0.1661 -0.4372
17747TIP3    H274733   6.393   1.021  16.424 -0.1704  1.1809  0.3655
17748TIP3   OH274734   3.648   3.786   0.008  0.4704  0.2305 -0.0627
17748TIP3    H174735   3.691   3.700   0.013  1.8407  0.9297  0.5693
17748TIP3    H274736   3.600   3.784  -0.074  1.0101 -0.9117 -0.3720
17749TIP3   OH274737   2.966   1.694   0.525  0.0404  0.6551 -0.0956
17749TIP3    H174738   2.958   1.789   0.526  2.2178  0.9027 -0.0210
17749TIP3    H274739   2.934   1.668   0.438  0.1308  1.5387 -0.4080
17750TIP3   OH274740   4.928   4.428  16.168 -0.0454  1.1055 -0.5709
17750TIP3    H174741   4.950   4.477  16.089  0.3754 -0.6212 -1.5741
17750TIP3    H274742   4.992   4.357  16.171 -2.1413 -0.9109 -0.5898
17751TIP3   OH274743   2.746   2.949   1.025  0.1650  0.2900  0.4076
17751TIP3    H174744   2.787   3.034   1.007  0.0182  0.5812  1.3850
17751TIP3    H274745   2.733   2.910   0.938  2.6915  0.0865  0.0287
17752TIP3   OH274746   0.193   3.609   3.090 -0.7337 -0.1800  0.0583
17752TIP3    H174747   0.259   3.672   3.119 -0.5507 -0.4065  0.1426
17752TIP3    H274748   0.196   3.540   3.156  0.7017 -1.4100 -1.2019
17753TIP3   OH274749   0.237   6.241  11.946 -0.5828 -0.5351 -0.3490
17753TIP3    H174750   0.220   6.335  11.939  0.8745 -0.1746  0.5959
17753TIP3    H274751   0.223   6.220  12.038  1.2724 -0.7612 -0.0863
17754TIP3   OH274752   3.565   4.628   1.228 -0.1653  0.1671 -0.3911
17754TIP3    H174753   3.495   4.678   1.186  0.5735  0.7454 -0.9540
17754TIP3    H274754   3.639   4.633   1.167  0.9761  1.1182  0.9966
17755TIP3   OH274755   3.800   2.449   0.232  0.0299  0.0013 -0.0055
17755TIP3    H174756   3.778   2.370   0.183 -0.5165  0.3337 -0.3095
17755TIP3    H274757   3.771   2.431   0.322 -0.3936 -0.0257 -0.1447
17756TIP3   OH274758   2.472   1.412   3.781 -0.0737  0.2996  0.6189
17756TIP3    H174759   2.415   1.406   3.858 -0.2234  1.0148  0.5684
17756TIP3    H274760   2.437   1.486   3.731 -0.1321 -0.3186 -0.2690
17757TIP3   OH274761   4.780   1.215  14.833  0.0932 -0.6176  0.1916
17757TIP3    H174762   4.749   1.295  14.876  0.0424 -0.2639 -0.4799
17757TIP3    H274763   4.852   1.184  14.888 -0.1672 -0.3509  0.6933
17758TIP3   OH274764   4.878   5.807   0.820  0.0139 -0.3195  0.1157
17758TIP3    H174765   4.893   5.872   0.888  1.1865  0.4163 -0.7960
17758TIP3    H274766   4.792   5.829   0.784  0.2309  0.5085  0.0774
17759TIP3   OH274767   4.763   0.999   1.420  0.7118  0.1666 -0.0409
17759TIP3    H174768   4.808   1.007   1.504 -0.1784  0.4360  0.4279
17759TIP3    H274769   4.794   1.074   1.369  0.9044  0.2655  0.2225
17760TIP3   OH274770   0.170   0.373  12.173 -0.2810  0.3014 -0.0437
17760TIP3    H174771   0.181   0.311  12.101  1.7971  1.5019 -0.8602
17760TIP3    H274772   0.222   0.336  12.245  1.3181  1.2182 -0.6711
17761TIP3   OH274773   4.818   2.849  14.604 -0.1564  0.1369  0.3136
17761TIP3    H174774   4.894   2.907  14.597 -1.9772  2.8173  0.9480
17761TIP3    H274775   4.787   2.862  14.694 -2.0343  0.0716 -0.2810
17762TIP3   OH274776   5.841   2.961   1.494 -1.2792  0.3770  0.2742
17762TIP3    H174777   5.800   2.888   1.446 -3.3184  1.1870  0.7090
17762TIP3    H274778   5.792   2.967   1.575  0.6466  0.5381  1.4886
17763TIP3   OH274779   5.899   0.414  10.514  0.1355 -0.1824 -0.0853
17763TIP3    H174780   5.830   0.406  10.447  1.0693  0.5390 -1.1742
17763TIP3    H274781   5.872   0.489  10.567  0.6458  0.8706 -1.2545
17764TIP3   OH274782   5.465   0.192  12.614 -0.2010 -0.0643  0.6231
17764TIP3    H174783   5.423   0.240  12.543  0.2505 -0.5598  0.0082
17764TIP3    H274784   5.421   0.106  12.614  1.0947 -0.7617 -0.3398
17765TIP3   OH274785   0.540   0.939  14.225 -0.4279  0.2666  0.6416
17765TIP3    H174786   0.458   0.932  14.177 -0.4315 -1.9063  0.8779
17765TIP3    H274787   0.522   0.902  14.311  0.4014  1.2565  1.2694
17766TIP3   OH274788   1.660   3.463  13.385 -0.0156 -0.6139  0.0083
17766TIP3    H174789   1.632   3.529  13.448  1.4937  0.9363 -0.8516
17766TIP3    H274790   1.753   3.449  13.405  0.0841 -1.2792 -0.8580
17767TIP3   OH274791   0.929   2.092  14.264 -0.3915 -0.0844  0.4189
17767TIP3    H174792   1.014   2.054  14.244  0.1643  1.2181  0.1496
17767TIP3    H274793   0.917   2.076  14.357  0.6817  0.6481  0.7133
17768TIP3   OH274794   2.202   6.793  11.574  0.3945 -0.1520  0.1186
17768TIP3    H174795   2.147   6.727  11.533  2.3873 -1.4930 -0.5211
17768TIP3    H274796   2.157   6.814  11.656 -1.2466 -0.8633 -0.5551
17769TIP3   OH274797   4.255   4.742   1.180  0.2020  0.0135  0.1307
17769TIP3    H174798   4.236   4.675   1.114 -1.7816 -1.7169  2.3255
17769TIP3    H274799   4.252   4.825   1.132  0.0542 -1.2522 -2.1595
17770TIP3   OH274800   0.876   5.373  13.360  0.6578  0.6695  0.1376
17770TIP3    H174801   0.937   5.442  13.385 -0.1892  0.4114  3.3115
17770TIP3    H274802   0.854   5.329  13.442 -0.0226 -2.4364 -1.5457
17771TIP3   OH274803   6.211   1.695  16.130 -0.2031  0.2872  0.1660
17771TIP3    H174804   6.304   1.676  16.134  0.2567  1.2309 -3.0760
17771TIP3    H274805   6.204   1.788  16.153  0.0732  0.8856 -1.9399
17772TIP3   OH274806   1.389   0.126   0.392  0.2805 -0.2164 -0.1096
17772TIP3    H174807   1.376   0.045   0.441  0.1466 -0.2381 -0.1811
17772TIP3    H274808   1.460   0.105   0.331  0.2843 -0.2622 -0.0899
17773TIP3   OH274809   4.118   0.818   0.769  0.0728 -0.4655  0.2184
17773TIP3    H174810   4.097   0.841   0.678  2.5753 -1.1025 -0.6282
17773TIP3    H274811   4.044   0.765   0.798 -2.4036  2.5240 -0.2034
17774TIP3   OH274812   4.853   0.872  17.098  0.4338 -0.0949 -0.3323
17774TIP3    H174813   4.865   0.783  17.132  0.2951  0.1339  0.3369
17774TIP3    H274814   4.932   0.919  17.124  0.8654 -0.2167 -1.3727
17775TIP3   OH274815   4.236   3.498  12.674  0.2677  0.1759  0.3102
17775TIP3    H174816   4.276   3.523  12.591 -0.5051  0.4720  0.0190
17775TIP3    H274817   4.181   3.423  12.653 -0.7409  0.8962  0.3436
17776TIP3   OH274818   4.095   6.344   1.178  0.3414  0.0556 -0.1309
17776TIP3    H174819   4.032   6.275   1.154  1.8287 -0.8990 -1.5483
17776TIP3    H274820   4.049   6.397   1.242 -2.0527 -0.3714 -1.3662
17777TIP3   OH274821   2.016   1.782  13.411  0.3967 -0.4875  0.4720
17777TIP3    H174822   1.987   1.757  13.499  1.0069 -0.2534  0.7419
17777TIP3    H274823   1.995   1.875  13.404  2.3516  0.0485  1.2084
17778TIP3   OH274824   4.124   1.236  15.940 -0.2425  0.1911 -0.5688
17778TIP3    H174825   4.080   1.263  15.859  0.0694  0.9709 -0.4866
17778TIP3    H274826   4.121   1.313  15.996  0.2515 -0.0934 -0.1401
17779TIP3   OH274827   5.559   4.198   1.071 -0.0820 -0.3498 -0.1890
17779TIP3    H174828   5.557   4.263   1.000  1.5261 -0.6901 -0.6026
17779TIP3    H274829   5.564   4.250   1.151  0.4574  0.0481 -0.4738
17780TIP3   OH274830   4.752   2.460   5.051  0.2571 -0.3220  0.1589
17780TIP3    H174831   4.784   2.528   4.991 -0.7290  0.2123  0.2122
17780TIP3    H274832   4.724   2.389   4.993  0.7370 -0.4522  0.0755
17781TIP3   OH274833   4.706   3.409  10.840 -0.8620 -0.2672 -0.4869
17781TIP3    H174834   4.801   3.416  10.837 -0.9387  1.2742 -0.0823
17781TIP3    H274835   4.675   3.468  10.771 -1.5202 -1.6162 -1.3923
17782TIP3   OH274836   6.158   3.780  10.382 -0.3373 -0.7890 -0.3505
17782TIP3    H174837   6.219   3.799  10.453 -0.8233 -0.7484  0.0591
17782TIP3    H274838   6.073   3.806  10.416 -0.3703  0.8382 -1.5463
17783TIP3   OH274839   2.661   5.569  16.447 -0.3285  0.1184 -0.4935
17783TIP3    H174840   2.739   5.513  16.455 -2.3606 -2.7160  1.1030
17783TIP3    H274841   2.606   5.523  16.383 -1.8120  0.5999  0.3973
17784TIP3   OH274842   5.362   1.900  10.189 -0.5350 -0.6255  0.3409
17784TIP3    H174843   5.407   1.939  10.264 -1.0424 -0.4326  0.5484
17784TIP3    H274844   5.270   1.896  10.215 -0.6983 -0.6738 -0.2218
17785TIP3   OH274845   4.993   2.784  13.958  0.6516  0.0797  0.2807
17785TIP3    H174846   5.036   2.741  14.033 -0.4072  2.2326  2.2481
17785TIP3    H274847   4.901   2.759  13.965  0.6963 -0.4959 -0.9447
17786TIP3   OH274848   2.203   3.456   2.948  0.1992  0.3344  0.2672
17786TIP3    H174849   2.280   3.502   2.916  0.6156  1.2259  2.3954
17786TIP3    H274850   2.129   3.504   2.912  0.6484  1.1148  0.3672
17787TIP3   OH274851   2.323   6.269  12.627 -0.2171  0.2494 -0.1125
17787TIP3    H174852   2.317   6.331  12.700 -0.5434  1.2613 -0.9598
17787TIP3    H274853   2.416   6.247  12.622  0.5395  3.2286 -1.7722
17788TIP3   OH274854   0.603   1.612   1.415  1.0391  0.0809 -0.1099
17788TIP3    H174855   0.631   1.529   1.453  2.1687  0.6909  0.4429
17788TIP3    H274856   0.574   1.590   1.327 -0.6570 -1.2054  0.7106
17789TIP3   OH274857   5.051   5.854   1.862  0.2618  0.0223  0.0350
17789TIP3    H174858   5.126   5.914   1.863  0.4683 -0.2213 -0.6054
17789TIP3    H274859   4.991   5.890   1.927 -0.2188  1.7177 -1.2650
17790TIP3   OH274860   3.049   4.453   1.456 -0.0615 -0.3297 -0.3873
17790TIP3    H174861   3.048   4.516   1.384 -0.0189  0.0047 -0.0969
17790TIP3    H274862   2.976   4.480   1.513  0.9514  0.4564  0.5838
17791TIP3   OH274863   3.801   3.645  12.374  0.4826 -0.0378 -0.3359
17791TIP3    H174864   3.724   3.661  12.428  0.5998  1.4554 -0.5667
17791TIP3    H274865   3.874   3.683  12.425  0.7871  0.1756 -0.9195
17792TIP3   OH274866   3.304   6.403  13.012 -0.2833  0.0315 -0.3207
17792TIP3    H174867   3.226   6.457  12.997  0.5684  0.7160 -2.5859
17792TIP3    H274868   3.354   6.451  13.078 -1.1596  0.2192  0.2269
17793TIP3   OH274869   3.767   6.612  15.427  0.3325  0.0380  0.6891
17793TIP3    H174870   3.691   6.659  15.462  1.1941  1.3830  0.8436
17793TIP3    H274871   3.843   6.660  15.461  1.2312  0.3417 -1.5582
17794TIP3   OH274872   3.424   4.845  11.908 -0.3251 -0.2752  0.6372
17794TIP3    H174873   3.334   4.823  11.932 -0.3528 -0.0608  0.7356
17794TIP3    H274874   3.415   4.919  11.847 -0.1514  1.1952  2.3064
17795TIP3   OH274875   5.416   2.386   1.898 -0.1387 -0.3859 -0.0738
17795TIP3    H174876   5.444   2.475   1.918  0.8962 -1.0189  1.6029
17795TIP3    H274877   5.327   2.394   1.866  0.2415  1.3128 -0.7871
17796TIP3   OH274878   4.290   4.189   5.372 -0.3224  0.3133  0.0805
17796TIP3    H174879   4.298   4.129   5.446  0.2997  0.0423 -0.1980
17796TIP3    H274880   4.241   4.264   5.406  0.5650  0.5127  0.9588
17797TIP3   OH274881   2.369   1.888   2.761  0.3897 -0.7898 -0.1987
17797TIP3    H174882   2.311   1.944   2.813  0.2692 -0.6154 -0.5203
17797TIP3    H274883   2.425   1.949   2.712 -0.1887 -0.9360 -1.0584
17798TIP3   OH274884   0.077   2.364  16.975 -0.1369  0.0956  0.2808
17798TIP3    H174885   0.077   2.372  16.880  0.0968  0.2810  0.2982
17798TIP3    H274886   0.166   2.389  17.002  0.3968 -1.7782  0.3953
17799TIP3   OH274887   4.079   2.764  13.037  0.1238  0.0044  0.3339
17799TIP3    H174888   4.061   2.699  13.106  0.7980 -0.1860  0.3353
17799TIP3    H274889   4.112   2.712  12.963 -0.6680  0.1976 -0.1712
17800TIP3   OH274890   0.767   5.195   2.020 -0.1076  0.1615 -0.2212
17800TIP3    H174891   0.686   5.164   1.979  1.1319 -0.9052 -1.9726
17800TIP3    H274892   0.816   5.116   2.040  1.4770  0.8244 -1.2904
17801TIP3   OH274893   0.238   1.286   0.435  0.2942  0.9218  0.4427
17801TIP3    H174894   0.333   1.273   0.432  0.1853  0.0736  0.4769
17801TIP3    H274895   0.213   1.292   0.343  0.2408  0.0281  0.3928
17802TIP3   OH274896   1.925   6.699  14.535 -0.0230 -0.5116  0.7649
17802TIP3    H174897   1.896   6.660  14.453  2.3068  1.1672 -0.9912
17802TIP3    H274898   1.850   6.749  14.566 -0.7776 -0.7529 -0.6155
17803TIP3   OH274899   0.285   6.342   4.199 -0.3293  0.0361 -0.1648
17803TIP3    H174900   0.284   6.299   4.285 -2.4576  2.0875  0.9888
17803TIP3    H274901   0.260   6.274   4.137  0.0237 -1.2247  1.0270
17804TIP3   OH274902   3.797   0.029  17.008  0.1066  0.2818 -0.2834
17804TIP3    H174903   3.887   0.018  17.040  0.2138 -0.4523 -0.8075
17804TIP3    H274904   3.779  -0.052  16.959 -0.5152  0.8048 -0.9438
17805TIP3   OH274905   0.492   4.945   6.542  0.0434 -0.1929 -0.1963
17805TIP3    H174906   0.469   4.884   6.612  0.5270  1.3431  1.3709
17805TIP3    H274907   0.425   4.931   6.475 -1.8068 -0.1229  1.5431
17806TIP3   OH274908   1.001   3.145   6.484  0.0159 -0.5063 -0.8659
17806TIP3    H174909   1.075   3.086   6.498 -0.7488 -0.7396  4.4701
17806TIP3    H274910   0.924   3.090   6.491 -0.8205  0.1466 -3.6563
17807TIP3   OH274911   6.633   2.849  15.827 -0.4326 -0.6129 -0.3399
17807TIP3    H174912   6.560   2.902  15.857 -0.9902 -1.5591  0.0284
17807TIP3    H274913   6.709   2.906  15.834 -0.8103 -0.2812  1.2979
17808TIP3   OH274914   5.426   2.258   0.936  0.3925  0.0789  0.5332
17808TIP3    H174915   5.376   2.287   1.012 -0.0901  2.8386 -0.7375
17808TIP3    H274916   5.503   2.316   0.933  0.7458 -0.4122 -0.6984
17809TIP3   OH274917   1.183   4.315   1.096  0.1220 -0.1218  0.1284
17809TIP3    H174918   1.136   4.388   1.057 -1.1445 -1.5916 -1.2034
17809TIP3    H274919   1.155   4.315   1.188  0.2080  1.0823  0.1711
17810TIP3   OH274920   2.985   2.758   2.518 -0.3870  0.4497 -0.3325
17810TIP3    H174921   2.981   2.789   2.428  1.2750 -2.2488 -1.4437
17810TIP3    H274922   2.959   2.666   2.513  0.5206  0.0096  1.8308
17811TIP3   OH274923   5.393   5.131  11.946 -0.1131  0.0451  0.1470
17811TIP3    H174924   5.422   5.190  11.876  0.5805  1.0947  1.2639
17811TIP3    H274925   5.348   5.188  12.009  2.1997 -0.1796  2.1882
17812TIP3   OH274926   3.163   3.850  13.284 -0.1852  0.6041 -0.1531
17812TIP3    H174927   3.187   3.928  13.334 -0.6125  0.8640 -0.3488
17812TIP3    H274928   3.179   3.874  13.193 -0.8562  0.6634 -0.2599
17813TIP3   OH274929   2.856   6.525   0.968  0.4339  0.0506  0.4232
17813TIP3    H174930   2.914   6.579   0.915  0.5878 -0.5671 -0.0526
17813TIP3    H274931   2.852   6.569   1.053  0.9340  0.5430  0.1953
17814TIP3   OH274932   1.313   3.563   5.252 -0.1772 -0.4874 -0.0696
17814TIP3    H174933   1.311   3.645   5.202 -0.1465  0.4430  1.4191
17814TIP3    H274934   1.290   3.588   5.341  0.8842 -1.9432  0.6513
17815TIP3   OH274935   6.633   0.143   3.637  0.5456  0.5148 -0.3253
17815TIP3    H174936   6.615   0.211   3.573 -0.3416  1.5444  0.9566
17815TIP3    H274937   6.696   0.182   3.697  0.8957 -0.2044 -0.2135
17816TIP3   OH274938   6.447   6.331  12.501  0.5110  0.4996  0.5531
17816TIP3    H174939   6.451   6.256  12.442  1.0003  1.6991 -0.9959
17816TIP3    H274940   6.459   6.407  12.444  0.1253  1.7554  2.0925
17817TIP3   OH274941   3.534   2.268  16.165 -0.2687  0.0301 -0.5832
17817TIP3    H174942   3.529   2.253  16.260  1.6185  1.4899 -0.2019
17817TIP3    H274943   3.506   2.185  16.127 -0.1958 -0.9043  1.2623
17818TIP3   OH274944   5.018   5.386   2.311 -0.4777 -0.3112 -0.6027
17818TIP3    H174945   5.110   5.412   2.303 -0.7596  1.3988  1.0072
17818TIP3    H274946   4.985   5.389   2.221  0.4898  1.3102 -0.9584
17819TIP3   OH274947   2.037   0.886   1.123  0.2230 -0.3793  0.1574
17819TIP3    H174948   2.111   0.871   1.183 -0.5608 -0.6572  1.0788
17819TIP3    H274949   1.968   0.921   1.179 -0.5757 -0.7716 -0.5657
17820TIP3   OH274950   6.401   4.556  16.294  0.2698 -0.1991  0.3837
17820TIP3    H174951   6.380   4.552  16.201 -1.5031  0.4104  0.7231
17820TIP3    H274952   6.469   4.624  16.301 -0.7027  0.8611 -0.2959
17821TIP3   OH274953   5.046   0.379  16.465 -0.1785 -0.6295 -0.1058
17821TIP3    H174954   5.030   0.473  16.459 -0.5219 -0.6815 -0.0187
17821TIP3    H274955   4.971   0.339  16.422 -0.6249 -0.8943  0.8864
17822TIP3   OH274956   0.948   1.319  12.709  0.6075  0.0235  0.2833
17822TIP3    H174957   0.917   1.328  12.619 -1.8375 -0.5643  0.9646
17822TIP3    H274958   1.011   1.390  12.721  0.3158  0.6569 -1.6261
17823TIP3   OH274959   3.878   4.708  11.173 -0.3721 -0.3466 -0.1982
17823TIP3    H174960   3.812   4.702  11.104 -0.3191  0.7840 -0.3642
17823TIP3    H274961   3.840   4.769  11.236  0.1811 -0.3038  0.0934
17824TIP3   OH274962   3.655   6.590   1.121  0.1726  0.6063  0.1285
17824TIP3    H174963   3.652   6.671   1.071  0.3413  0.2529 -0.4543
17824TIP3    H274964   3.746   6.562   1.118  0.2942  0.8661  1.0955
17825TIP3   OH274965   5.322   3.169   1.674 -0.3900 -0.1176 -0.0412
17825TIP3    H174966   5.332   3.161   1.769  2.3884  1.1015 -0.1207
17825TIP3    H274967   5.262   3.099   1.650 -0.2832 -1.1792  2.4846
17826TIP3   OH274968   1.258   2.687   2.775  0.5210 -0.1204  0.4355
17826TIP3    H174969   1.205   2.699   2.696 -3.5193 -0.4902  2.7723
17826TIP3    H274970   1.272   2.592   2.781 -1.2832 -0.3806  1.2489
17827TIP3   OH274971   0.274   5.842   1.472 -0.0705  0.0846  0.4348
17827TIP3    H174972   0.279   5.898   1.395 -1.3703 -0.8810 -0.3836
17827TIP3    H274973   0.332   5.884   1.536  1.7793  0.4188 -1.3500
17828TIP3   OH274974   5.742   3.856   4.951  0.7648  0.4245  0.1782
17828TIP3    H174975   5.702   3.820   5.030 -2.7274  1.5820 -0.9068
17828TIP3    H274976   5.722   3.792   4.883  0.9615  0.9415 -0.3682
17829TIP3   OH274977   0.425   2.911  16.779  0.5644  0.9086 -1.0426
17829TIP3    H174978   0.352   2.880  16.833 -0.9035 -0.8856 -3.8558
17829TIP3    H274979   0.424   3.006  16.791 -1.1073  0.7812  0.3168
17830TIP3   OH274980   5.179   5.236   3.175  0.5817  0.0267  0.2613
17830TIP3    H174981   5.255   5.232   3.233  0.5644 -0.0743  0.2789
17830TIP3    H274982   5.187   5.157   3.121  1.4032  0.8626 -0.8791
17831TIP3   OH274983   4.768   5.474  17.170 -0.0269  0.3812 -0.6102
17831TIP3    H174984   4.845   5.494  17.115  0.9895  0.9453  0.9406
17831TIP3    H274985   4.714   5.553  17.164  0.6149  0.8859  0.0338
17832TIP3   OH274986   5.823   5.163   5.549  0.2159  0.6087  0.3128
17832TIP3    H174987   5.780   5.248   5.542  1.0563  1.0357  0.1621
17832TIP3    H274988   5.886   5.174   5.620  0.5618  0.2218  0.0727
17833TIP3   OH274989   3.492   1.798  13.371 -0.1398  0.7413  0.3652
17833TIP3    H174990   3.406   1.759  13.387  0.0386  0.4472  0.6168
17833TIP3    H274991   3.481   1.847  13.289 -0.1120 -0.6080 -0.4764
17834TIP3   OH274992   5.103   0.050   1.623  0.3817  0.1433 -0.8801
17834TIP3    H174993   5.155   0.007   1.692  1.3364  0.8144 -1.1588
17834TIP3    H274994   5.105   0.143   1.646 -0.6830  0.1888 -0.9217
17835TIP3   OH274995   6.671   5.895   2.428 -0.1885  0.2302 -0.1399
17835TIP3    H174996   6.707   5.809   2.408  1.5476  0.9196 -0.1835
17835TIP3    H274997   6.589   5.899   2.379  0.5466 -0.7608 -1.5220
17836TIP3   OH274998   1.269   0.257   5.734  0.2754 -0.1830  0.0848
17836TIP3    H174999   1.312   0.179   5.698 -1.3996 -0.4918 -1.4054
17836TIP3    H275000   1.175   0.237   5.728 -0.2886  2.3991 -1.5612
17837TIP3   OH275001   3.575   6.365   1.843 -0.1705 -0.2975  0.5753
17837TIP3    H175002   3.639   6.401   1.782  0.4452  0.0613  1.3976
17837TIP3    H275003   3.547   6.440   1.895  0.7368 -0.8650  1.9686
17838TIP3   OH275004   2.749   6.242   2.927 -0.4719 -0.4093  0.1010
17838TIP3    H175005   2.691   6.312   2.896  0.5776  0.6898  0.5073
17838TIP3    H275006   2.721   6.226   3.017 -0.6739 -0.4517  0.0297
17839TIP3   OH275007   3.770   2.963  14.388 -0.1950 -0.3450  0.7514
17839TIP3    H175008   3.741   2.877  14.357  2.1243 -1.0659  0.4211
17839TIP3    H275009   3.779   3.015  14.308 -0.2985 -0.2125  0.8253
17840TIP3   OH275010   1.203   1.214  16.056  0.4102  0.9715 -0.1329
17840TIP3    H175011   1.283   1.266  16.055  0.5938  0.6862 -0.6828
17840TIP3    H275012   1.226   1.132  16.012 -0.3699  1.1871 -0.9943
17841TIP3   OH275013   0.531   3.513  15.306  0.6004 -0.1348  0.0945
17841TIP3    H175014   0.565   3.440  15.357  2.4238 -0.3910 -1.3576
17841TIP3    H275015   0.561   3.591  15.354 -1.0287 -0.2990  1.4423
17842TIP3   OH275016   4.189   5.380   4.491 -0.0778 -0.4292 -0.1965
17842TIP3    H175017   4.247   5.456   4.500  0.9714 -1.2708  0.3387
17842TIP3    H275018   4.117   5.412   4.436  0.3365  0.9477  0.0075
17843TIP3   OH275019   6.414   3.654   2.179 -0.4992 -0.1696 -0.0777
17843TIP3    H175020   6.397   3.560   2.183 -1.5217  0.0348  0.9819
17843TIP3    H275021   6.385   3.680   2.092  1.1585 -1.0564 -0.9472
17844TIP3   OH275022   1.423   2.724   0.790  0.3004 -0.2802  0.1079
17844TIP3    H175023   1.510   2.720   0.749 -0.2099  1.8332 -1.3261
17844TIP3    H275024   1.440   2.741   0.882  1.4215 -1.7543  0.2038
17845TIP3   OH275025   6.469   2.763   0.588 -0.3165 -0.3119  0.3194
17845TIP3    H175026   6.464   2.855   0.561 -0.2195 -0.4669 -0.2523
17845TIP3    H275027   6.490   2.716   0.507  0.5171 -0.7429  0.7761
17846TIP3   OH275028   4.246   1.418  14.222 -0.1262  0.1402 -0.2762
17846TIP3    H175029   4.181   1.408  14.152 -0.4709 -0.5773  0.1371
17846TIP3    H275030   4.250   1.513  14.238 -0.1200  0.2979 -1.1885
17847TIP3   OH275031   1.243   2.511  12.934  0.0319 -0.5085  0.1958
17847TIP3    H175032   1.279   2.530  13.020 -3.1312 -2.1584  2.0344
17847TIP3    H275033   1.206   2.594  12.904 -0.7700 -0.4069  1.4350
17848TIP3   OH275034   2.039   3.333   5.454  0.1425  1.0165 -0.3396
17848TIP3    H175035   2.107   3.400   5.461 -0.3908  1.5742 -0.3790
17848TIP3    H275036   1.972   3.360   5.517 -0.0726  0.5088 -0.3452
17849TIP3   OH275037   3.979   2.501  15.758 -0.3446  0.1218  0.3335
17849TIP3    H175038   4.000   2.549  15.678 -0.7676  0.7433  0.5887
17849TIP3    H275039   3.970   2.569  15.825 -1.4589 -0.2603  0.5880
17850TIP3   OH275040   4.040   4.407  15.778  0.5524  0.1731  0.1113
17850TIP3    H175041   4.096   4.344  15.822 -0.0240 -0.5188 -0.1402
17850TIP3    H275042   3.951   4.381  15.801  0.3061  0.8317 -0.0758
17851TIP3   OH275043   3.084   3.625   4.815 -0.4806  0.2077  0.1477
17851TIP3    H175044   3.061   3.542   4.773 -0.2215  0.5006 -0.5905
17851TIP3    H275045   3.137   3.671   4.750 -1.5402  1.4242  0.0983
17852TIP3   OH275046   0.106   4.671  15.304 -0.7749 -0.0303 -0.1785
17852TIP3    H175047   0.029   4.718  15.337 -0.9413  0.1420 -0.7955
17852TIP3    H275048   0.077   4.635  15.220  0.1374  0.9452 -0.9307
17853TIP3   OH275049   2.212   4.960   6.434  0.4150  0.8363  0.0754
17853TIP3    H175050   2.244   5.048   6.451  2.6544 -0.0374  0.7455
17853TIP3    H275051   2.288   4.913   6.400  0.6643 -2.0184  3.9434
17854TIP3   OH275052   2.137   4.211  13.517 -0.1192  0.0770 -0.4054
17854TIP3    H175053   2.170   4.279  13.575 -0.0905  0.4525 -0.8630
17854TIP3    H275054   2.158   4.129  13.562 -0.6366  0.3813  0.3995
17855TIP3   OH275055   2.611   0.498  12.958  0.0846  0.5013 -0.3429
17855TIP3    H175056   2.526   0.522  12.919  0.5534  0.9789 -1.0885
17855TIP3    H275057   2.647   0.432  12.900 -0.2493 -0.5141  0.5707
17856TIP3   OH275058   4.631   2.728  15.527 -0.7830 -0.4804 -0.2279
17856TIP3    H175059   4.563   2.760  15.587  0.4875 -2.3042  2.4111
17856TIP3    H275060   4.709   2.721  15.582  0.6610 -1.6587 -2.3045
17857TIP3   OH275061   0.661   1.918  16.209  0.0576  0.4079  0.4925
17857TIP3    H175062   0.603   1.945  16.138  0.9323 -0.5690 -0.6435
17857TIP3    H275063   0.681   1.826  16.190  0.0880  0.0353  2.1752
17858TIP3   OH275064   4.290   5.523   5.695  0.3656  0.3388  0.5444
17858TIP3    H175065   4.370   5.515   5.643  1.3963 -1.7104  2.2522
17858TIP3    H275066   4.220   5.498   5.635  1.7121 -4.1243  0.4525
17859TIP3   OH275067   0.232   6.763   4.393 -0.0849 -0.2080  0.7720
17859TIP3    H175068   0.153   6.817   4.387  0.2028  0.2349  0.9494
17859TIP3    H275069   0.274   6.791   4.474  0.6209  0.0577  0.3221
17860TIP3   OH275070   0.073   5.007   1.766 -0.1244 -0.2589  0.2288
17860TIP3    H175071   0.068   4.951   1.688 -0.5255  0.7127 -0.4594
17860TIP3    H275072  -0.004   5.062   1.760  1.0657  1.4519  0.0334
17861TIP3   OH275073   3.322   1.366  14.332 -0.0385 -0.2737  0.3025
17861TIP3    H175074   3.365   1.318  14.403  2.1186  0.1997 -0.5991
17861TIP3    H275075   3.367   1.336  14.252 -1.6209  0.0468 -0.7451
17862TIP3   OH275076   0.791   6.357  13.053 -0.6064  0.8990  0.3380
17862TIP3    H175077   0.707   6.379  13.094 -1.0803 -2.8706  1.8058
17862TIP3    H275078   0.774   6.362  12.959 -3.4827 -2.3170  0.4953
17863TIP3   OH275079   6.692   1.905   3.790  0.0233  0.4238 -0.4608
17863TIP3    H175080   6.695   1.938   3.701 -0.4424  0.0454 -0.6237
17863TIP3    H275081   6.621   1.840   3.789 -0.1424  0.5853  0.2394
17864TIP3   OH275082   4.572   0.099   3.364  0.2511  0.4543  0.4318
17864TIP3    H175083   4.545   0.025   3.310 -3.7608  1.1126  1.2242
17864TIP3    H275084   4.630   0.149   3.308 -0.0085 -1.2830 -1.5321
17865TIP3   OH275085   6.003   2.213  15.499 -0.3890 -0.1108 -0.1377
17865TIP3    H175086   5.925   2.191  15.550 -0.1681 -1.3945 -0.3181
17865TIP3    H275087   5.997   2.307  15.485 -1.7783 -0.1468  0.0754
17866TIP3   OH275088   3.563   3.819   2.202  0.4763  0.1234 -0.0268
17866TIP3    H175089   3.649   3.778   2.193 -0.2069 -1.3774  0.0748
17866TIP3    H275090   3.500   3.747   2.192 -0.7758  1.2030 -0.1825
17867TIP3   OH275091   5.585   3.321   5.346  0.2312 -0.1524  0.1540
17867TIP3    H175092   5.538   3.299   5.426 -1.4190  0.5145 -0.5958
17867TIP3    H275093   5.592   3.417   5.347  1.1488 -0.2046  0.0013
17868TIP3   OH275094   5.866   2.740  16.757 -0.1296 -0.4378  0.5518
17868TIP3    H175095   5.938   2.772  16.703 -2.2670  0.4509 -1.9959
17868TIP3    H275096   5.806   2.815  16.764 -1.0456 -1.2653  2.2025
17869TIP3   OH275097   2.590   3.307   1.181  0.2359  0.5730 -0.6083
17869TIP3    H175098   2.614   3.399   1.173  0.5399  0.4490 -1.1795
17869TIP3    H275099   2.668   3.264   1.216  0.5960  0.3028 -1.7064
17870TIP3   OH275100   0.161   4.787   2.415  0.5835 -0.1365 -0.4152
17870TIP3    H175101   0.082   4.783   2.360  0.5786  1.8491 -0.6173
17870TIP3    H275102   0.133   4.835   2.493  1.6932  1.0005 -0.6947
17871TIP3   OH275103   1.039   1.754   6.519  0.4149 -0.1350  0.0011
17871TIP3    H175104   0.982   1.829   6.499 -0.0592 -0.1085  1.3851
17871TIP3    H275105   1.127   1.785   6.496  0.1795  0.6984  0.1665
17872TIP3   OH275106   5.251   3.205   4.096  0.0366 -0.3156 -0.5290
17872TIP3    H175107   5.180   3.170   4.150  0.1346 -1.2251 -0.9704
17872TIP3    H275108   5.331   3.176   4.138  0.1121 -1.9486 -1.7016
17873TIP3   OH275109   5.136   1.512  12.664 -0.3118  1.2199 -0.1049
17873TIP3    H175110   5.186   1.514  12.746 -0.4999 -0.3153  0.0711
17873TIP3    H275111   5.203   1.518  12.596  0.1540 -0.5194  0.1374
17874TIP3   OH275112   1.827   0.519   1.588  0.3639 -0.2095 -0.2728
17874TIP3    H175113   1.854   0.513   1.496  1.2359  0.7144 -0.0883
17874TIP3    H275114   1.907   0.543   1.635 -0.0948 -0.5985  0.7253
17875TIP3   OH275115   3.533   5.313  14.131 -0.4924  0.2557 -0.6867
17875TIP3    H175116   3.493   5.338  14.215 -1.7517 -0.1678 -1.1311
17875TIP3    H275117   3.619   5.279  14.155 -0.0270  1.9506  0.2324
17876TIP3   OH275118   0.830   2.846  12.529 -0.0054 -0.3060 -0.3341
17876TIP3    H175119   0.846   2.888  12.445 -0.4939  1.1481  0.2613
17876TIP3    H275120   0.734   2.845  12.537  0.0433  0.3764  0.5602
17877TIP3   OH275121   2.164   5.367  16.120  0.2530 -0.1739 -0.1080
17877TIP3    H175122   2.178   5.384  16.213  0.3828  0.1540 -0.1888
17877TIP3    H275123   2.080   5.409  16.101  1.9417  3.1268 -1.0085
17878TIP3   OH275124   4.499   2.339  12.818  0.7907  0.0370  0.1960
17878TIP3    H175125   4.418   2.329  12.868  0.2833  0.2399 -0.5587
17878TIP3    H275126   4.532   2.250  12.807 -1.9842 -0.8193 -3.7132
17879TIP3   OH275127   4.601   6.713  11.359  0.1956  0.2496  0.6238
17879TIP3    H175128   4.607   6.674  11.446  5.1183  0.4732  0.6388
17879TIP3    H275129   4.635   6.802  11.369  1.3725  0.1277 -1.5786
17880TIP3   OH275130   3.997   5.922   1.006  0.2049 -0.2623  0.4059
17880TIP3    H175131   4.001   6.010   0.968  2.1490 -0.8825 -0.9673
17880TIP3    H275132   4.012   5.863   0.932 -0.8112 -1.7763  1.3374
17881TIP3   OH275133   2.234   2.040  14.776 -0.6248 -0.0768 -0.2102
17881TIP3    H175134   2.282   2.085  14.706 -0.7761 -0.7781 -0.7715
17881TIP3    H275135   2.241   2.100  14.851  1.9605 -0.5552  0.0462
17882TIP3   OH275136   2.677   6.674  12.672  0.1843 -0.0957  0.0694
17882TIP3    H175137   2.698   6.749  12.727 -0.0426  0.3350 -0.4154
17882TIP3    H275138   2.660   6.602  12.733  0.1525  0.3144  0.5436
17883TIP3   OH275139   1.414   4.856   1.912 -0.5347 -0.2589 -0.5071
17883TIP3    H175140   1.488   4.864   1.972 -0.4677  0.4816 -0.6776
17883TIP3    H275141   1.337   4.877   1.966 -0.6623 -1.2407 -0.2749
17884TIP3   OH275142   2.457   4.818   0.136 -0.1963  0.7695  0.0894
17884TIP3    H175143   2.455   4.727   0.166  0.4446  0.9078  0.5782
17884TIP3    H275144   2.385   4.860   0.182  0.4397  0.8519  1.0398
17885TIP3   OH275145   3.046   0.782  13.624  0.9162  0.1218  0.1964
17885TIP3    H175146   3.038   0.763  13.717  0.1291 -2.8285 -0.3743
17885TIP3    H275147   3.140   0.774  13.605  0.7711 -2.4498  0.2388
17886TIP3   OH275148   0.357   0.396  10.431 -0.1011 -0.7665 -0.6344
17886TIP3    H175149   0.262   0.389  10.427 -0.1435 -0.1918 -0.7596
17886TIP3    H275150   0.388   0.306  10.426 -0.6975 -1.1224  1.2882
17887TIP3   OH275151   2.019   4.234  14.456  0.2520 -0.1286  0.1095
17887TIP3    H175152   2.049   4.318  14.420 -0.6345 -0.0480 -0.4734
17887TIP3    H275153   2.097   4.178  14.454  1.3119  1.1552  2.0749
17888TIP3   OH275154   2.721   2.747   5.572  0.4049 -0.0490  0.5630
17888TIP3    H175155   2.678   2.781   5.494  0.1788 -2.9199 -0.7214
17888TIP3    H275156   2.733   2.823   5.629 -1.2570  1.8082 -1.3966
17889TIP3   OH275157   0.649   3.518  14.175 -0.2050  0.2161  0.0256
17889TIP3    H175158   0.729   3.557  14.209  0.0627 -0.9598  0.8114
17889TIP3    H275159   0.584   3.588  14.179  0.5016  0.8499  0.4675
17890TIP3   OH275160   6.018   1.117   3.207 -0.8136  0.0745 -0.1282
17890TIP3    H175161   6.059   1.097   3.292  2.2006  1.3376 -1.1557
17890TIP3    H275162   5.958   1.190   3.226 -1.6664 -0.9208  1.2024
17891TIP3   OH275163   0.535   3.735  12.181  0.7333  0.1037 -0.3532
17891TIP3    H175164   0.452   3.713  12.140  0.6102  0.2072 -0.1643
17891TIP3    H275165   0.546   3.829  12.166 -0.1018  0.4883  1.2160
17892TIP3   OH275166   1.574   6.236  11.392  0.6886 -0.3329  0.5041
17892TIP3    H175167   1.631   6.160  11.407  0.1276 -0.7045  0.8075
17892TIP3    H275168   1.617   6.285  11.322  1.8756 -0.1064  1.3522
17893TIP3   OH275169   4.309   6.256   1.041 -0.6122 -0.1641 -0.0293
17893TIP3    H175170   4.219   6.287   1.033 -0.2948  0.7274 -0.1917
17893TIP3    H275171   4.356   6.327   1.085  0.3812  0.0845 -1.4210
17894TIP3   OH275172   6.040   5.963   3.714 -0.2500 -0.1450 -0.0227
17894TIP3    H175173   5.995   6.010   3.785 -1.6491  0.6719 -1.3782
17894TIP3    H275174   6.027   5.871   3.734 -0.3271  0.0748  0.9688
17895TIP3   OH275175   4.002   6.122   5.368  0.0384 -0.2602 -0.2937
17895TIP3    H175176   3.919   6.163   5.394 -0.1557 -0.9873  0.2787
17895TIP3    H275177   3.994   6.109   5.274 -0.2143  0.3087 -0.3511
17896TIP3   OH275178   3.890   1.173  16.491  0.3864 -0.1143 -0.6423
17896TIP3    H175179   3.862   1.095  16.442 -0.9216  0.4474 -0.8239
17896TIP3    H275180   3.841   1.167  16.573  0.2135  0.5490 -0.6954
17897TIP3   OH275181   4.121   1.398   4.432  0.4198 -0.4543 -0.2050
17897TIP3    H175182   4.139   1.491   4.418  0.9160 -0.1390  2.0777
17897TIP3    H275183   4.118   1.388   4.528 -1.1489 -2.5160 -0.3904
17898TIP3   OH275184   6.446   2.036  12.712 -0.1791 -0.1581  0.0457
17898TIP3    H175185   6.517   2.101  12.716 -1.9866  1.8854  2.9168
17898TIP3    H275186   6.404   2.051  12.627  1.2215  0.3396 -0.5929
17899TIP3   OH275187   3.809   2.662  14.940  0.5711 -0.4354 -0.4710
17899TIP3    H175188   3.779   2.695  15.024  1.1781  1.0390 -0.7987
17899TIP3    H275189   3.881   2.603  14.962  1.9708  1.3579  0.0110
17900TIP3   OH275190   4.814   3.511  11.628 -0.1788  0.0316  0.4578
17900TIP3    H175191   4.898   3.555  11.613  0.2583 -1.0746 -0.4750
17900TIP3    H275192   4.748   3.575  11.599  0.3312  0.9029  1.1867
17901TIP3   OH275193   5.198   2.436  16.540  0.2082 -0.1091 -0.7169
17901TIP3    H175194   5.146   2.435  16.459  0.4837  1.1974 -0.9328
17901TIP3    H275195   5.159   2.506  16.593 -0.1826 -1.1737  0.4475
17902TIP3   OH275196   2.018   6.163   0.463  0.1549  0.2373  0.2703
17902TIP3    H175197   1.946   6.100   0.466  0.0268  0.3379 -0.4873
17902TIP3    H275198   2.090   6.120   0.509 -0.3313  0.0635  0.8825
17903TIP3   OH275199   0.321   0.942   0.822 -0.6249  0.0933  0.1851
17903TIP3    H175200   0.282   0.904   0.900 -3.4859 -0.9141 -1.5911
17903TIP3    H275201   0.374   0.872   0.785 -0.1156  0.2263  0.6550
17904TIP3   OH275202   2.231   3.223   2.301 -0.0938  0.3416  0.3552
17904TIP3    H175203   2.313   3.174   2.310 -0.2200 -0.0901 -0.6992
17904TIP3    H275204   2.244   3.278   2.224  0.1031  2.1172  1.6071
17905TIP3   OH275205   2.266   0.749  16.000 -0.7574 -0.1161  0.0355
17905TIP3    H175206   2.314   0.828  16.026  0.0286 -0.8464  0.8945
17905TIP3    H275207   2.185   0.752  16.051 -1.6185  1.0596 -1.3251
17906TIP3   OH275208   1.273   4.201   4.700 -0.1624  0.2073  0.2855
17906TIP3    H175209   1.182   4.197   4.670  0.2027 -0.6038 -0.7812
17906TIP3    H275210   1.298   4.293   4.689 -1.1171  0.6423  1.4789
17907TIP3   OH275211   5.616   3.163  15.561 -0.1235  0.1238  0.6112
17907TIP3    H175212   5.692   3.105  15.569  1.1299  1.6139  0.2418
17907TIP3    H275213   5.548   3.109  15.522  0.1951 -1.7018  2.4405
17908TIP3   OH275214   0.922   3.243   1.796 -0.1545 -0.1424 -0.3481
17908TIP3    H175215   0.840   3.194   1.808 -0.4738 -0.0664 -2.0765
17908TIP3    H275216   0.895   3.335   1.800 -0.1702 -0.1177 -0.9847
17909TIP3   OH275217   0.574   2.880   3.489 -0.2140  0.2499  0.0369
17909TIP3    H175218   0.616   2.874   3.575 -0.4470 -0.5212  0.1014
17909TIP3    H275219   0.483   2.903   3.509 -0.1550  0.5591 -0.0368
17910TIP3   OH275220   0.817   3.721   6.545  0.1011  0.5722  0.0560
17910TIP3    H175221   0.782   3.781   6.612 -0.2298  0.5613 -0.1072
17910TIP3    H275222   0.818   3.635   6.588  1.6418  0.8677  0.6829
17911TIP3   OH275223   3.674   3.389   2.389  0.5205  0.4262 -0.1982
17911TIP3    H175224   3.708   3.457   2.330  0.5581 -0.7134 -1.5522
17911TIP3    H275225   3.593   3.360   2.346  1.8586 -2.2131 -1.1173
17912TIP3   OH275226   1.744   0.451  10.998  0.4710  0.4667 -0.1108
17912TIP3    H175227   1.700   0.418  11.077 -0.4526 -0.0605 -0.8258
17912TIP3    H275228   1.674   0.490  10.946  1.4298  3.1780  0.4553
17913TIP3   OH275229   4.539   5.762  15.716 -0.3779  0.5199 -0.1572
17913TIP3    H175230   4.457   5.725  15.683 -0.6780  0.5595  0.5251
17913TIP3    H275231   4.540   5.852  15.682  0.4903 -0.1479 -2.0538
17914TIP3   OH275232   6.498   6.019  15.689 -0.1035  0.1891  0.0334
17914TIP3    H175233   6.478   5.934  15.728 -0.2085  0.3947  0.4334
17914TIP3    H275234   6.592   6.018  15.674 -0.1905 -0.2203 -0.4988
17915TIP3   OH275235   2.051   2.978  16.548 -0.4564  0.6798  0.5721
17915TIP3    H175236   1.978   3.018  16.596 -1.0197 -0.1873  0.4673
17915TIP3    H275237   2.011   2.947  16.467 -0.1379 -0.4601  0.8372
17916TIP3   OH275238   5.074   6.039  11.691  0.3787 -0.1858 -0.4632
17916TIP3    H175239   5.086   6.124  11.650 -0.4072  0.4954  0.6562
17916TIP3    H275240   5.013   5.992  11.634  1.0283 -0.1164 -1.2254
17917TIP3   OH275241   0.274   6.588   6.464  0.1916 -0.3634  0.4037
17917TIP3    H175242   0.308   6.625   6.546 -1.3689 -1.3030  1.5276
17917TIP3    H275243   0.351   6.585   6.406  1.2833  0.5657  1.7176
17918TIP3   OH275244   4.146   1.980  15.158  0.1307  0.1193  0.0230
17918TIP3    H175245   4.190   2.050  15.207  0.3905 -0.4749  0.6559
17918TIP3    H275246   4.211   1.909  15.155 -0.4005 -0.3676  0.0372
17919TIP3   OH275247   3.082   1.034   5.192 -1.5160 -0.9307  0.3698
17919TIP3    H175248   3.168   1.061   5.160 -2.8140  1.0639 -1.7565
17919TIP3    H275249   3.083   1.056   5.286 -0.0864  0.1347  0.1361
17920TIP3   OH275250   2.999   0.021   5.474  0.5772 -0.5748 -0.0776
17920TIP3    H175251   2.945  -0.058   5.472 -0.4593  0.1073  0.2002
17920TIP3    H275252   2.953   0.080   5.534  2.2930 -0.4214  1.1630
17921TIP3   OH275253   2.848   6.767   2.499  0.4016  0.0769  0.2715
17921TIP3    H175254   2.775   6.731   2.449  1.0959 -0.5690 -0.3053
17921TIP3    H275255   2.864   6.852   2.459  0.9272 -0.4197 -0.6073
17922TIP3   OH275256   5.054   4.539   4.739  0.2255 -0.3145 -0.1919
17922TIP3    H175257   5.104   4.595   4.680 -1.4954 -0.1620 -1.5646
17922TIP3    H275258   5.041   4.458   4.690  1.1981 -1.3029  1.1082
17923TIP3   OH275259   3.169   5.824  13.534  0.1992  0.0443  0.5558
17923TIP3    H175260   3.243   5.839  13.592  2.2313 -0.7314 -1.6731
17923TIP3    H275261   3.187   5.877  13.457 -2.3346  0.9358  0.4940
17924TIP3   OH275262   2.076   2.717  15.137 -0.1131 -0.4903  0.1490
17924TIP3    H175263   2.062   2.663  15.214  0.3451 -2.2127 -0.9239
17924TIP3    H275264   1.996   2.706  15.084 -0.4411  0.6999  0.3601
17925TIP3   OH275265   5.600   2.739  14.260  0.0338 -0.5399  0.5579
17925TIP3    H175266   5.694   2.732  14.245 -0.2854  0.8221 -3.1584
17925TIP3    H275267   5.579   2.830  14.238 -2.0919 -0.6197  1.9538
17926TIP3   OH275268   5.050   2.074   4.141  0.7483  0.2602 -0.4683
17926TIP3    H175269   5.003   2.035   4.067 -0.0279 -1.0546  0.6837
17926TIP3    H275270   5.038   2.168   4.129 -1.3108 -0.0043 -0.7838
17927TIP3   OH275271   4.618   3.593   5.738  0.1983  0.3420 -0.2700
17927TIP3    H175272   4.608   3.524   5.804  1.5895 -0.3215 -0.7296
17927TIP3    H275273   4.529   3.607   5.705 -0.1532 -1.0145  0.0458
17928TIP3   OH275274   4.875   1.621  12.733  0.0870 -0.2983  0.0799
17928TIP3    H175275   4.944   1.557  12.719 -0.2021 -0.2805 -1.6387
17928TIP3    H275276   4.795   1.577  12.705 -0.2115  0.5692 -0.4859
17929TIP3   OH275277   4.881   6.545  15.859  0.4237 -0.1222  0.1873
17929TIP3    H175278   4.825   6.468  15.846  1.9931 -1.9182  3.0117
17929TIP3    H275279   4.964   6.521  15.818  0.5389  0.6197 -0.0150
17930TIP3   OH275280   6.197   4.481  15.466  0.3970 -0.0813 -0.2974
17930TIP3    H175281   6.245   4.509  15.544 -2.5682 -0.1353  1.7291
17930TIP3    H275282   6.191   4.559  15.412 -1.7125  1.5211  1.9749
17931TIP3   OH275283   3.835   3.217   4.601  0.6150 -0.2745 -0.2204
17931TIP3    H175284   3.824   3.276   4.676 -1.5515 -0.1171 -0.5950
17931TIP3    H275285   3.842   3.130   4.639  1.2882 -0.0390  0.2192
17932TIP3   OH275286   2.188   5.337   0.033  0.0542  0.1958  0.5527
17932TIP3    H175287   2.228   5.373   0.111  1.6506  1.0795 -0.6115
17932TIP3    H275288   2.194   5.242   0.043  1.0977  0.3137  1.0832
17933TIP3   OH275289   4.389   4.694   2.417 -0.0762 -0.2425  0.0795
17933TIP3    H175290   4.407   4.630   2.485 -0.9243 -0.7632 -0.1670
17933TIP3    H275291   4.445   4.769   2.438  1.2901 -1.2399  0.1096
17934TIP3   OH275292   5.476   3.607   1.296 -0.1478  0.2003 -0.2186
17934TIP3    H175293   5.452   3.649   1.213  1.9200 -0.9762 -1.4882
17934TIP3    H275294   5.562   3.643   1.317 -0.7705  0.7063  1.6262
17935TIP3   OH275295   4.417   6.435  13.847  0.5638 -0.2860  0.1740
17935TIP3    H175296   4.403   6.485  13.928  1.3402  0.0478  0.1049
17935TIP3    H275297   4.328   6.417  13.815  0.2491 -0.2447  0.9884
17936TIP3   OH275298   0.565   1.671   5.389 -0.6956  0.3689 -0.0564
17936TIP3    H175299   0.585   1.580   5.367 -2.0056  0.2805 -0.9890
17936TIP3    H275300   0.554   1.672   5.484 -1.3894 -0.5993 -0.1207
17937TIP3   OH275301   0.773   1.577  15.351  0.3609  0.3428  0.3552
17937TIP3    H175302   0.848   1.520  15.334  0.4664  0.2603  1.0468
17937TIP3    H275303   0.784   1.650  15.290  1.5659  0.8288  1.0968
17938TIP3   OH275304   6.580   3.124   4.227  0.0173 -0.1832  0.2675
17938TIP3    H175305   6.605   3.210   4.194 -1.2172  0.6024  1.2814
17938TIP3    H275306   6.625   3.062   4.170  1.9873  1.1196  0.3343
17939TIP3   OH275307   0.917   1.423   6.077  0.2570  0.2493  0.4351
17939TIP3    H175308   0.997   1.389   6.117 -0.1639 -0.6641  0.5442
17939TIP3    H275309   0.847   1.392   6.134 -0.3207 -0.6585 -0.7116
17940TIP3   OH275310   2.280   4.656   1.334 -0.2871 -0.6625 -0.6342
17940TIP3    H175311   2.216   4.607   1.386 -0.3324  1.0905  1.0672
17940TIP3    H275312   2.234   4.737   1.310  1.0287  0.2948 -0.0081
17941TIP3   OH275313   5.778   3.837   2.688 -0.3812 -0.0215 -0.1865
17941TIP3    H175314   5.864   3.833   2.729  0.3988 -0.6525 -1.8272
17941TIP3    H275315   5.753   3.930   2.695  0.6836  0.2781 -0.1975
17942TIP3   OH275316   5.359   4.815  16.940  0.1681  0.6482 -0.1224
17942TIP3    H175317   5.280   4.829  16.992 -0.1620  0.5769 -0.5980
17942TIP3    H275318   5.411   4.754  16.992 -0.4363  0.0912 -0.1642
17943TIP3   OH275319   3.945   3.380   3.961 -0.8699 -0.1441  0.0307
17943TIP3    H175320   3.885   3.391   4.034 -1.9609 -0.6219 -0.7741
17943TIP3    H275321   3.967   3.470   3.935  1.1905  0.1038  2.1968
17944TIP3   OH275322   0.840   5.797  13.472 -0.3548  0.6432  0.1841
17944TIP3    H175323   0.889   5.737  13.528  0.0078 -0.1982 -0.9817
17944TIP3    H275324   0.899   5.814  13.399 -0.9638  1.3895 -0.1475
17945TIP3   OH275325   0.161   0.728  11.116 -0.2105  0.8890  0.2687
17945TIP3    H175326   0.155   0.773  11.032  4.1566  1.1212 -0.1081
17945TIP3    H275327   0.148   0.797  11.181 -0.8189  1.2344 -0.2059
17946TIP3   OH275328   4.773   3.493  13.666  0.0047  0.1092 -0.4428
17946TIP3    H175329   4.854   3.452  13.638 -0.1204 -0.0201 -0.6181
17946TIP3    H275330   4.719   3.421  13.698 -1.1703 -0.2477 -2.9947
17947TIP3   OH275331   4.775   6.429   6.882  0.8421 -0.6446  0.2245
17947TIP3    H175332   4.790   6.496   6.949  0.2481  1.5814 -1.7230
17947TIP3    H275333   4.853   6.431   6.827  0.1350 -0.3460 -0.8013
17948TIP3   OH275334   4.382   0.249   2.348 -0.0880  0.6437  0.0891
17948TIP3    H175335   4.428   0.238   2.265 -1.6492 -1.7948 -0.5424
17948TIP3    H275336   4.309   0.308   2.327 -0.0114  0.6824 -0.0699
17949TIP3   OH275337   0.874   2.588  16.180 -0.1843 -0.1905 -0.1868
17949TIP3    H175338   0.928   2.512  16.200  2.3282  1.5628  0.0586
17949TIP3    H275339   0.793   2.573  16.229 -0.8577 -3.8094 -2.0375
17950TIP3   OH275340   4.327   2.696  15.340 -1.1510  0.3614 -0.2079
17950TIP3    H175341   4.412   2.719  15.302 -1.0779  2.5870  1.1446
17950TIP3    H275342   4.264   2.713  15.270 -0.5978 -0.6408 -0.9918
17951TIP3   OH275343   0.769   0.162  15.574 -0.6307 -0.1539 -0.0116
17951TIP3    H175344   0.835   0.112  15.526  0.7054  1.8340 -0.3480
17951TIP3    H275345   0.733   0.223  15.509 -0.2804  1.1647  0.9951
17952TIP3   OH275346   2.006   0.154  12.121 -0.3406 -0.2324 -0.0692
17952TIP3    H175347   2.003   0.060  12.103  1.4686 -0.2045 -0.8153
17952TIP3    H275348   1.941   0.192  12.062 -1.8633 -1.0825  1.0037
17953TIP3   OH275349   0.367   3.145   0.562  0.4888 -0.1578 -0.6637
17953TIP3    H175350   0.313   3.187   0.629  0.2001 -0.2468 -0.8394
17953TIP3    H275351   0.413   3.075   0.608  0.6190  0.0514 -0.4697
17954TIP3   OH275352   2.731   0.610   6.594 -0.2884  0.1215  0.5388
17954TIP3    H175353   2.780   0.543   6.642  0.9059  0.9572  0.5434
17954TIP3    H275354   2.648   0.617   6.641  0.0762 -0.4505  1.3015
17955TIP3   OH275355   5.857   5.292  12.269  0.5604  0.3512  0.8541
17955TIP3    H175356   5.802   5.228  12.223  1.6087  0.6991 -0.9967
17955TIP3    H275357   5.798   5.366  12.285 -0.1687 -0.3055  1.2722
17956TIP3   OH275358   3.337   4.774   2.467  0.0672  0.1438 -0.3177
17956TIP3    H175359   3.415   4.793   2.519  0.3773 -1.4410 -0.1484
17956TIP3    H275360   3.276   4.845   2.489  1.5925  1.6769 -0.8247
17957TIP3   OH275361   3.613   5.860  14.421 -0.3978  0.2450  0.0154
17957TIP3    H175362   3.588   5.768  14.418 -0.2186  0.1659  0.7364
17957TIP3    H275363   3.569   5.894  14.498 -2.6779  1.4501 -1.6898
17958TIP3   OH275364   1.210   1.255  11.863 -0.1355  0.1868  0.6113
17958TIP3    H175365   1.131   1.275  11.913  0.0648  2.1708  0.1825
17958TIP3    H275366   1.282   1.291  11.914  0.2719  0.4363 -0.1230
17959TIP3   OH275367   1.251   5.277   4.818 -0.7706  0.2252 -0.1936
17959TIP3    H175368   1.234   5.200   4.872 -0.9148 -0.3426 -1.0298
17959TIP3    H275369   1.327   5.253   4.764 -0.6314  0.7741 -0.2540
17960TIP3   OH275370   5.354   3.637   6.281  0.2116  0.3339 -0.3159
17960TIP3    H175371   5.346   3.668   6.371 -1.2457  0.5311 -0.4768
17960TIP3    H275372   5.447   3.639   6.262  0.4129  1.6958  0.6991
17961TIP3   OH275373   5.616   3.060  12.536  0.3679  0.4766  0.3261
17961TIP3    H175374   5.558   3.083  12.609 -0.5756  0.1181 -0.3022
17961TIP3    H275375   5.557   3.035  12.465  1.2670  1.1535 -0.6869
17962TIP3   OH275376   2.109   0.202   3.684 -0.4468  0.2414 -0.4652
17962TIP3    H175377   2.153   0.125   3.647 -1.1982  0.2580 -1.4617
17962TIP3    H275378   2.125   0.272   3.620  1.0749  1.2228  0.9142
17963TIP3   OH275379   5.109   4.292  15.168  0.5681  0.1279  0.2909
17963TIP3    H175380   5.153   4.356  15.112 -2.0096  0.8220 -1.0971
17963TIP3    H275381   5.070   4.229  15.108  0.1567 -0.7876  1.4693
17964TIP3   OH275382   2.647   3.051   1.594 -0.4126  0.0987 -0.2266
17964TIP3    H175383   2.680   3.037   1.506 -0.0608  1.8134 -0.3940
17964TIP3    H275384   2.612   3.140   1.593 -0.5328  0.0975  1.3295
17965TIP3   OH275385   3.610   5.910   0.111 -0.5676 -0.1550 -0.1737
17965TIP3    H175386   3.676   5.973   0.141 -0.4577 -1.2080  2.0113
17965TIP3    H275387   3.550   5.962   0.058  1.8028  0.9113 -2.0385
17966TIP3   OH275388   2.715   5.769   1.658 -0.0229  0.4927 -0.2030
17966TIP3    H175389   2.638   5.820   1.635 -0.4510 -0.2367 -0.4214
17966TIP3    H275390   2.782   5.834   1.679 -0.7627  1.1268  0.2076
17967TIP3   OH275391   4.812   1.777  10.211 -0.3866 -0.5116  0.4593
17967TIP3    H175392   4.735   1.723  10.195  0.4151 -1.5287  0.0091
17967TIP3    H275393   4.782   1.867  10.194 -1.1489 -1.0077 -0.8857
17968TIP3   OH275394   0.977   4.501  12.989 -0.0998  0.5449 -0.1159
17968TIP3    H175395   0.927   4.511  12.908 -0.5132 -0.8916 -0.0750
17968TIP3    H275396   0.911   4.480  13.055  0.3987  0.0719  0.2427
17969TIP3   OH275397   3.373   5.267   2.692  0.1614  0.2032 -0.3253
17969TIP3    H175398   3.383   5.186   2.741 -0.6144  0.1093 -0.3100
17969TIP3    H275399   3.279   5.285   2.694  0.2028  0.5763 -1.1669
17970TIP3   OH275400   4.040   1.768   0.848  0.0210  0.1154 -0.4923
17970TIP3    H175401   4.127   1.808   0.856 -0.5918  1.6427 -1.0694
17970TIP3    H275402   4.057   1.674   0.848  1.6382  0.3743 -0.2271
17971TIP3   OH275403   5.516   3.826   6.120 -0.2767  0.7530 -0.5652
17971TIP3    H175404   5.565   3.880   6.182  1.7956 -1.5781  0.0236
17971TIP3    H275405   5.578   3.809   6.049 -0.5739 -1.3262 -0.3893
17972TIP3   OH275406   0.659   4.051  15.590  0.1013 -0.3897  0.8913
17972TIP3    H175407   0.665   4.146  15.601 -1.0629 -0.4403  2.2401
17972TIP3    H275408   0.568   4.036  15.566  0.4330 -1.1295  0.0708
17973TIP3   OH275409   4.908   3.744  16.146  0.1018 -0.4334  0.2768
17973TIP3    H175410   4.889   3.755  16.239 -0.6014  0.4792  0.0354
17973TIP3    H275411   4.827   3.709  16.109  0.7710 -1.9723  0.2014
17974TIP3   OH275412   2.866   1.958   0.535 -0.0528 -0.0917 -0.9828
17974TIP3    H175413   2.795   1.958   0.599 -0.0175 -1.5374 -0.9193
17974TIP3    H275414   2.822   1.960   0.450 -0.2049 -1.5144 -0.9539
17975TIP3   OH275415   2.392   4.525  16.826 -0.7946  0.6687 -0.3567
17975TIP3    H175416   2.448   4.587  16.872  1.7735 -1.6807 -0.0821
17975TIP3    H275417   2.375   4.455  16.889 -1.1760 -0.3281 -1.5155
17976TIP3   OH275418   3.002   6.496  15.965 -0.0165 -0.1060  0.3400
17976TIP3    H175419   3.014   6.419  15.910 -2.1767 -0.4787  0.2990
17976TIP3    H275420   2.965   6.463  16.046  0.7822  0.7189  1.0661
17977TIP3   OH275421   3.042   3.503   4.238 -0.0015  0.0505 -0.8316
17977TIP3    H175422   3.126   3.504   4.284 -0.5574 -1.2365  0.2646
17977TIP3    H275423   3.017   3.595   4.232  1.1128  0.3941 -0.4946
17978TIP3   OH275424   4.629   3.990  11.599 -0.2201  0.2457  0.2447
17978TIP3    H175425   4.689   3.978  11.672 -0.6624 -1.8713  0.3279
17978TIP3    H275426   4.663   4.067  11.553  0.7294  0.9453  1.9989
17979TIP3   OH275427   1.553   4.529  14.728  0.0233  0.7140  0.1788
17979TIP3    H175428   1.516   4.613  14.702 -0.2967  0.5468  0.0898
17979TIP3    H275429   1.583   4.490  14.645  0.4648  0.8769  0.2582
17980TIP3   OH275430   4.184   1.212   2.982 -0.1954 -0.7088 -0.4426
17980TIP3    H175431   4.156   1.299   2.955  0.7897  0.3649  1.7596
17980TIP3    H275432   4.114   1.182   3.042  0.6499 -0.3137  0.7855
17981TIP3   OH275433   2.793   3.469   2.437 -0.3439  0.4060  0.5484
17981TIP3    H175434   2.819   3.398   2.495  0.9218  0.2872 -0.1244
17981TIP3    H275435   2.875   3.513   2.414 -0.7465  0.2872 -1.3378
17982TIP3   OH275436   4.837   2.748  16.524  0.0873  0.0113 -0.1306
17982TIP3    H175437   4.830   2.700  16.607 -1.6899 -0.3872 -0.4799
17982TIP3    H275438   4.814   2.839  16.547  1.5458  0.3313  0.1587
17983TIP3   OH275439   2.824   5.333   4.420  0.0193 -0.3747  0.2521
17983TIP3    H175440   2.912   5.320   4.386 -0.7395 -1.3589 -1.4681
17983TIP3    H275441   2.777   5.377   4.350 -0.3886  2.0313  1.8980
17984TIP3   OH275442   5.706   2.361   6.518  0.2272 -0.5702 -0.1954
17984TIP3    H175443   5.660   2.376   6.436  2.4375  0.4230 -1.3520
17984TIP3    H275444   5.649   2.399   6.585 -0.0504  1.8695 -1.7013
17985TIP3   OH275445   1.814   1.619  12.750  0.2982 -0.0462  0.0874
17985TIP3    H175446   1.822   1.528  12.777 -1.2176  0.2345  1.5915
17985TIP3    H275447   1.825   1.669  12.831  1.4893  1.1552 -0.7700
17986TIP3   OH275448   1.930   3.501  13.553 -0.0867 -0.8316  1.0650
17986TIP3    H175449   1.990   3.429  13.534 -1.0978 -1.6454  0.8827
17986TIP3    H275450   1.982   3.580  13.537  0.5710 -1.5131 -0.3198
17987TIP3   OH275451   2.106   3.559   3.885  0.5184  0.1269  1.4177
17987TIP3    H175452   2.106   3.654   3.873 -1.1154  0.2135  1.8612
17987TIP3    H275453   2.184   3.542   3.938  1.8608  0.9677 -0.1784
17988TIP3   OH275454   1.294   1.622   4.257  0.1067  0.1686 -0.2257
17988TIP3    H175455   1.227   1.652   4.195 -0.5006 -1.5827 -0.4811
17988TIP3    H275456   1.355   1.571   4.204 -1.4279 -2.9635  0.7444
17989TIP3   OH275457   0.961   2.384  11.141 -0.3842 -0.8381  1.0374
17989TIP3    H175458   0.950   2.409  11.233  2.1835  0.2661  1.1382
17989TIP3    H275459   1.044   2.337  11.138 -0.3340 -0.7265 -0.7457
17990TIP3   OH275460   2.220   4.384  14.274  0.0623 -0.4685 -0.5014
17990TIP3    H175461   2.165   4.461  14.258  1.6604  0.8954  0.2219
17990TIP3    H275462   2.213   4.333  14.194 -0.4690  0.8170 -1.3130
17991TIP3   OH275463   6.543   3.938  14.611 -0.5388 -0.0036  0.0079
17991TIP3    H175464   6.624   3.926  14.561  0.1503 -0.2598  1.1401
17991TIP3    H275465   6.562   4.011  14.670 -0.2857 -1.4947  1.8792
17992TIP3   OH275466   4.132   6.082   5.613  0.2486 -0.2181 -0.0921
17992TIP3    H175467   4.156   6.137   5.687 -1.9009 -1.0707  1.3494
17992TIP3    H275468   4.056   6.126   5.574  0.6834 -0.3510 -1.1191
17993TIP3   OH275469   6.804   1.713   3.612  0.1395  0.0132 -0.8706
17993TIP3    H175470   6.822   1.624   3.643 -1.2814  0.2176  0.6551
17993TIP3    H275471   6.745   1.700   3.538  0.0898 -0.3196 -0.7776
17994TIP3   OH275472   5.937   4.889   1.004 -0.5541 -0.0353 -0.0121
17994TIP3    H175473   5.945   4.794   1.008  1.6274 -0.1902 -3.3906
17994TIP3    H275474   5.949   4.919   1.094 -1.5516 -2.9073  1.1914
17995TIP3   OH275475   3.656   3.954   0.420  0.0894 -0.2610 -0.8647
17995TIP3    H175476   3.572   3.994   0.396  0.5649  1.3597  0.0166
17995TIP3    H275477   3.722   4.017   0.390  0.8386 -0.0053  1.1748
17996TIP3   OH275478   2.285   1.841   5.657  0.0501 -0.0005 -0.0078
17996TIP3    H175479   2.264   1.925   5.617  0.0773 -0.2426 -0.5448
17996TIP3    H275480   2.208   1.819   5.709  0.1813  0.5157  0.4088
17997TIP3   OH275481   2.709   2.866  14.662  0.0223  0.3965  0.5010
17997TIP3    H175482   2.636   2.833  14.609  1.7987  0.6494 -2.3563
17997TIP3    H275483   2.787   2.828  14.621  1.6819  2.5637  1.4348
17998TIP3   OH275484   2.463   4.713  15.036  0.3661  0.6867  0.3300
17998TIP3    H175485   2.450   4.748  15.124  1.3811  1.3829  0.2169
17998TIP3    H275486   2.480   4.790  14.981  3.2044  0.0339  0.1788
17999TIP3   OH275487   0.606   6.582  12.791 -0.7530  0.0299 -0.1313
17999TIP3    H175488   0.641   6.632  12.864 -0.5988  1.0323 -0.8701
17999TIP3    H275489   0.514   6.609  12.785 -1.0005 -0.7101  0.2352
18000TIP3   OH275490   2.695   3.227  13.213  0.1954 -0.0816 -0.0759
18000TIP3    H175491   2.763   3.173  13.253  0.3324 -0.3002 -0.6017
18000TIP3    H275492   2.613   3.193  13.249  0.2173 -1.1870 -1.0235
18001TIP3   OH275493   3.371   6.572   5.375 -0.2876  0.1771 -0.1609
18001TIP3    H175494   3.443   6.629   5.349 -1.2100  1.8023  0.6616
18001TIP3    H275495   3.292   6.625   5.360 -1.0603  0.0021  2.6337
18002TIP3   OH275496   5.253   1.120  12.779 -0.2171  0.0954  0.9232
18002TIP3    H175497   5.161   1.136  12.759  0.2144  0.1951 -1.1814
18002TIP3    H275498   5.258   1.027  12.799 -0.5388 -0.2557 -0.5442
18003TIP3   OH275499   5.679   0.022   2.656 -0.6365  0.1163 -0.0943
18003TIP3    H175500   5.745   0.073   2.703  0.3238 -0.3487 -0.8760
18003TIP3    H275501   5.682  -0.064   2.697 -1.7489  0.4695  0.7595
18004TIP3   OH275502   4.369   4.388  10.910 -0.1890  0.0376  0.3480
18004TIP3    H175503   4.410   4.473  10.893 -2.0638  0.6995 -1.3281
18004TIP3    H275504   4.354   4.351  10.823 -2.2262 -0.5562  0.8992
18005TIP3   OH275505   5.124   6.417  12.212  0.3685 -0.2495 -0.0053
18005TIP3    H175506   5.070   6.387  12.138  0.2934 -0.2346  0.0430
18005TIP3    H275507   5.158   6.502  12.183  0.1118 -0.1138  0.0887
18006TIP3   OH275508   1.611   1.157   0.856  0.2105  0.7395  0.1194
18006TIP3    H175509   1.561   1.233   0.826 -0.4513  0.6521  0.9504
18006TIP3    H275510   1.558   1.120   0.927 -0.0303 -1.1680 -0.9899
18007TIP3   OH275511   3.762   5.669   5.513  0.5588  0.0785  0.2768
18007TIP3    H175512   3.673   5.705   5.514 -0.1309 -1.5302  1.1753
18007TIP3    H275513   3.800   5.698   5.596  0.4992 -0.0669  0.3561
18008TIP3   OH275514   6.674   5.280   4.385 -0.1115  0.3279  0.0822
18008TIP3    H175515   6.600   5.304   4.441 -1.0301  0.7635 -1.2679
18008TIP3    H275516   6.638   5.215   4.324  1.0494 -0.6753  0.4209
18009TIP3   OH275517   2.950   0.569   4.082 -0.0471  0.4444 -0.2735
18009TIP3    H175518   2.864   0.527   4.081  0.3617 -0.4670  0.4647
18009TIP3    H275519   2.938   0.646   4.138 -0.1459 -0.2790  0.7376
18010TIP3   OH275520   4.814   1.059   3.716  0.1812 -0.7165  0.6792
18010TIP3    H175521   4.872   1.075   3.790  0.2321 -0.2281  0.5390
18010TIP3    H275522   4.812   0.964   3.707  2.0133 -0.7191 -0.1307
18011TIP3   OH275523   3.711   2.613   1.027  0.1359 -0.5961 -0.0530
18011TIP3    H175524   3.638   2.565   1.066  1.0966 -2.9557 -0.9498
18011TIP3    H275525   3.717   2.579   0.937 -0.0022  2.3386 -1.2684
18012TIP3   OH275526   5.007   2.845   3.588  0.3280 -0.1361  0.1092
18012TIP3    H175527   5.078   2.899   3.554  0.2390  1.2777  2.0064
18012TIP3    H275528   4.934   2.862   3.529  0.7615  0.5871 -0.2318
18013TIP3   OH275529   3.668   1.571  13.763 -0.3633  0.3899 -0.1423
18013TIP3    H175530   3.615   1.561  13.684  0.7994  1.6713 -1.1361
18013TIP3    H275531   3.604   1.574  13.835 -1.6278  1.7284 -1.2731
18014TIP3   OH275532   2.409   6.535  14.190 -0.0626 -0.3386 -0.2957
18014TIP3    H175533   2.332   6.481  14.174 -0.6738  0.0421  1.1579
18014TIP3    H275534   2.470   6.477  14.235  0.4487 -0.5918 -1.2941
18015TIP3   OH275535   1.892   5.411  14.045  0.3024  0.3690 -0.1043
18015TIP3    H175536   1.808   5.366  14.040  0.6284 -0.1922 -0.7102
18015TIP3    H275537   1.906   5.426  14.139 -0.1902 -0.0751  0.0411
18016TIP3   OH275538   2.876   0.121  12.949 -0.1367 -0.0211  0.4200
18016TIP3    H175539   2.828   0.172  12.884  0.5856  0.5786  0.3449
18016TIP3    H275540   2.918   0.050  12.899 -1.0074 -0.6087  0.4999
18017TIP3   OH275541   0.864   5.340  14.015 -0.1336 -0.0558 -0.3664
18017TIP3    H175542   0.815   5.321  14.095  0.8333  0.8484  0.4714
18017TIP3    H275543   0.858   5.260  13.963  1.5947 -1.7515  1.8373
18018TIP3   OH275544   1.681   6.315   3.715 -0.2689 -0.6499 -0.1915
18018TIP3    H175545   1.613   6.284   3.654  0.2210  1.2200 -1.7845
18018TIP3    H275546   1.636   6.378   3.771 -0.6718 -2.2228  1.3470
18019TIP3   OH275547   6.636   1.781   1.326  0.3156  0.6616 -0.1966
18019TIP3    H175548   6.643   1.687   1.307  1.3616  0.6820  0.0551
18019TIP3    H275549   6.703   1.822   1.271  0.5169  1.1532  0.4069
18020TIP3   OH275550   2.880   5.565   0.080  0.8480  0.2020 -0.0965
18020TIP3    H175551   2.946   5.622   0.119 -0.1406  0.8590  0.6602
18020TIP3    H275552   2.834   5.527   0.155 -0.4332  0.7062 -0.5979
18021TIP3   OH275553   1.862   0.727  10.844  0.3367 -0.2637 -0.2813
18021TIP3    H175554   1.861   0.681  10.761  3.0564 -1.8758  0.4712
18021TIP3    H275555   1.937   0.786  10.839 -1.0449  1.6260  0.0909
18022TIP3   OH275556   4.215   0.457   2.650 -0.5286  0.9664 -0.5018
18022TIP3    H175557   4.173   0.420   2.573 -0.5600  0.5038 -0.2647
18022TIP3    H275558   4.144   0.496   2.700 -0.7320 -0.0540  0.0345
18023TIP3   OH275559   4.208   5.365   5.459  0.1379 -0.2269  0.4762
18023TIP3    H175560   4.139   5.431   5.468  0.9410  0.3754  3.3454
18023TIP3    H275561   4.181   5.293   5.516  0.6496 -1.1602 -0.4170
18024TIP3   OH275562   2.370   6.723   5.816 -0.0981 -0.3548  0.3408
18024TIP3    H175563   2.339   6.675   5.739 -2.2377 -0.9506  1.5064
18024TIP3    H275564   2.465   6.722   5.807 -0.2438 -1.2373 -1.7969
18025TIP3   OH275565   0.198   4.086   1.890  0.1200 -0.7122  0.7789
18025TIP3    H175566   0.245   4.086   1.973  0.7083  0.7696  0.4718
18025TIP3    H275567   0.232   4.010   1.843  1.2752 -0.4053  1.0908
18026TIP3   OH275568   1.174   2.482   5.030  0.8252 -0.4201  0.0293
18026TIP3    H175569   1.161   2.556   5.089  0.5517 -1.1791  0.9660
18026TIP3    H275570   1.169   2.405   5.088 -4.5150 -1.6407 -1.4636
18027TIP3   OH275571   2.131   0.216  10.611 -0.3523 -0.2050 -0.1143
18027TIP3    H175572   2.044   0.248  10.589 -0.4134 -0.0262  0.3806
18027TIP3    H275573   2.188   0.293  10.604  0.0492 -0.6178 -1.9237
18028TIP3   OH275574   4.367   3.190   1.708  0.0696  0.0832 -0.8692
18028TIP3    H175575   4.320   3.137   1.773 -0.6840  0.0612 -1.4259
18028TIP3    H275576   4.383   3.273   1.753 -1.3793  0.4535 -0.9971
18029TIP3   OH275577   5.395   5.855   2.715  0.5623  0.1868 -0.0409
18029TIP3    H175578   5.341   5.777   2.727  0.7705  0.0794  0.2110
18029TIP3    H275579   5.332   5.927   2.707  0.2965 -0.1965 -1.9502
18030TIP3   OH275580   0.509   0.112  13.998 -0.8286 -0.1159 -0.2734
18030TIP3    H175581   0.461   0.040  13.956 -0.9788  1.0189 -2.1687
18030TIP3    H275582   0.459   0.190  13.977 -0.1951  0.6750  1.0087
18031TIP3   OH275583   0.455   1.996  10.591 -0.0912 -0.5296 -0.1869
18031TIP3    H175584   0.400   1.969  10.665  1.4869 -1.0352  0.8550
18031TIP3    H275585   0.432   1.935  10.521 -2.3568  0.6080 -0.4973
18032TIP3   OH275586   2.612   4.203  15.871 -0.0787 -0.5597 -0.0595
18032TIP3    H175587   2.689   4.192  15.927  0.6729  3.8707  0.1119
18032TIP3    H275588   2.631   4.150  15.794  1.4508 -2.3541  1.4391
18033TIP3   OH275589   3.720   4.262   0.333 -0.1316 -0.4999  0.5635
18033TIP3    H175590   3.789   4.281   0.397 -0.3672 -2.0646  1.3037
18033TIP3    H275591   3.737   4.325   0.262  0.9895  0.3131  1.5018
18034TIP3   OH275592   6.592   3.585  16.248 -0.6212  0.1479 -0.6819
18034TIP3    H175593   6.668   3.574  16.190  0.1700  5.1007 -0.9893
18034TIP3    H275594   6.519   3.601  16.189 -1.1794 -0.9249 -0.3119
18035TIP3   OH275595   3.466   1.367   0.399  0.0188  0.4290  0.1156
18035TIP3    H175596   3.555   1.383   0.431 -0.1141 -0.2092  0.8293
18035TIP3    H275597   3.412   1.431   0.446 -0.1622 -0.4438  1.1296
18036TIP3   OH275598   2.028   3.698  14.393 -0.7544 -0.1880  0.4146
18036TIP3    H175599   2.117   3.677  14.420 -1.1780 -1.3227  1.0149
18036TIP3    H275600   1.974   3.676  14.469 -1.5436  0.5240  0.0781
18037TIP3   OH275601   2.828   1.769   5.469  0.2162 -0.2719 -0.3045
18037TIP3    H175602   2.805   1.834   5.535  0.4948  0.2062 -0.6708
18037TIP3    H275603   2.863   1.695   5.518 -0.3700 -0.2583  0.1350
18038TIP3   OH275604   3.950   0.420  14.495  0.5327 -0.7091 -0.1735
18038TIP3    H175605   3.898   0.433  14.574 -1.1465 -1.9981 -1.0061
18038TIP3    H275606   4.003   0.499  14.488 -3.1786  2.0002 -0.6526
18039TIP3   OH275607   2.368   2.591  11.354  0.1875 -0.4016 -0.3199
18039TIP3    H175608   2.371   2.683  11.328  0.4315 -0.3612 -0.1452
18039TIP3    H275609   2.455   2.573  11.390  0.3196 -0.8458 -0.8463
18040TIP3   OH275610   6.229   1.712   1.108  0.5282 -0.3342 -0.3104
18040TIP3    H175611   6.239   1.803   1.135  0.4079 -0.3883 -0.0798
18040TIP3    H275612   6.287   1.663   1.167 -1.7479 -0.7744  1.7506
18041TIP3   OH275613   2.811   2.032   2.941 -0.3670 -0.6508 -0.3381
18041TIP3    H175614   2.858   2.065   3.018 -0.3894 -0.4551 -0.4071
18041TIP3    H275615   2.865   1.959   2.909 -0.1684 -0.5001 -0.3478
18042TIP3   OH275616   3.061   4.095   5.008 -0.2580  0.0261  0.5717
18042TIP3    H175617   3.007   4.086   4.930  1.1512  0.9254 -0.5573
18042TIP3    H275618   3.005   4.141   5.071 -0.9378  0.5887 -0.4208
18043TIP3   OH275619   2.324   6.187   5.606  0.4614  0.4650  0.3399
18043TIP3    H175620   2.384   6.231   5.546 -0.0903  0.4229 -0.2549
18043TIP3    H275621   2.332   6.235   5.688  1.8727 -0.0155  0.5073
18044TIP3   OH275622   1.939   5.274   2.704  0.1699 -0.4743 -0.6948
18044TIP3    H175623   2.014   5.267   2.645 -1.1347  2.1050 -2.8601
18044TIP3    H275624   1.863   5.255   2.649 -0.9584 -0.2787  0.7418
18045TIP3   OH275625   5.768   3.956   0.485 -0.5331  0.2954  0.5940
18045TIP3    H175626   5.692   4.004   0.517 -0.1145  0.8439  0.7885
18045TIP3    H275627   5.820   3.938   0.563 -0.0149  0.7306  0.3563
18046TIP3   OH275628   4.679   5.292   0.673  0.4358  0.2374 -0.0907
18046TIP3    H175629   4.689   5.319   0.582  0.9041 -0.5382 -0.2796
18046TIP3    H275630   4.701   5.370   0.723  2.6895  0.0092 -0.6096
18047TIP3   OH275631   4.941   5.840  13.944  0.0160 -0.0042  0.1847
18047TIP3    H175632   4.848   5.847  13.927 -0.1523 -2.0445 -0.0199
18047TIP3    H275633   4.983   5.855  13.859 -0.2581 -0.9552 -0.1296
18048TIP3   OH275634   6.566   3.533   0.578  0.0020 -0.2387  0.5159
18048TIP3    H175635   6.470   3.538   0.575 -0.0918 -0.8219  1.8264
18048TIP3    H275636   6.585   3.441   0.556  0.0668 -0.8652  2.9547
18049TIP3   OH275637   3.063   0.033   3.816 -0.1915 -0.2482 -0.6033
18049TIP3    H175638   3.021   0.107   3.859 -1.9278 -0.2718 -2.1261
18049TIP3    H275639   3.132   0.073   3.762  0.0567  0.0501 -0.0781
18050TIP3   OH275640   2.073   0.652   2.542 -0.1126  0.3012 -0.2208
18050TIP3    H175641   2.045   0.573   2.497 -1.0848 -0.4199  1.5655
18050TIP3    H275642   2.147   0.684   2.490  0.5887 -1.9945 -0.7554
18051TIP3   OH275643   5.939   4.352   3.593 -0.3475 -0.1687 -0.7810
18051TIP3    H175644   6.033   4.344   3.575 -0.3692 -2.8008 -0.1600
18051TIP3    H275645   5.934   4.365   3.688 -0.6318 -0.1874 -0.7933
18052TIP3   OH275646   5.471   3.368  13.871 -0.5588  0.7900  0.1193
18052TIP3    H175647   5.398   3.318  13.909 -0.7429  1.3086  0.4527
18052TIP3    H275648   5.536   3.302  13.849 -1.0573  0.3327 -0.0256
18053TIP3   OH275649   3.152   2.572   5.498  0.0753  0.0167 -0.8882
18053TIP3    H175650   3.162   2.532   5.412 -0.1818  0.9182 -1.3480
18053TIP3    H275651   3.093   2.646   5.484  0.1509  0.2702  0.0360
18054TIP3   OH275652   4.605   1.287  11.255  0.1135  0.1117 -0.6199
18054TIP3    H175653   4.547   1.323  11.321  1.0867  0.7508 -0.1004
18054TIP3    H275654   4.593   1.343  11.178 -1.0898 -0.6915 -1.0518
18055TIP3   OH275655   5.217   0.433   1.952  0.0650 -0.3483 -0.0864
18055TIP3    H175656   5.242   0.347   1.986  0.7034  1.0361  3.4189
18055TIP3    H275657   5.298   0.484   1.953 -0.9994  1.5385  2.5011
18056TIP3   OH275658   2.157   4.200  14.053 -0.3165 -0.2178  0.5797
18056TIP3    H175659   2.097   4.245  13.993 -1.3351 -1.2832  0.7562
18056TIP3    H275660   2.107   4.124  14.084  1.0422 -1.0018  0.9409
18057TIP3   OH275661   0.855   3.420   6.122  0.0771  0.6999  0.4856
18057TIP3    H175662   0.851   3.442   6.029 -0.0864  0.3987  0.4232
18057TIP3    H275663   0.781   3.362   6.137 -0.2222  1.1832  0.9223
18058TIP3   OH275664   6.604   3.115   1.882  0.1903 -0.7337 -0.2204
18058TIP3    H175665   6.660   3.192   1.885 -0.5543 -0.2132  2.2862
18058TIP3    H275666   6.623   3.075   1.797  1.4375  1.5507 -1.0977
18059TIP3   OH275667   3.001   5.058  12.326 -0.7194 -0.3614 -0.3872
18059TIP3    H175668   3.019   5.072  12.233 -0.9046  0.7592 -0.2621
18059TIP3    H275669   3.084   5.074  12.370 -0.9363  0.3646 -0.2396
18060TIP3   OH275670   4.685   3.268  16.449  1.0796  0.7997 -0.4768
18060TIP3    H175671   4.760   3.249  16.392  1.6271  2.6648 -0.4526
18060TIP3    H275672   4.643   3.344  16.409 -1.3379 -0.6785 -0.9305
18061TIP3   OH275673   5.006   5.814   4.174  0.5044  0.1027 -0.1971
18061TIP3    H175674   5.088   5.843   4.135 -0.0709  0.6644 -1.0279
18061TIP3    H275675   4.944   5.884   4.155 -0.0811 -0.1245  0.7767
18062TIP3   OH275676   2.952   5.353   2.007 -0.1095  0.7750  0.4906
18062TIP3    H175677   2.872   5.405   2.008  0.5338  1.7729  1.3886
18062TIP3    H275678   3.009   5.397   1.943  0.1378  0.7073  0.6643
18063TIP3   OH275679   1.896   5.727  15.124  0.0487 -0.8878 -0.5143
18063TIP3    H175680   1.893   5.764  15.213  0.4265  0.5488 -1.0679
18063TIP3    H275681   1.804   5.727  15.096  0.1744  1.4519 -1.1694
18064TIP3   OH275682   2.866   0.410  10.967  0.6210 -0.2727 -0.6645
18064TIP3    H175683   2.866   0.450  10.880  0.7094 -0.4643 -0.7527
18064TIP3    H275684   2.933   0.458  11.016 -1.0521  1.4944  0.0693
18065TIP3   OH275685   6.343   5.217   3.748 -0.5643 -0.2443  0.4478
18065TIP3    H175686   6.292   5.273   3.689  0.1120 -0.2778 -0.1847
18065TIP3    H275687   6.416   5.272   3.777  0.2594 -0.8671 -0.3986
18066TIP3   OH275688   4.820   0.269  14.614  0.0045 -0.6034  0.5200
18066TIP3    H175689   4.821   0.254  14.520 -1.5294 -0.0341  0.3824
18066TIP3    H275690   4.912   0.277  14.639  0.4198 -0.6309 -0.9406
18067TIP3   OH275691   3.141   0.331   2.296  0.1536 -0.0536 -0.2206
18067TIP3    H175692   3.143   0.426   2.283  0.2432 -0.1795 -1.1779
18067TIP3    H275693   3.227   0.310   2.332 -0.9121  0.6159  3.0622
18068TIP3   OH275694   5.750   2.443   4.070 -0.0645 -0.3737  0.4526
18068TIP3    H175695   5.701   2.493   4.135  0.4732  0.9207 -0.0979
18068TIP3    H275696   5.684   2.390   4.026 -0.9409  1.0268 -0.0018
18069TIP3   OH275697   4.802   1.400  14.602  0.2110  0.0600 -0.7914
18069TIP3    H175698   4.825   1.324  14.656  0.9943 -1.1511 -2.7392
18069TIP3    H275699   4.885   1.446  14.590 -0.1389  0.8611 -0.1997
18070TIP3   OH275700   4.832   5.164   1.234 -0.2769  0.5501 -0.6007
18070TIP3    H175701   4.850   5.070   1.242  0.8723  0.9105  2.1752
18070TIP3    H275702   4.903   5.197   1.179  0.5954  0.0816  0.2005
18071TIP3   OH275703   5.862   6.611   2.431  0.1446  0.4032  0.6617
18071TIP3    H175704   5.889   6.534   2.381  0.0550  1.1456 -0.5619
18071TIP3    H275705   5.823   6.670   2.366 -0.5868  1.1199  1.7171
18072TIP3   OH275706   3.031   5.115  11.680 -0.2930 -0.6109  0.2233
18072TIP3    H175707   3.080   5.175  11.624  0.8113 -1.4106  0.2988
18072TIP3    H275708   3.060   5.137  11.769 -1.8371  0.4714  0.4911
18073TIP3   OH275709   5.468   3.940  16.278  0.2328  0.0389 -0.2406
18073TIP3    H175710   5.418   3.915  16.356  0.0054 -0.4716 -0.5455
18073TIP3    H275711   5.436   3.883  16.209  1.3581 -0.4276 -0.4068
18074TIP3   OH275712   6.061   3.127   1.162 -0.1521  0.3792  0.6285
18074TIP3    H175713   5.980   3.105   1.115 -1.9101  1.8645  2.7586
18074TIP3    H275714   6.079   3.049   1.215  0.0714 -0.0881 -0.1040
18075TIP3   OH275715   4.288   6.165  13.537  0.3209  0.1421  0.5569
18075TIP3    H175716   4.268   6.174  13.444 -0.3757 -0.7702  0.6082
18075TIP3    H275717   4.332   6.081  13.543  1.2116  0.6217  0.9338
18076TIP3   OH275718   5.888   5.465   3.232 -0.2400 -0.9559  0.0574
18076TIP3    H175719   5.833   5.433   3.303 -1.8500  1.9843  0.2815
18076TIP3    H275720   5.974   5.479   3.272 -1.2260  1.0784  1.6334
18077TIP3   OH275721   2.474   2.242   4.874  0.2319  0.6909  0.3921
18077TIP3    H175722   2.452   2.234   4.967  2.4110 -1.9906  0.7984
18077TIP3    H275723   2.415   2.181   4.830 -1.0227  2.1981 -0.1056
18078TIP3   OH275724   4.553   4.496  11.680 -0.5582 -0.0271  0.5728
18078TIP3    H175725   4.517   4.487  11.592 -1.7281 -0.5703  1.0847
18078TIP3    H275726   4.582   4.408  11.703  0.4583  0.2608  0.4572
18079TIP3   OH275727   4.541   0.726   4.945  0.3196  0.2731  0.1729
18079TIP3    H175728   4.481   0.695   4.877  1.2986 -0.4294 -0.3898
18079TIP3    H275729   4.515   0.817   4.960 -1.4312 -0.2544  0.5576
18080TIP3   OH275730   2.943   4.323  15.652  0.2844 -0.5331 -0.2577
18080TIP3    H175731   2.921   4.416  15.664  0.4918 -0.3629 -1.1034
18080TIP3    H275732   2.959   4.315  15.558 -1.5691 -1.8505 -0.4998
18081TIP3   OH275733   2.022   2.179  10.844 -0.4125 -0.2782 -0.3117
18081TIP3    H175734   2.025   2.109  10.779  0.7406 -0.8186  0.2819
18081TIP3    H275735   1.938   2.223  10.829 -0.6709 -1.1027 -1.4007
18082TIP3   OH275736   4.426   5.514   3.134  0.0764 -0.4007 -0.4117
18082TIP3    H175737   4.517   5.486   3.133  0.2057 -0.1552  1.3884
18082TIP3    H275738   4.430   5.607   3.157 -0.5975 -0.1927 -1.0894
18083TIP3   OH275739   2.606   6.241   5.464 -0.5516  0.3988  0.1042
18083TIP3    H175740   2.552   6.170   5.429 -1.3665  0.5854  0.9593
18083TIP3    H275741   2.663   6.266   5.391 -1.1593 -0.2478 -0.6045
18084TIP3   OH275742   2.425   0.698  17.255  0.7827  0.6778  0.7449
18084TIP3    H175743   2.448   0.675  17.345 -0.4227  1.1860  1.2015
18084TIP3    H275744   2.351   0.640  17.234  1.4049  0.1749 -0.1194
18085TIP3   OH275745   4.188   5.510   4.157 -0.2222  0.0828  0.1234
18085TIP3    H175746   4.192   5.603   4.136  1.6953  0.5762  2.2303
18085TIP3    H275747   4.119   5.504   4.223  1.0338  0.4307  1.5239
18086TIP3   OH275748   5.470   0.748  11.774  0.4706 -0.4148  0.0088
18086TIP3    H175749   5.472   0.664  11.728 -0.2242  0.6452 -2.0465
18086TIP3    H275750   5.534   0.802  11.728  1.3787  0.0473  1.7055
18087TIP3   OH275751   5.233   1.991   0.948 -0.6963 -0.3497  0.7741
18087TIP3    H175752   5.317   1.945   0.953 -0.9294 -0.6747  2.2614
18087TIP3    H275753   5.203   1.978   0.858  0.7749 -0.3346  0.2512
18088TIP3   OH275754   3.999   2.048  12.333  0.1440 -0.2264  0.0448
18088TIP3    H175755   3.934   2.101  12.287  0.2814 -0.0619  0.0406
18088TIP3    H275756   3.982   2.064  12.426 -2.0264 -2.7516  0.2047
18089TIP3   OH275757   5.999   0.197   0.913 -0.0130  0.5744  0.1596
18089TIP3    H175758   6.049   0.260   0.966  0.6308 -0.4132  0.7495
18089TIP3    H275759   6.041   0.113   0.929 -1.5939 -0.2281  0.3272
18090TIP3   OH275760   4.848   3.294   1.095 -0.2154 -0.6266  0.0343
18090TIP3    H175761   4.897   3.265   1.019 -1.4597 -1.9782 -0.3070
18090TIP3    H275762   4.912   3.337   1.151  0.7785  0.1347 -1.6326
18091TIP3   OH275763   6.775   3.616   2.706  0.1585 -0.1612  0.0043
18091TIP3    H175764   6.730   3.699   2.693  2.2028  1.0032 -0.1083
18091TIP3    H275765   6.709   3.559   2.746 -0.5652  2.4238  2.9287
18092TIP3   OH275766   2.826   5.413  14.525 -0.3366 -0.0896 -0.3957
18092TIP3    H175767   2.869   5.328  14.517  1.1422  0.5169  0.7584
18092TIP3    H275768   2.796   5.416  14.616 -1.0816  0.3154 -0.6438
18093TIP3   OH275769   2.919   4.673  14.645 -0.0260  0.4022  0.4241
18093TIP3    H175770   2.957   4.742  14.591  0.1709 -0.1616 -0.1685
18093TIP3    H275771   2.878   4.720  14.718 -0.1595  1.1639 -0.1264
18094TIP3   OH275772   5.182   6.797   4.671 -0.4681 -0.3299  0.2700
18094TIP3    H175773   5.208   6.752   4.752 -0.6912 -0.8146  0.0766
18094TIP3    H275774   5.136   6.875   4.700 -1.2177 -0.8950  0.6138
18095TIP3   OH275775   5.440   3.017   2.276  0.7836  0.0733  0.1564
18095TIP3    H175776   5.415   3.052   2.362  1.5252 -0.4329  0.5870
18095TIP3    H275777   5.535   3.029   2.272  0.6230  1.1408 -1.0884
18096TIP3   OH275778   1.499   2.268   0.018 -0.1851  0.1613  0.3653
18096TIP3    H175779   1.438   2.255   0.091 -0.2597  1.0543  0.4745
18096TIP3    H275780   1.480   2.356  -0.014  1.5977  0.7927  0.9258
18097TIP3   OH275781   1.185   2.948  13.247 -0.4667 -0.1882 -0.5230
18097TIP3    H175782   1.099   2.953  13.290 -1.8544 -2.0906 -2.8167
18097TIP3    H275783   1.171   2.990  13.162  0.8553 -0.5311 -0.9252
18098TIP3   OH275784   2.411   6.077  12.930  0.3487 -0.5099  0.3949
18098TIP3    H175785   2.387   5.985  12.915  0.9287 -0.6199  0.0639
18098TIP3    H275786   2.506   6.073  12.947  0.1583 -0.1024  1.6139
18099TIP3   OH275787   1.983   0.289  16.612  0.1437  0.0012  0.1023
18099TIP3    H175788   2.055   0.313  16.554 -0.3046 -0.3972 -0.6273
18099TIP3    H275789   1.904   0.303  16.560 -0.3845  1.4608  1.2496
18100TIP3   OH275790   4.227   0.010   1.530  0.3334  0.1538  0.5392
18100TIP3    H175791   4.161   0.026   1.598 -0.2659  2.9482 -0.5721
18100TIP3    H275792   4.200  -0.073   1.490 -2.5504  1.1824  0.1399
18101TIP3   OH275793   0.182   3.556  12.452 -0.0979  0.4581 -0.5554
18101TIP3    H175794   0.149   3.578  12.365 -0.5023  0.8624 -0.2978
18101TIP3    H275795   0.274   3.531  12.437  0.1364  1.5244 -0.9560
18102TIP3   OH275796   4.963   1.962   2.537  0.1346  0.2345  0.3999
18102TIP3    H175797   4.906   1.957   2.459 -0.0924  1.3677  0.4732
18102TIP3    H275798   4.929   1.895   2.596 -0.2344 -0.0562 -0.1324
18103TIP3   OH275799   6.144   2.044   4.485  0.0097 -0.6326  0.1087
18103TIP3    H175800   6.181   2.112   4.541 -2.8138 -1.1637  2.9281
18103TIP3    H275801   6.166   1.962   4.529 -0.9764 -1.1753 -0.3713
18104TIP3   OH275802   4.130   3.000  12.212 -0.0506 -0.0593  0.4384
18104TIP3    H175803   4.049   2.980  12.167 -0.3270  1.9647 -0.0733
18104TIP3    H275804   4.135   3.096  12.211  0.5752  0.0682  3.5715
18105TIP3   OH275805   0.905   3.477   5.563 -0.0852  0.6125 -0.1910
18105TIP3    H175806   0.886   3.551   5.621 -1.8558 -0.1165  0.1979
18105TIP3    H275807   0.820   3.440   5.542  0.7670 -1.6823  0.0767
18106TIP3   OH275808   4.635   6.302   4.812  0.2587  0.1541  0.1613
18106TIP3    H175809   4.598   6.254   4.886  2.0177  1.4059  1.9168
18106TIP3    H275810   4.648   6.235   4.745  1.2922 -1.5931  2.0051
18107TIP3   OH275811   4.329   0.868  12.369  0.5254  0.0166 -0.2070
18107TIP3    H175812   4.317   0.867  12.274  1.4372 -0.2443 -0.3345
18107TIP3    H275813   4.327   0.961  12.393  0.8125  0.1168 -0.5652
18108TIP3   OH275814   3.459   1.920  16.626 -0.2871  0.2032 -0.1585
18108TIP3    H175815   3.441   1.825  16.625  0.1687  0.0975  0.9079
18108TIP3    H275816   3.383   1.958  16.671  0.6311  0.0791  1.5580
18109TIP3   OH275817   1.267   2.715   1.920 -0.7964 -0.2746 -0.7052
18109TIP3    H175818   1.348   2.667   1.935 -0.8572 -0.2202 -0.1863
18109TIP3    H275819   1.282   2.800   1.963 -1.1951 -0.3297 -0.4601
18110TIP3   OH275820   5.655   3.807   6.404  0.1661  0.0814 -0.0376
18110TIP3    H175821   5.661   3.894   6.364 -0.5225  0.2775  0.2571
18110TIP3    H275822   5.604   3.822   6.484  1.5899 -0.2735  0.9752
18111TIP3   OH275823   1.098   1.905  12.891 -0.2318 -0.5315 -0.0366
18111TIP3    H175824   1.133   1.833  12.943  3.0480  1.1833  0.4633
18111TIP3    H275825   1.089   1.977  12.954 -1.3772  0.1223 -0.9033
18112TIP3   OH275826   3.334   2.836  16.507 -0.4971  0.3100  0.1503
18112TIP3    H175827   3.350   2.924  16.472 -1.0546  0.4433  0.2177
18112TIP3    H275828   3.318   2.850  16.600 -1.5738  0.2610 -0.0136
18113TIP3   OH275829   6.583   2.418   4.482 -0.7062 -0.4202 -0.2254
18113TIP3    H175830   6.553   2.337   4.440 -2.6828  0.5469 -0.7624
18113TIP3    H275831   6.522   2.485   4.452  1.2920  1.4523 -0.3524
18114TIP3   OH275832   2.299   2.634   2.292 -0.0603  0.0519 -0.0452
18114TIP3    H175833   2.315   2.670   2.379 -2.2744  0.4578  0.2387
18114TIP3    H275834   2.308   2.539   2.303  0.5682  0.1553  0.3973
18115TIP3   OH275835   3.904   6.566   1.014 -0.0440  0.1951  0.0378
18115TIP3    H175836   3.939   6.486   1.055 -0.8635 -0.3871 -0.3754
18115TIP3    H275837   3.865   6.536   0.933 -1.5723  0.8140  0.5134
18116TIP3   OH275838   3.977   1.000  14.806 -0.3039  0.3715 -0.7725
18116TIP3    H175839   3.912   0.949  14.854 -2.3022  2.4080 -1.1728
18116TIP3    H275840   3.955   0.988  14.714  0.6447  0.1384 -0.9818
18117TIP3   OH275841   1.077   5.452   5.411 -0.7430 -0.0737  0.5768
18117TIP3    H175842   1.134   5.420   5.480  0.4376  0.8525  0.0603
18117TIP3    H275843   1.058   5.375   5.358  0.6136 -0.2841  0.3585
18118TIP3   OH275844   4.656   0.972   5.536  0.1439 -0.2544  0.1454
18118TIP3    H175845   4.598   0.901   5.508 -0.9029  0.9751 -0.9333
18118TIP3    H275846   4.596   1.042   5.564  1.1313  0.6333  0.0815
18119TIP3   OH275847   4.862   5.039  16.153  0.2199  0.1279  0.2765
18119TIP3    H175848   4.953   5.060  16.134  0.4595 -1.5133 -0.5957
18119TIP3    H275849   4.841   5.089  16.232  2.3697 -0.5968  1.3830
18120TIP3   OH275850   2.548   2.333   5.942 -0.3357  0.0664 -0.1315
18120TIP3    H175851   2.571   2.397   6.010 -0.6762  1.7841 -1.5496
18120TIP3    H275852   2.461   2.301   5.967  0.1716 -0.4441  1.0108
18121TIP3   OH275853   5.754   0.113   1.062 -0.2252  0.3611  0.4789
18121TIP3    H175854   5.833   0.166   1.067  0.2438 -0.1971 -0.5996
18121TIP3    H275855   5.734   0.109   0.968 -0.1028 -1.5400  0.4985
18122TIP3   OH275856   0.669   1.554  14.586  0.2850 -0.2346 -0.0134
18122TIP3    H175857   0.652   1.590  14.673 -1.0749 -1.3691  0.2322
18122TIP3    H275858   0.586   1.513  14.561  1.2095 -1.5483 -1.0421
18123TIP3   OH275859   2.672   6.184   4.114  0.2157  0.5840  0.1321
18123TIP3    H175860   2.751   6.145   4.078 -1.1359 -2.6179  0.2537
18123TIP3    H275861   2.600   6.141   4.067 -1.4702  1.4021  1.8117
18124TIP3   OH275862   4.006   2.762   0.764  0.1915 -0.1465  0.0139
18124TIP3    H175863   3.965   2.719   0.689 -1.5715 -0.5020  1.1366
18124TIP3    H275864   3.995   2.856   0.747  0.7911 -0.1813 -0.6659
18125TIP3   OH275865   5.435   5.235   5.424 -0.3174  0.0421 -0.8094
18125TIP3    H175866   5.463   5.152   5.464 -1.5066  0.3508  0.7675
18125TIP3    H275867   5.418   5.213   5.333  1.9705 -0.8196 -1.1042
18126TIP3   OH275868   6.777   2.070  14.536 -0.1752 -0.0466  0.6762
18126TIP3    H175869   6.805   1.981  14.514  1.2760  0.6560 -0.5586
18126TIP3    H275870   6.684   2.073  14.513 -0.0372 -1.0147 -0.0406
18127TIP3   OH275871   1.045   3.841  15.641 -0.1919  0.0785 -0.1261
18127TIP3    H175872   1.004   3.783  15.705 -3.0924 -0.5452 -2.3692
18127TIP3    H275873   0.994   3.922  15.646  0.2468  0.4133 -0.9105
18128TIP3   OH275874   1.050   3.704  14.951 -0.1482  0.2437  0.2265
18128TIP3    H175875   1.015   3.782  14.994 -0.8367 -0.5610  1.1840
18128TIP3    H275876   0.974   3.665  14.906 -0.2811 -0.9038  1.3787
18129TIP3   OH275877   1.750   5.830   0.989 -0.2583 -0.4253 -0.0583
18129TIP3    H175878   1.657   5.846   1.009 -0.3371 -1.9918  1.0050
18129TIP3    H275879   1.786   5.795   1.071  1.3204  0.3032 -0.4154
18130TIP3   OH275880   5.582   0.154   5.787 -0.0011 -0.0469 -0.0423
18130TIP3    H175881   5.607   0.062   5.776 -0.8736 -0.2616 -0.2676
18130TIP3    H275882   5.665   0.201   5.786  0.4194 -0.7765 -0.4837
18131TIP3   OH275883   1.564   4.636  15.347  0.7155  0.1581 -0.1095
18131TIP3    H175884   1.634   4.692  15.313  0.5209  0.1451 -0.5245
18131TIP3    H275885   1.483   4.682  15.326  0.6393  0.9229  1.6901
18132TIP3   OH275886   5.888   3.818   0.287 -0.6322  0.0014 -0.2393
18132TIP3    H175887   5.883   3.877   0.212 -1.4915  0.0726 -0.1335
18132TIP3    H275888   5.841   3.863   0.357  2.1689  1.0073  1.1066
18133TIP3   OH275889   6.410   0.229  13.310 -0.2143  0.1185  0.3542
18133TIP3    H175890   6.469   0.219  13.385  0.9124 -0.6600 -0.5882
18133TIP3    H275891   6.440   0.163  13.248 -1.4335  0.4236 -0.5970
18134TIP3   OH275892   1.493   6.477   3.913  0.2094 -0.2559  0.0825
18134TIP3    H175893   1.425   6.487   3.846 -0.9793 -1.3711  1.0779
18134TIP3    H275894   1.511   6.567   3.942  0.9238  0.2723 -1.8529
18135TIP3   OH275895   5.943   6.609  10.966 -0.3623  0.3019  0.4435
18135TIP3    H175896   5.971   6.531  10.917 -0.5511  0.7679 -0.4251
18135TIP3    H275897   5.947   6.582  11.058  1.6709 -0.0506  0.2889
18136TIP3   OH275898   4.490   4.386  15.126  0.6033  0.4554  0.3972
18136TIP3    H175899   4.515   4.461  15.071 -0.9485  0.5636 -0.2232
18136TIP3    H275900   4.445   4.327  15.065 -0.4008  0.1814  1.3744
18137TIP3   OH275901   4.233   2.297  13.823 -0.3572 -0.2875 -0.2361
18137TIP3    H175902   4.281   2.345  13.756  1.6471 -0.7448  0.7653
18137TIP3    H275903   4.234   2.354  13.899  0.3367 -1.0851  0.3778
18138TIP3   OH275904   4.937   2.563   2.953  0.2552 -0.1660 -0.1546
18138TIP3    H175905   4.897   2.529   2.874  0.1682 -1.4604  0.4300
18138TIP3    H275906   5.029   2.539   2.946  0.7549  1.7290 -0.9126
18139TIP3   OH275907   2.693   6.138   6.452 -0.2123  0.1102 -0.7273
18139TIP3    H175908   2.650   6.152   6.537  0.7181  0.1292 -0.2453
18139TIP3    H275909   2.698   6.042   6.444 -0.4377  0.1067 -0.8333
18140TIP3   OH275910   6.164   0.330  16.115  0.5471  0.0641  0.0427
18140TIP3    H175911   6.145   0.266  16.184  3.0331 -0.9537 -0.1233
18140TIP3    H275912   6.238   0.380  16.149  1.1939  0.1949 -1.4856
18141TIP3   OH275913   5.528   5.545  16.666 -0.0575  0.1302  0.2165
18141TIP3    H175914   5.624   5.549  16.663  0.0091  0.3538  1.7027
18141TIP3    H275915   5.499   5.621  16.616  0.5537  0.3283  0.1569
18142TIP3   OH275916   2.096   0.100  17.012  0.1107  0.5037 -0.1678
18142TIP3    H175917   2.188   0.118  16.992  0.1434  2.0113  1.0927
18142TIP3    H275918   2.097   0.064  17.101 -0.4680 -0.0340 -0.3743
18143TIP3   OH275919   4.560   3.626  15.323 -0.1065 -0.1286 -0.2988
18143TIP3    H175920   4.556   3.679  15.403 -2.1915 -2.3758  1.2368
18143TIP3    H275921   4.472   3.634  15.285  0.2944 -0.5795 -1.3503
18144TIP3   OH275922   0.957   1.532   4.155 -0.1648  0.0745  0.1052
18144TIP3    H175923   0.902   1.582   4.215  1.1893  1.8403 -0.0420
18144TIP3    H275924   1.004   1.599   4.104  2.1731 -1.3271  0.2899
18145TIP3   OH275925   4.192   0.099   2.601  0.2155 -0.1478 -0.2609
18145TIP3    H175926   4.195   0.168   2.534 -1.3436  0.2710  0.0482
18145TIP3    H275927   4.114   0.120   2.652 -0.4551 -2.3210 -0.3227
18146TIP3   OH275928   3.238   6.798  16.816 -0.3617 -0.6677  0.2196
18146TIP3    H175929   3.287   6.717  16.824 -0.3510 -1.0379 -2.5846
18146TIP3    H275930   3.154   6.772  16.777  0.2726  0.7459 -2.3410
18147TIP3   OH275931   6.754   5.642   2.357  0.2190  0.5327  0.4742
18147TIP3    H175932   6.849   5.650   2.365  0.1696  1.1003  0.5258
18147TIP3    H275933   6.737   5.547   2.360  0.9724  0.2672 -1.7336
18148TIP3   OH275934   1.502   3.340   2.763 -0.0383 -0.1026  0.0342
18148TIP3    H175935   1.442   3.350   2.689  1.1777 -0.5119 -1.0374
18148TIP3    H275936   1.587   3.366   2.728  0.4686  0.2087  1.4545
18149TIP3   OH275937   6.412   0.641   3.327  0.4006  0.0022 -0.3812
18149TIP3    H175938   6.373   0.638   3.414  0.6088  0.4452 -0.2692
18149TIP3    H275939   6.456   0.726   3.323  0.2398  0.0653 -0.9827
18150TIP3   OH275940   4.472   3.657   6.083  0.2552  0.0096  0.2045
18150TIP3    H175941   4.545   3.707   6.049  1.9098 -0.3508  2.9509
18150TIP3    H275942   4.510   3.602   6.152 -2.6632  0.2455  2.1794
18151TIP3   OH275943   5.720   1.633   0.620 -0.3252 -0.5206 -0.2655
18151TIP3    H175944   5.755   1.563   0.565 -0.1402 -0.0527 -0.7512
18151TIP3    H275945   5.644   1.666   0.571 -1.2518 -1.2932  0.6109
18152TIP3   OH275946   2.903   6.293  17.159  0.2619  0.4432 -0.3600
18152TIP3    H175947   2.812   6.316  17.181  0.0198 -0.4091 -0.4303
18152TIP3    H275948   2.936   6.252  17.239  0.7352  1.1597 -0.1813
18153TIP3   OH275949   0.593   1.855  11.222 -0.3387 -0.0549  0.5277
18153TIP3    H175950   0.543   1.775  11.204  0.8583 -0.4816 -1.0960
18153TIP3    H275951   0.527   1.918  11.251 -1.9487 -0.4052 -2.0940
18154TIP3   OH275952   4.413   4.517   6.056  0.1070 -0.3425 -0.3633
18154TIP3    H175953   4.352   4.486   6.124 -0.2132  1.3674  0.1663
18154TIP3    H275954   4.500   4.500   6.093 -0.0131 -1.7665 -0.6497
18155TIP3   OH275955   5.590   1.045   4.958 -0.3143 -0.3373  0.0809
18155TIP3    H175956   5.572   1.069   4.868  1.7711  0.2717 -0.2254
18155TIP3    H275957   5.633   0.959   4.952  0.2133 -0.1066  0.4450
18156TIP3   OH275958   5.850   3.791  14.520 -0.2786  0.1402 -0.6122
18156TIP3    H175959   5.898   3.768  14.440 -1.5491  1.8045 -1.9205
18156TIP3    H275960   5.760   3.806  14.491 -0.7547  0.8931  1.1239
18157TIP3   OH275961   3.050   3.943   0.370 -0.1944 -0.0265 -0.3049
18157TIP3    H175962   3.021   3.975   0.285 -1.3198  1.8916  0.7262
18157TIP3    H275963   3.125   3.887   0.351  0.2807  1.2546 -2.4461
18158TIP3   OH275964   5.715   1.205   3.292  0.8134  0.5319 -0.0900
18158TIP3    H175965   5.714   1.285   3.345 -0.5675  1.1639 -1.0171
18158TIP3    H275966   5.699   1.134   3.354 -2.4044  1.3827  0.2161
18159TIP3   OH275967   6.300   0.245  16.873 -0.4128 -0.3152 -0.3163
18159TIP3    H175968   6.287   0.218  16.964  1.2260 -0.8203 -0.1986
18159TIP3    H275969   6.298   0.164  16.823  0.0430 -0.1802 -0.5567
18160TIP3   OH275970   2.644   5.205   5.711 -0.6635  0.1076  0.3570
18160TIP3    H175971   2.650   5.127   5.767 -2.6957  0.2324  0.8169
18160TIP3    H275972   2.564   5.192   5.660  0.1952  0.8466 -1.2551
18161TIP3   OH275973   0.271   3.580  12.863  0.5424  0.4023 -0.0258
18161TIP3    H175974   0.214   3.513  12.825  0.4267  0.6170 -0.2322
18161TIP3    H275975   0.238   3.663  12.829  0.6047  0.5786  0.3357
18162TIP3   OH275976   0.514   3.452  13.632 -0.0420  0.3121  0.1019
18162TIP3    H175977   0.609   3.443  13.637 -0.0817 -0.1797 -0.0209
18162TIP3    H275978   0.484   3.437  13.721 -0.2267 -2.2764 -0.3324
18163TIP3   OH275979   3.943   1.152  12.008  0.2480  0.5270  0.1711
18163TIP3    H175980   3.981   1.148  11.920 -1.6420 -0.9584 -0.6352
18163TIP3    H275981   3.991   1.086  12.058  0.5142  0.5342 -0.0706
18164TIP3   OH275982   4.862   3.150  16.232 -0.1476 -0.5930 -0.4681
18164TIP3    H175983   4.823   3.142  16.145  1.0725 -0.5165 -1.0414
18164TIP3    H275984   4.923   3.077  16.239  0.2646 -0.2130  0.0564
18165TIP3   OH275985   4.566   1.354   0.682 -0.3341  0.7235 -0.0737
18165TIP3    H175986   4.503   1.312   0.623 -2.1339 -0.2543  2.3483
18165TIP3    H275987   4.645   1.302   0.674 -1.7340 -1.7420  1.0136
18166TIP3   OH275988   2.096   1.609  10.305  0.1535 -0.1794 -0.5376
18166TIP3    H175989   2.102   1.679  10.240  0.6084  0.8691  0.5821
18166TIP3    H275990   2.095   1.655  10.389  3.8418 -1.5799  0.4693
18167TIP3   OH275991   0.148   0.387   5.284 -0.5498 -0.1267 -0.2117
18167TIP3    H175992   0.202   0.463   5.264  0.0453 -0.8127 -1.3046
18167TIP3    H275993   0.059   0.413   5.259 -0.2727  0.0469 -1.0396
18168TIP3   OH275994   4.864   2.633   4.723 -0.2522 -0.7069 -0.0979
18168TIP3    H175995   4.878   2.704   4.786  0.1297 -1.4911  0.7227
18168TIP3    H275996   4.914   2.659   4.646 -1.7657  0.8996 -0.6122
18169TIP3   OH275997   0.130   1.775  13.398  0.0375  0.2196  0.1023
18169TIP3    H175998   0.136   1.789  13.493  2.7289  2.1458 -0.2686
18169TIP3    H275999   0.202   1.716  13.378 -0.2004  0.2406 -0.8423
18170TIP3   OH276000   4.437   6.593  14.813  0.1238 -0.0896 -0.1415
18170TIP3    H176001   4.468   6.669  14.862 -0.6073  0.2593 -0.2106
18170TIP3    H276002   4.450   6.616  14.721 -3.1518  1.3888 -0.3630
18171TIP3   OH276003   2.238   1.016   0.233 -0.1430  0.6648 -0.0850
18171TIP3    H176004   2.144   1.003   0.231 -0.2933  1.7466 -2.1858
18171TIP3    H276005   2.273   0.931   0.260 -1.6465 -0.2101 -0.7649
18172TIP3   OH276006   5.071   2.413  12.489  0.4534 -0.4464  0.1287
18172TIP3    H176007   5.119   2.388  12.567  0.0620 -0.4185  0.3828
18172TIP3    H276008   5.129   2.474  12.443  0.8654 -0.8033  0.1737
18173TIP3   OH276009   0.210   2.414  15.262 -0.6645 -0.3942 -0.0332
18173TIP3    H176010   0.148   2.486  15.274 -0.3372 -0.0863 -0.2023
18173TIP3    H276011   0.294   2.456  15.247 -0.4306 -0.8137  0.0848
18174TIP3   OH276012   3.788   2.330   5.488 -0.0408 -0.2746  0.0459
18174TIP3    H176013   3.712   2.372   5.527 -0.3236 -0.7069 -0.0340
18174TIP3    H276014   3.862   2.385   5.513 -0.4418  0.4358 -0.3103
18175TIP3   OH276015   5.479   5.298  17.031  0.1211  0.6721  0.4786
18175TIP3    H176016   5.562   5.345  17.037  0.1596  0.4988  1.5872
18175TIP3    H276017   5.499   5.220  16.979  0.5811  0.7686  0.5094
18176TIP3   OH276018   1.625   2.569   2.883  0.1521 -0.0527  0.0206
18176TIP3    H176019   1.709   2.538   2.915  0.3237 -0.1199 -0.4934
18176TIP3    H276020   1.571   2.490   2.875  0.6070 -0.2447 -1.3428
18177TIP3   OH276021   3.803   2.118   5.962 -0.6633  0.5339  0.1155
18177TIP3    H176022   3.872   2.077   5.910 -2.9212 -1.1030 -1.8308
18177TIP3    H276023   3.846   2.143   6.043  1.9023 -1.6619 -0.4160
18178TIP3   OH276024   6.749   6.689  12.421  0.6423  0.4364 -0.7551
18178TIP3    H176025   6.699   6.696  12.339  0.5296 -1.0934 -0.8374
18178TIP3    H276026   6.790   6.775  12.430  0.4785  0.7205 -2.3024
18179TIP3   OH276027   2.100   2.738   5.511  0.8256 -0.3166 -0.0169
18179TIP3    H176028   2.040   2.701   5.576  0.7165 -1.9022 -0.9640
18179TIP3    H276029   2.186   2.738   5.554  0.3000  1.3837  1.1225
18180TIP3   OH276030   5.954   3.401  11.476  0.3948 -0.0292  0.6107
18180TIP3    H176031   5.894   3.327  11.470  0.5095 -0.2502  1.8577
18180TIP3    H276032   5.927   3.460  11.406 -0.7473 -0.4950  0.6419
18181TIP3   OH276033   3.757   6.610  16.855 -0.7517 -0.0455  0.4076
18181TIP3    H176034   3.716   6.681  16.806  0.6378 -0.9902 -2.3607
18181TIP3    H276035   3.742   6.532  16.802  1.7099 -0.9930  0.9226
18182TIP3   OH276036   6.582   6.270   1.483  0.1449  0.0090 -0.6484
18182TIP3    H176037   6.595   6.185   1.442 -0.3439  0.9515 -2.8800
18182TIP3    H276038   6.487   6.280   1.489  0.1740  0.7145 -1.1713
18183TIP3   OH276039   1.054   6.245   1.485 -0.3007 -0.2947 -0.7086
18183TIP3    H176040   0.985   6.268   1.547  0.4045 -2.0535  0.8167
18183TIP3    H276041   1.042   6.307   1.413 -2.6268  0.3214  0.0905
18184TIP3   OH276042   0.746   5.675   2.595  0.1350 -0.2498 -0.4120
18184TIP3    H176043   0.702   5.685   2.511  0.4252 -0.5064 -0.5973
18184TIP3    H276044   0.755   5.764   2.629  2.3683  0.1484 -1.8691
18185TIP3   OH276045   6.025   2.340  16.224  0.1842  0.4208  0.4215
18185TIP3    H176046   6.040   2.424  16.268 -0.9850  0.4387  0.8015
18185TIP3    H276047   6.019   2.363  16.131  1.2256  0.5687  0.3820
18186TIP3   OH276048   2.598   0.178  14.690  1.0762 -0.9633 -0.6733
18186TIP3    H176049   2.604   0.192  14.595  1.6287  1.4442 -0.3360
18186TIP3    H276050   2.679   0.133  14.713  1.1535 -1.1323 -1.2679
18187TIP3   OH276051   0.069   3.045   1.261 -0.0056  0.3988 -0.2151
18187TIP3    H176052   0.042   3.137   1.258 -1.0670  0.1074  0.1918
18187TIP3    H276053   0.004   2.999   1.208  1.3445  0.0501 -1.6494
18188TIP3   OH276054   6.527   4.824   0.119 -0.6137  0.5249 -0.2952
18188TIP3    H176055   6.559   4.910   0.146 -0.9995  1.1139 -1.6200
18188TIP3    H276056   6.440   4.841   0.083  0.5622  0.1643 -3.6196
18189TIP3   OH276057   0.416   4.965   4.125 -0.2119  0.0748 -0.6430
18189TIP3    H176058   0.359   5.040   4.140  0.8457  1.1580 -1.7650
18189TIP3    H276059   0.422   4.958   4.030  1.9014  0.3281 -0.5744
18190TIP3   OH276060   2.011   1.070  15.599 -0.1055  0.1000  0.0674
18190TIP3    H176061   1.980   0.990  15.556 -0.5818  0.0639  0.4728
18190TIP3    H276062   1.969   1.069  15.685  0.1837  0.5986  0.2202
18191TIP3   OH276063   6.784   4.682  11.935  0.5656  0.1424 -0.0623
18191TIP3    H176064   6.697   4.672  11.974  0.5453  0.9918  0.1355
18191TIP3    H276065   6.791   4.776  11.916  2.9419  0.9063  3.5054
18192TIP3   OH276066   2.094   6.132   4.736 -0.5040  0.4669  0.6758
18192TIP3    H176067   2.090   6.037   4.724 -0.7357  0.6378 -0.7230
18192TIP3    H276068   2.003   6.160   4.738 -0.4290  0.7942 -0.1506
18193TIP3   OH276069   1.170   5.893  11.649  0.0496  0.0106 -0.2947
18193TIP3    H176070   1.164   5.865  11.557 -1.2777 -1.4583  0.1968
18193TIP3    H276071   1.092   5.947  11.663 -0.9169 -1.5377  0.5043
18194TIP3   OH276072   2.025   5.933   3.767 -0.0012  0.7920  0.6103
18194TIP3    H176073   1.955   5.907   3.828  0.0748 -1.1124 -0.0369
18194TIP3    H276074   2.086   5.859   3.769  1.0160  1.5835 -0.2841
18195TIP3   OH276075   6.250   5.694  13.035  0.1597  0.0145  0.5998
18195TIP3    H176076   6.165   5.737  13.036  0.0064 -0.2874  1.0754
18195TIP3    H276077   6.231   5.603  13.013  0.4285  0.0807  0.0828
18196TIP3   OH276078   1.136   0.055   2.621 -0.0027  0.1356  0.2083
18196TIP3    H176079   1.186  -0.008   2.672 -0.1294 -0.5600 -0.5096
18196TIP3    H276080   1.197   0.127   2.605 -0.4436  1.1750  2.7446
18197TIP3   OH276081   3.499   3.519  13.531 -0.1782  0.1273  0.1727
18197TIP3    H176082   3.422   3.575  13.518 -0.3499  0.4406  2.1999
18197TIP3    H276083   3.467   3.431  13.512 -0.9442  0.2927  0.6332
18198TIP3   OH276084   6.524   1.242   2.522 -0.2524 -0.4212  0.0488
18198TIP3    H176085   6.455   1.246   2.456  0.5691  0.6891 -0.7690
18198TIP3    H276086   6.558   1.153   2.516 -0.5903 -0.5065 -0.6045
18199TIP3   OH276087   2.777   1.988  11.468  0.8943 -0.4742  0.2045
18199TIP3    H176088   2.705   2.042  11.503  1.7141  1.0574 -0.3651
18199TIP3    H276089   2.773   2.002  11.373  0.2000 -2.6626 -0.1407
18200TIP3   OH276090   1.712   1.372  15.948 -0.1573  0.7900 -0.2131
18200TIP3    H176091   1.716   1.441  15.882  0.5338  0.7974 -0.1722
18200TIP3    H276092   1.803   1.360  15.977 -0.3158  0.1222  0.0488
18201TIP3   OH276093   0.799   2.167  12.988  0.5766 -0.2287  0.0987
18201TIP3    H176094   0.710   2.132  12.992  0.6775 -0.3798  1.8429
18201TIP3    H276095   0.821   2.165  12.895 -0.0289 -3.2419 -0.0818
18202TIP3   OH276096   3.879   6.411   1.341 -0.0573  0.3051  0.5953
18202TIP3    H176097   3.791   6.398   1.375  0.3847  0.3278  1.8184
18202TIP3    H276098   3.936   6.400   1.418  0.8558  2.3389  0.2668
18203TIP3   OH276099   1.660   1.586   1.704  0.6797 -0.0233 -0.5623
18203TIP3    H176100   1.628   1.625   1.786 -0.0164 -2.6427  0.5013
18203TIP3    H276101   1.741   1.633   1.686  0.0018  1.7558  0.7097
18204TIP3   OH276102   5.152   2.789   1.242 -0.7436 -0.2766 -0.6516
18204TIP3    H176103   5.123   2.822   1.327  0.0996  0.2083 -0.5296
18204TIP3    H276104   5.150   2.694   1.250 -0.4403 -0.2339  0.0050
18205TIP3   OH276105   2.859   0.118   0.101 -0.0462 -0.2614  0.5068
18205TIP3    H176106   2.850   0.213   0.111  0.5270 -0.3291  1.9377
18205TIP3    H276107   2.908   0.107   0.020  0.1675  0.6904  0.4958
18206TIP3   OH276108   2.207   0.578   4.776  0.2505 -0.7268  0.3452
18206TIP3    H176109   2.142   0.635   4.736 -1.6821 -2.2786  1.0547
18206TIP3    H276110   2.197   0.593   4.870  0.8856 -1.0200  0.4622
18207TIP3   OH276111   5.197   3.026   5.142  0.1488  0.0608 -0.4543
18207TIP3    H176112   5.120   3.083   5.139  0.8013  1.1272  1.4240
18207TIP3    H276113   5.261   3.075   5.193  1.0365 -2.0276  0.5482
18208TIP3   OH276114   6.105   2.421   5.468  0.1237  0.1555  0.0009
18208TIP3    H176115   6.188   2.434   5.513  0.5306 -1.4440 -0.2340
18208TIP3    H276116   6.043   2.397   5.538 -0.2144  1.5074  0.1989
18209TIP3   OH276117   0.935   0.606   0.635  0.4648 -0.1701  0.1991
18209TIP3    H176118   0.966   0.672   0.573 -0.9848  1.1116  0.7581
18209TIP3    H276119   0.858   0.568   0.594  0.5668 -0.6258  0.4229
18210TIP3   OH276120   6.727   4.995  14.832 -0.4053  0.1759 -0.1872
18210TIP3    H176121   6.764   5.080  14.855 -1.6711  0.1380  2.2769
18210TIP3    H276122   6.799   4.949  14.789  1.5187  1.1871  1.7253
18211TIP3   OH276123   1.946   1.690   1.332  0.2867 -0.0119 -0.1578
18211TIP3    H176124   2.032   1.660   1.302  0.0231  0.5779 -1.5576
18211TIP3    H276125   1.928   1.767   1.279 -1.5129 -0.6533 -0.5468
18212TIP3   OH276126   3.197   1.955  16.650  0.3888  0.0107  0.2536
18212TIP3    H176127   3.193   1.859  16.651 -0.4582  0.0473  0.6421
18212TIP3    H276128   3.124   1.983  16.704 -0.2624  0.9166 -1.0535
18213TIP3   OH276129   0.361   2.376  13.389  0.0231  0.4213  0.2497
18213TIP3    H176130   0.340   2.396  13.297 -1.4369  1.4232  0.7659
18213TIP3    H276131   0.371   2.281  13.391 -0.1054  0.3666 -0.9167
18214TIP3   OH276132   2.373   6.186   3.358  0.1206 -0.2255 -0.4057
18214TIP3    H176133   2.318   6.192   3.279  0.3941  0.3309 -0.5604
18214TIP3    H276134   2.326   6.126   3.416 -0.7558  0.4067 -0.4508
18215TIP3   OH276135   5.233   5.086  17.121 -0.0493 -0.1503 -0.3898
18215TIP3    H176136   5.317   5.081  17.167 -0.3561 -0.4537  0.1305
18215TIP3    H276137   5.210   4.995  17.103 -0.1690 -0.0569 -0.7221
18216TIP3   OH276138   6.095   4.927   0.802 -0.3633 -0.1757 -0.4138
18216TIP3    H176139   6.032   4.919   0.874  0.0425 -0.3197 -0.0652
18216TIP3    H276140   6.064   4.866   0.736 -1.3621  0.7707 -0.8331
18217TIP3   OH276141   5.527   2.546  12.944 -0.4370  0.1116 -0.0809
18217TIP3    H176142   5.532   2.628  12.895  0.6433 -0.5347 -1.0925
18217TIP3    H276143   5.575   2.563  13.025 -0.2877  0.5005 -0.2521
18218TIP3   OH276144   5.316   2.073   3.192 -0.4065  0.0283 -0.2879
18218TIP3    H176145   5.337   2.097   3.283 -0.8084  0.9815 -0.4275
18218TIP3    H276146   5.284   1.983   3.198 -1.9062  0.5837  0.7645
18219TIP3   OH276147   3.563   0.005   4.053  0.6347 -0.8028 -0.2010
18219TIP3    H176148   3.527  -0.050   4.122  0.1107  0.1976  0.3633
18219TIP3    H276149   3.656  -0.013   4.052  0.7383 -0.4533  1.1544
18220TIP3   OH276150   3.925   4.509   2.320 -0.3914 -0.1752  0.0738
18220TIP3    H176151   3.838   4.495   2.285 -0.4418  0.9266 -0.2816
18220TIP3    H276152   3.983   4.503   2.244 -0.2490 -0.0853  0.1752
18221TIP3   OH276153   1.754   0.058  11.222  0.5768 -0.2684  0.3494
18221TIP3    H176154   1.670   0.097  11.245  0.6802 -0.8171  1.7177
18221TIP3    H276155   1.816   0.092  11.287  1.0651 -1.1598  0.3761
18222TIP3   OH276156   0.999   5.089  15.786 -0.0069 -0.6098  0.0637
18222TIP3    H176157   0.984   5.000  15.755 -0.2360 -0.8891  0.9635
18222TIP3    H276158   0.922   5.110  15.838 -0.4429  0.5139 -1.0071
18223TIP3   OH276159   0.424   4.468   3.737 -0.4499 -0.7309  0.2421
18223TIP3    H176160   0.494   4.455   3.802 -2.3284 -0.8904  2.3473
18223TIP3    H276161   0.419   4.563   3.726  0.3488 -0.7364 -0.2442
18224TIP3   OH276162   4.435   3.600  11.390 -0.2549  0.4573  0.7062
18224TIP3    H176163   4.370   3.559  11.447  0.1013 -1.1220  0.0203
18224TIP3    H276164   4.512   3.544  11.397  1.1235  2.3393  1.5736
18225TIP3   OH276165   2.822   0.409   0.083 -0.3453  0.6032 -0.6798
18225TIP3    H176166   2.810   0.486   0.028 -1.2195 -0.3270 -1.8594
18225TIP3    H276167   2.806   0.440   0.172 -1.6767  1.5930 -1.2312
18226TIP3   OH276168   5.496   0.570  16.028 -0.0869  0.3174  0.6897
18226TIP3    H176169   5.516   0.508  16.098 -1.3035  0.2867  1.0378
18226TIP3    H276170   5.573   0.569  15.972 -0.0071 -1.3748  0.7889
18227TIP3   OH276171   0.472   4.151   1.627 -0.3784 -0.2015  0.0186
18227TIP3    H176172   0.381   4.124   1.637 -0.6715  0.7826  0.0461
18227TIP3    H276173   0.468   4.242   1.599  0.6102  0.4472  1.8098
18228TIP3   OH276174   0.497   5.400   5.914 -0.3769  0.2155 -0.1764
18228TIP3    H176175   0.426   5.347   5.949  0.9551 -0.9339  0.9207
18228TIP3    H276176   0.571   5.339   5.907  1.2204  1.8928  1.1120
18229TIP3   OH276177   6.810   3.490   3.528 -0.5581 -0.7336 -0.6961
18229TIP3    H176178   6.784   3.566   3.477  0.8069  0.2205 -0.0301
18229TIP3    H276179   6.902   3.504   3.549 -0.8199 -1.4885  1.2797
18230TIP3   OH276180   5.557   3.132  13.239  0.2398 -0.0512  0.6371
18230TIP3    H176181   5.492   3.119  13.308 -0.3081 -0.2963  0.0907
18230TIP3    H276182   5.507   3.120  13.158  0.5037  1.7782  0.1642
18231TIP3   OH276183   0.341   0.932   0.183  0.1265 -0.4076  0.0034
18231TIP3    H176184   0.375   1.008   0.137 -0.2750  1.6612  2.8876
18231TIP3    H276185   0.321   0.869   0.113  0.2942  2.1440 -2.5246
18232TIP3   OH276186   6.025   3.950   2.041  0.1537  0.1112  0.1478
18232TIP3    H176187   6.007   3.864   2.078 -0.0511 -0.1956 -0.6349
18232TIP3    H276188   6.011   3.939   1.947  0.4518  0.9153 -0.0016
18233TIP3   OH276189   4.430   2.449   3.552  0.7022  0.1982  0.0937
18233TIP3    H176190   4.382   2.530   3.536  1.8104  0.9305  0.3381
18233TIP3    H276191   4.415   2.431   3.645 -1.0183 -0.8942 -0.3572
18234TIP3   OH276192   3.540   4.421  15.667 -0.0705  0.1121 -0.4040
18234TIP3    H176193   3.462   4.422  15.722 -0.1985 -1.4603 -0.5043
18234TIP3    H276194   3.507   4.426  15.577  0.0493  1.1592 -0.3934
18235TIP3   OH276195   4.893   0.012  11.775 -0.5315 -0.0339  0.1404
18235TIP3    H176196   4.881   0.002  11.681 -1.0171 -0.7878  0.2678
18235TIP3    H276197   4.976  -0.032  11.794 -1.2084 -1.3096  0.2741
18236TIP3   OH276198   6.269   2.902  12.230 -0.4213  0.2704  0.2260
18236TIP3    H176199   6.304   2.826  12.184  0.2913  0.5151  0.3342
18236TIP3    H276200   6.231   2.957  12.162  2.5951  1.7110 -0.4951
18237TIP3   OH276201   1.764   2.050   5.570 -1.1606  0.2199  0.0544
18237TIP3    H176202   1.676   2.046   5.608 -1.3750  1.0562 -0.3334
18237TIP3    H276203   1.767   2.135   5.526 -0.4223 -0.1255 -0.5860
18238TIP3   OH276204   5.792   0.873   5.419  0.3284  0.0753 -0.4149
18238TIP3    H176205   5.773   0.783   5.392 -1.7178  0.2057  0.4346
18238TIP3    H276206   5.748   0.928   5.354  0.5814  0.4446 -0.2794
18239TIP3   OH276207   4.531   0.315   0.993  0.3963 -0.4654 -0.2083
18239TIP3    H176208   4.505   0.391   0.940 -0.1371  0.0209  0.7297
18239TIP3    H276209   4.456   0.256   0.988  0.5908 -0.6877 -0.4917
18240TIP3   OH276210   4.429   4.412  14.298 -0.5591  0.2675  0.0370
18240TIP3    H176211   4.487   4.339  14.317  1.4253  0.5652 -3.8779
18240TIP3    H276212   4.353   4.372  14.256 -1.6506  0.1990  1.9468
18241TIP3   OH276213   3.898   4.789  11.858 -0.1882 -0.1795  0.1930
18241TIP3    H176214   3.886   4.697  11.885 -0.9240 -0.3401 -0.6441
18241TIP3    H276215   3.885   4.839  11.939 -3.5261 -0.5671  0.0466
18242TIP3   OH276216   5.850   5.537  12.785 -0.0185 -0.4546  0.1371
18242TIP3    H176217   5.791   5.509  12.714 -0.9664  1.1337  0.2405
18242TIP3    H276218   5.887   5.455  12.818 -0.8120 -1.3761 -1.1032
18243TIP3   OH276219   4.143   4.802   6.527  0.1890 -0.1891 -0.0295
18243TIP3    H176220   4.236   4.812   6.546  0.2498  0.3468 -0.5630
18243TIP3    H276221   4.099   4.865   6.584  0.2216  0.0920 -0.3078
18244TIP3   OH276222   0.926   3.078   1.403  0.7880  0.2620 -0.0592
18244TIP3    H176223   0.898   3.114   1.319  0.3706 -1.1087 -0.5315
18244TIP3    H276224   0.869   3.120   1.467 -1.2964 -1.2514 -0.8429
18245TIP3   OH276225   1.184   4.812  13.859 -0.3923 -0.2697 -0.5360
18245TIP3    H176226   1.189   4.888  13.917  1.4514 -1.1890  0.5936
18245TIP3    H276227   1.249   4.830  13.791  0.2974 -0.9562 -0.0755
18246TIP3   OH276228   5.897   1.694   0.188 -0.1316 -0.2470  0.2840
18246TIP3    H176229   5.929   1.615   0.145 -0.6048 -0.6266  0.6106
18246TIP3    H276230   5.960   1.761   0.165  0.5873 -0.8483  0.4579
18247TIP3   OH276231   0.390   2.977   5.443  0.4055  0.2119 -0.5992
18247TIP3    H176232   0.428   2.958   5.529 -1.2877 -1.2146 -0.0978
18247TIP3    H276233   0.460   2.959   5.381  1.0690 -0.6640  0.3684
18248TIP3   OH276234   2.539   3.591   1.842  0.3324 -0.3193 -0.4131
18248TIP3    H176235   2.554   3.626   1.930  0.3459 -1.0728 -0.1093
18248TIP3    H276236   2.583   3.506   1.842 -0.1561 -0.5828 -0.9580
18249TIP3   OH276237   3.108   6.073   2.885 -0.0402  0.3114  0.1539
18249TIP3    H176238   3.083   6.160   2.915  0.4793  0.4166  0.2885
18249TIP3    H276239   3.201   6.067   2.904 -0.2638 -0.6335  1.0180
18250TIP3   OH276240   5.489   5.047   3.529  0.0007 -1.0049 -0.2363
18250TIP3    H176241   5.563   5.050   3.590  1.1278  1.6281 -1.5963
18250TIP3    H276242   5.507   4.970   3.474  0.2884 -1.9178  1.0787
18251TIP3   OH276243   5.292   1.121  11.124  0.7851  0.7504 -0.7196
18251TIP3    H176244   5.370   1.066  11.136 -0.1475 -0.7890 -1.3411
18251TIP3    H276245   5.262   1.100  11.035 -1.1704  0.1780  0.0375
18252TIP3   OH276246   3.099   3.392  16.199 -0.5930 -0.4784  0.1779
18252TIP3    H176247   3.091   3.342  16.280  0.4918 -1.1673 -0.0994
18252TIP3    H276248   3.011   3.424  16.181 -1.2271 -1.8483  0.6733
18253TIP3   OH276249   5.536   3.353  16.112  0.1150  0.0247  0.0711
18253TIP3    H176250   5.515   3.441  16.080  3.3253  0.4598 -1.1866
18253TIP3    H276251   5.592   3.316  16.044 -0.6022 -2.7808  0.8943
18254TIP3   OH276252   5.466   6.802   0.517  0.0023 -0.3929  0.0771
18254TIP3    H176253   5.500   6.850   0.441 -1.0914  0.4325  0.1002
18254TIP3    H276254   5.460   6.711   0.486 -1.8626  0.1480 -1.3767
18255TIP3   OH276255   0.798   2.006   2.542  0.2048  0.7221 -0.4886
18255TIP3    H176256   0.763   2.095   2.538 -1.2697  0.4306  2.8114
18255TIP3    H276257   0.893   2.017   2.534  0.1106  2.7303  0.5809
18256TIP3   OH276258   3.401   6.370   5.002 -0.9040  0.0175  0.1410
18256TIP3    H176259   3.423   6.406   4.916  1.7310  0.8858  1.0832
18256TIP3    H276260   3.347   6.293   4.982 -1.8127  1.1560 -2.1736
18257TIP3   OH276261   4.437   6.073   5.747  0.2497  0.1160  0.5636
18257TIP3    H176262   4.435   6.122   5.664  0.8303  1.8861  1.5572
18257TIP3    H276263   4.351   6.031   5.751  0.6749 -1.1722 -1.5587
18258TIP3   OH276264   6.339   0.711   3.848 -0.4064  0.3728 -0.0458
18258TIP3    H176265   6.254   0.723   3.806 -0.2410  1.3459 -0.1285
18258TIP3    H276266   6.397   0.773   3.804  0.8178 -1.4835 -1.1947
18259TIP3   OH276267   2.999   5.033   0.259  0.2243  0.2018  0.6008
18259TIP3    H176268   3.064   4.979   0.215  0.5659  2.1331 -1.4847
18259TIP3    H276269   2.920   5.024   0.204  0.3114  1.7822  0.1668
18260TIP3   OH276270   5.491   1.436   0.496 -0.0031 -0.1970  0.2310
18260TIP3    H176271   5.452   1.428   0.409 -0.5193  0.3040  0.4036
18260TIP3    H276272   5.424   1.483   0.547  1.7514  2.9530 -0.0879
18261TIP3   OH276273   4.928   1.750  16.677  0.3212 -0.4837  0.0111
18261TIP3    H176274   4.911   1.810  16.605 -1.7883  0.1408  0.9498
18261TIP3    H276275   5.018   1.768  16.703  0.0576  1.6282 -0.3610
18262TIP3   OH276276   5.841   0.450   1.696  0.0140  0.4603  0.0121
18262TIP3    H176277   5.907   0.491   1.641 -0.7902 -0.9215 -2.0898
18262TIP3    H276278   5.758   0.489   1.667 -0.3375  0.5829  1.1064
18263TIP3   OH276279   0.723   0.800  14.408  0.1497  0.6584 -0.6618
18263TIP3    H176280   0.768   0.845  14.337  1.2797  2.1802  0.9372
18263TIP3    H276281   0.631   0.801  14.383  0.4887  1.3358 -1.9792
18264TIP3   OH276282   0.311   3.741  16.951  0.3711 -0.1305 -0.1921
18264TIP3    H176283   0.338   3.662  16.999 -0.3600 -0.9246 -1.0276
18264TIP3    H276284   0.388   3.798  16.952  0.8109 -0.7179  0.7132
18265TIP3   OH276285   2.591   3.225  16.853  0.1014 -0.5843  0.3162
18265TIP3    H176286   2.499   3.245  16.834  0.3284 -0.1708 -0.3753
18265TIP3    H276287   2.595   3.129  16.852  0.1141 -0.6222 -1.9676
18266TIP3   OH276288   3.256   1.638  15.906  0.2780  0.1504 -0.6095
18266TIP3    H176289   3.202   1.575  15.858 -2.8466  1.8789  0.3425
18266TIP3    H276290   3.249   1.719  15.854 -0.1512  1.0596  0.7987
18267TIP3   OH276291   4.755   5.800  13.378  0.4713 -0.7763 -0.4967
18267TIP3    H176292   4.698   5.776  13.305 -0.5152 -1.1498  0.3685
18267TIP3    H276293   4.760   5.896  13.374  0.2926 -0.7841 -0.9592
18268TIP3   OH276294   5.100   1.910  10.259 -0.4238 -0.5275  0.0034
18268TIP3    H176295   5.041   1.865  10.198 -2.2517 -1.4800  2.3097
18268TIP3    H276296   5.076   2.003  10.251 -1.1818 -0.7278 -0.1674
18269TIP3   OH276297   1.780   0.455  12.513 -0.1835 -0.1436  0.2369
18269TIP3    H176298   1.737   0.371  12.527 -0.6819  0.1017  0.1741
18269TIP3    H276299   1.862   0.433  12.468  0.2574 -0.7109  1.2712
18270TIP3   OH276300   3.470   3.891  16.179  0.5415  0.2069  0.2998
18270TIP3    H176301   3.447   3.803  16.147  0.3273  0.0096  0.9698
18270TIP3    H276302   3.515   3.875  16.262  1.1459  0.7041  0.0742
18271TIP3   OH276303   3.885   2.181  15.396 -0.5324  0.4004 -0.2252
18271TIP3    H176304   3.905   2.129  15.474  2.0101  0.1337 -0.9498
18271TIP3    H276305   3.861   2.116  15.330 -1.1600  0.4972 -0.0974
18272TIP3   OH276306   1.483   4.447  13.688 -0.3424 -0.4759 -0.3914
18272TIP3    H176307   1.506   4.537  13.708 -1.9901 -0.2743  0.8046
18272TIP3    H276308   1.482   4.443  13.593  0.6015  0.5181 -0.4597
18273TIP3   OH276309   4.348   3.880  15.351 -0.6126 -0.4846 -0.3504
18273TIP3    H176310   4.395   3.837  15.280  1.4637 -0.8808  1.1430
18273TIP3    H276311   4.317   3.962  15.314 -0.3167 -1.0572 -1.9291
18274TIP3   OH276312   0.374   6.790   1.165 -0.3839  0.4465 -0.1174
18274TIP3    H176313   0.297   6.734   1.167 -0.5764  0.7392  1.0255
18274TIP3    H276314   0.369   6.835   1.080 -1.4257  0.4039 -0.0828
18275TIP3   OH276315   4.495   3.411  16.913  0.8154 -1.1911 -0.7767
18275TIP3    H176316   4.589   3.426  16.912  0.4456  1.7630 -0.8275
18275TIP3    H276317   4.470   3.406  16.821  0.3444  3.7224 -1.1557
18276TIP3   OH276318   2.071   4.759   4.303 -0.4436  0.2987 -0.0346
18276TIP3    H176319   2.105   4.820   4.237 -0.7107 -1.0148 -1.4231
18276TIP3    H276320   2.104   4.674   4.277 -1.1655 -0.3629  1.1253
18277TIP3   OH276321   6.635   6.027  12.887 -0.0252 -0.7360 -0.1892
18277TIP3    H176322   6.634   6.113  12.846  2.6745 -0.1088  0.8290
18277TIP3    H276323   6.593   5.969  12.824  0.2383  0.9069 -1.9476
18278TIP3   OH276324   3.655   6.323  12.444  0.8888 -0.0413 -0.1728
18278TIP3    H176325   3.681   6.318  12.536 -1.4238  0.9071  0.6050
18278TIP3    H276326   3.736   6.307  12.395  2.2263 -0.3291  1.9995
18279TIP3   OH276327   0.783   2.254   0.286  0.3289  0.2139 -0.6913
18279TIP3    H176328   0.848   2.257   0.217  0.0366  0.5262 -0.9545
18279TIP3    H276329   0.820   2.195   0.352  0.9748  0.5587 -0.7373
18280TIP3   OH276330   4.829   3.250  14.530  0.0853 -0.0405  0.3493
18280TIP3    H176331   4.877   3.326  14.496 -0.2206  0.8576  1.8549
18280TIP3    H276332   4.737   3.269  14.510  0.0753 -0.3884  0.0510
18281TIP3   OH276333   0.419   0.066   0.154 -0.2775 -0.2572 -0.2653
18281TIP3    H176334   0.323   0.073   0.155 -0.2613  0.9016  2.5224
18281TIP3    H276335   0.438  -0.014   0.202  0.1647 -0.1637 -0.2847
18282TIP3   OH276336   6.626   3.283  17.152  0.2968  0.0413 -0.3362
18282TIP3    H176337   6.659   3.256  17.066  1.2822 -0.7027  0.2475
18282TIP3    H276338   6.621   3.378  17.147  0.4291  0.0088 -1.1867
18283TIP3   OH276339   3.503   3.957   4.765  0.3114 -0.7695  0.4411
18283TIP3    H176340   3.444   4.008   4.820  1.9504 -0.1282  1.6793
18283TIP3    H276341   3.573   4.018   4.742  0.5729 -1.5400 -0.8916
18284TIP3   OH276342   3.257   1.437  16.754  0.4124 -0.2874  0.0500
18284TIP3    H176343   3.185   1.376  16.773  0.7262 -0.9886 -0.9202
18284TIP3    H276344   3.325   1.381  16.716  1.6541  0.2923  1.3760
18285TIP3   OH276345   5.105   4.891  11.894  0.2764  0.1617 -0.3596
18285TIP3    H176346   5.185   4.839  11.888  0.2381  0.0208  0.3473
18285TIP3    H276347   5.034   4.827  11.888  0.2226  0.1998 -0.1025
18286TIP3   OH276348   1.295   2.607   4.536 -0.4615 -0.1135 -0.4621
18286TIP3    H176349   1.301   2.528   4.483 -1.3201 -0.4642 -0.0511
18286TIP3    H276350   1.385   2.623   4.566  0.0603  0.1431 -2.0520
18287TIP3   OH276351   2.070   3.032   2.429 -0.2220 -0.1293  0.4080
18287TIP3    H176352   2.124   3.095   2.382 -1.1493  1.0044  0.8042
18287TIP3    H276353   2.004   3.085   2.473 -1.6264 -1.4508 -0.0108
18288TIP3   OH276354   2.401   6.636  12.395  0.1150 -0.5696  0.4933
18288TIP3    H176355   2.377   6.641  12.487 -0.2239 -2.2091  0.5232
18288TIP3    H276356   2.484   6.589  12.394 -0.2994 -1.3049 -0.0870
18289TIP3   OH276357   3.982   4.328  13.422 -0.5019 -0.0154  0.0383
18289TIP3    H176358   4.067   4.370  13.428  1.1538 -3.1705  0.7281
18289TIP3    H276359   3.979   4.290  13.334 -0.9132 -0.4924  0.2527
18290TIP3   OH276360   3.405   3.378  12.041 -0.6285 -0.0188 -0.1246
18290TIP3    H176361   3.460   3.352  12.114 -0.4173 -0.3196 -0.3874
18290TIP3    H276362   3.323   3.408  12.081 -0.2464  0.5065  0.2705
18291TIP3   OH276363   4.690   6.047  14.093  0.4762 -0.6163  0.2910
18291TIP3    H176364   4.682   6.115  14.026 -0.3923 -0.7301  0.2746
18291TIP3    H276365   4.691   5.965  14.045  1.6490 -0.6352  0.3027
18292TIP3   OH276366   6.431   3.723   4.640  0.4436 -0.0602 -0.1841
18292TIP3    H176367   6.426   3.672   4.721  0.0158 -0.4488 -0.4456
18292TIP3    H276368   6.508   3.779   4.651  1.6442 -1.6181 -0.3814
18293TIP3   OH276369   1.013   5.158  12.504 -0.3541 -0.4298  0.5415
18293TIP3    H176370   1.084   5.221  12.492 -0.4792 -0.1278  1.2956
18293TIP3    H276371   1.003   5.151  12.599  0.3549 -2.4097  0.5177
18294TIP3   OH276372   0.496   4.288   1.931 -0.3667 -0.1802  0.1848
18294TIP3    H176373   0.576   4.253   1.971 -0.1656  0.0193 -0.0410
18294TIP3    H276374   0.451   4.210   1.897  1.2302 -0.0856 -2.4374
18295TIP3   OH276375   4.750   3.166  12.051 -0.0009 -0.6640  0.6014
18295TIP3    H176376   4.755   3.210  11.966 -1.2990 -1.4128  0.1052
18295TIP3    H276377   4.811   3.215  12.107 -0.7782  1.2388 -0.1374
18296TIP3   OH276378   5.610   3.779  15.721  0.6484  0.6899  0.2340
18296TIP3    H176379   5.694   3.738  15.697  0.6671 -0.1393  1.6041
18296TIP3    H276380   5.544   3.725  15.677  0.6496 -1.1638  2.2937
18297TIP3   OH276381   0.705   2.597  13.462 -0.1166  0.3983 -0.6195
18297TIP3    H176382   0.795   2.582  13.435 -0.1290 -0.9775  0.0546
18297TIP3    H276383   0.703   2.570  13.554 -1.2115  0.4435 -0.6225
18298TIP3   OH276384   1.870   4.476   1.924 -0.0378 -0.5111 -0.0934
18298TIP3    H176385   1.958   4.439   1.913  0.4327  0.7341 -0.8326
18298TIP3    H276386   1.829   4.467   1.839 -0.0898  0.1948 -0.1492
18299TIP3   OH276387   3.936   6.492  13.734 -0.0544  0.2444 -0.3592
18299TIP3    H176388   3.859   6.547  13.750 -0.3031  0.4652 -2.1104
18299TIP3    H276389   3.985   6.538  13.667  0.0244 -1.3713 -1.4723
18300TIP3   OH276390   4.208   0.422  15.037 -0.2773 -0.0309  1.0531
18300TIP3    H176391   4.217   0.383  15.123 -1.3551  0.8886  1.6129
18300TIP3    H276392   4.161   0.357  14.985  2.2032 -1.4987  0.4577
18301TIP3   OH276393   4.210   6.698  13.924 -0.1001 -0.4493  0.4287
18301TIP3    H176394   4.186   6.606  13.938 -0.7828 -0.0516  2.1814
18301TIP3    H276395   4.278   6.714  13.989  0.2035  0.2320 -0.0510
18302TIP3   OH276396   2.412   6.661  13.810  0.1526 -0.6517 -0.3150
18302TIP3    H176397   2.349   6.589  13.808 -0.1963 -0.3280 -1.2503
18302TIP3    H276398   2.361   6.736  13.840  0.5302 -0.7917  0.7169
18303TIP3   OH276399   4.379   0.168   1.351 -0.7136 -0.7344  0.5776
18303TIP3    H176400   4.347   0.107   1.418 -1.0059  0.2766  1.3922
18303TIP3    H276401   4.350   0.130   1.268 -1.7303 -1.2151  1.1321
18304TIP3   OH276402   5.488   3.378  12.526 -0.1192 -0.2524 -0.2496
18304TIP3    H176403   5.427   3.307  12.504  0.3312 -0.3734 -1.1539
18304TIP3    H276404   5.483   3.437  12.451 -0.3776  0.6121  0.4302
18305TIP3   OH276405   3.121   0.314  16.409  0.1832  0.1998 -0.2482
18305TIP3    H176406   3.167   0.347  16.331  0.9728 -2.0701 -0.8424
18305TIP3    H276407   3.079   0.233  16.379 -0.7326  0.0452  1.3511
18306TIP3   OH276408   4.413   1.574   6.929 -0.0719 -0.8096  0.0260
18306TIP3    H176409   4.431   1.496   6.877  0.3307 -0.0887 -0.9292
18306TIP3    H276410   4.319   1.589   6.918  0.1235 -0.3019 -1.0086
18307TIP3   OH276411   5.783   1.217   6.358 -0.2029 -0.1713 -0.1538
18307TIP3    H176412   5.828   1.265   6.428 -0.2798 -0.6271  0.2129
18307TIP3    H276413   5.829   1.134   6.352 -1.7019 -1.1695  1.0758
18308TIP3   OH276414   5.437   6.377   3.136 -0.1187 -0.1263  0.2734
18308TIP3    H176415   5.486   6.345   3.211  0.4497 -1.0816 -0.4852
18308TIP3    H276416   5.455   6.314   3.066 -1.6525  0.0264 -0.3099
18309TIP3   OH276417   3.789   2.732  12.299 -0.4851 -0.6634  0.2549
18309TIP3    H176418   3.826   2.645  12.282 -2.3733 -1.3344 -0.8383
18309TIP3    H276419   3.694   2.716  12.304 -0.9751  1.4773 -1.0980
18310TIP3   OH276420   1.790   3.151  12.726  0.2749  0.6014  0.1070
18310TIP3    H176421   1.840   3.175  12.648  1.8489  0.9263  1.1644
18310TIP3    H276422   1.735   3.227  12.743  0.9518  1.1155  0.0785
18311TIP3   OH276423   0.202   1.473  12.687  0.6414 -0.0591  0.3301
18311TIP3    H176424   0.259   1.520  12.627 -0.0749 -1.0872 -1.2346
18311TIP3    H276425   0.115   1.508  12.670  0.3488 -0.7624  0.3378
18312TIP3   OH276426   3.286   0.630  12.709 -0.0713 -1.1377 -0.5168
18312TIP3    H176427   3.224   0.627  12.636  0.7603 -1.5409 -1.2308
18312TIP3    H276428   3.299   0.538  12.731  2.4909 -1.3291 -2.3497
18313TIP3   OH276429   5.286   0.824  14.222  0.1236  0.3355 -0.2956
18313TIP3    H176430   5.238   0.901  14.190 -1.2901 -1.1169 -1.8915
18313TIP3    H276431   5.254   0.812  14.311  0.1661  1.4550 -0.1184
18314TIP3   OH276432   2.423   3.555   2.799 -0.3576 -0.3412 -0.2572
18314TIP3    H176433   2.453   3.470   2.831 -1.6322 -1.2183 -1.2840
18314TIP3    H276434   2.463   3.565   2.713  1.0474  0.8619  0.4848
18315TIP3   OH276435   1.625   3.904   2.261  0.2939  0.4629  0.0664
18315TIP3    H176436   1.607   3.941   2.175  0.4873  0.5869  0.0780
18315TIP3    H276437   1.542   3.910   2.308  0.1438  0.2488 -0.1641
18316TIP3   OH276438   5.043   6.377   4.023  0.0352  0.3433  0.8806
18316TIP3    H176439   5.127   6.376   4.069 -0.3434 -1.8208  1.6510
18316TIP3    H276440   5.065   6.362   3.931  0.4513 -2.3491  1.3410
18317TIP3   OH276441   2.173   3.652  16.913 -1.1831  0.4221 -0.5383
18317TIP3    H176442   2.152   3.558  16.913  1.2691 -0.2221  0.2744
18317TIP3    H276443   2.204   3.669  17.002  0.3637  1.4668 -1.2372
18318TIP3   OH276444   3.163   2.036  15.250 -0.3638 -0.1822  0.5499
18318TIP3    H176445   3.148   1.948  15.285  0.9118 -0.6554 -0.0519
18318TIP3    H276446   3.240   2.068  15.298 -0.1491  0.1641 -0.0167
18319TIP3   OH276447   3.076   3.255  14.778  0.5747 -0.1392 -0.5663
18319TIP3    H176448   3.117   3.305  14.849 -1.4649 -0.1303  0.6974
18319TIP3    H276449   2.987   3.289  14.774 -1.2153 -4.0179  0.8746
18320TIP3   OH276450   3.549   4.768   0.264  0.5017 -0.3768 -0.2461
18320TIP3    H176451   3.622   4.713   0.293 -0.2165 -0.2449  2.0521
18320TIP3    H276452   3.472   4.728   0.305 -0.3236  1.0952 -0.3069
18321TIP3   OH276453   5.301   4.473   4.521  0.5597 -0.2011  0.0319
18321TIP3    H176454   5.289   4.561   4.556 -0.6268 -0.6143  0.6802
18321TIP3    H276455   5.236   4.465   4.451  1.2966 -0.2375 -0.6635
18322TIP3   OH276456   0.676   0.107   0.055  0.2184 -0.1595 -0.2222
18322TIP3    H176457   0.589   0.089   0.090 -0.0455 -0.6451 -1.0847
18322TIP3    H276458   0.731   0.119   0.133 -0.1544 -2.1006  0.4126
18323TIP3   OH276459   1.984   0.558  16.397 -0.6197  0.5615  0.2297
18323TIP3    H176460   2.040   0.486  16.427 -2.3353 -1.5072 -1.2110
18323TIP3    H276461   1.960   0.605  16.477 -0.0409 -0.9024  1.3031
18324TIP3   OH276462   2.409   1.072  10.939 -0.0741 -0.4402  0.6042
18324TIP3    H176463   2.482   1.088  10.879  1.0393  0.0705  2.0241
18324TIP3    H276464   2.331   1.082  10.886  0.8835 -1.6855 -1.1465
18325TIP3   OH276465   3.971   2.583  11.924 -0.0423 -0.1247 -0.5307
18325TIP3    H176466   4.037   2.538  11.871  0.2142  0.1796 -0.4757
18325TIP3    H276467   3.889   2.570  11.876  0.0733 -0.4137 -0.6555
18326TIP3   OH276468   6.615   6.375  14.556 -0.3716 -0.4964 -0.0291
18326TIP3    H176469   6.640   6.363  14.648 -0.3832 -0.1409  0.0243
18326TIP3    H276470   6.580   6.290  14.529 -2.4210 -0.0426  0.9559
18327TIP3   OH276471   1.678   6.049  15.467  0.1420 -0.1059 -0.0891
18327TIP3    H176472   1.769   6.054  15.439  0.0818  0.4308 -0.1966
18327TIP3    H276473   1.681   6.003  15.551  0.5549  0.2584  0.0962
18328TIP3   OH276474   4.753   1.467   2.775  0.2522  0.2436  0.0947
18328TIP3    H176475   4.768   1.381   2.815  1.0206  0.1180 -0.4378
18328TIP3    H276476   4.737   1.526   2.849  2.9430  0.2914  0.7414
18329TIP3   OH276477   5.397   5.225   4.616 -0.3145  0.1731  0.9850
18329TIP3    H176478   5.479   5.192   4.653  0.0139 -0.5840 -0.3375
18329TIP3    H276479   5.423   5.266   4.533 -1.3373 -0.6578  0.2231
18330TIP3   OH276480   0.635   6.173  14.346  0.2125 -0.4018 -0.0607
18330TIP3    H176481   0.562   6.159  14.285 -0.1744 -0.8902  0.5167
18330TIP3    H276482   0.620   6.111  14.417  0.9130 -0.1475  0.3154
18331TIP3   OH276483   5.612   3.862   5.409  0.1835 -0.4318 -0.3481
18331TIP3    H176484   5.575   3.858   5.321  2.9942  1.9132 -1.8304
18331TIP3    H276485   5.573   3.940   5.449  1.0124  0.1542 -0.6570
18332TIP3   OH276486   3.223   3.844   4.724  0.2181  0.5671  0.4078
18332TIP3    H176487   3.317   3.858   4.738  0.9177 -1.0002 -2.0198
18332TIP3    H276488   3.192   3.927   4.689  0.5819  1.1993  1.4994
18333TIP3   OH276489   0.408   5.539  13.235  0.1957 -0.3333  0.0035
18333TIP3    H176490   0.480   5.488  13.271  1.4627  1.2196 -0.2144
18333TIP3    H276491   0.381   5.596  13.307 -0.5199 -0.5792 -0.0621
18334TIP3   OH276492   0.092   6.168  12.200  0.0786 -0.0074 -0.3861
18334TIP3    H176493   0.031   6.096  12.183  0.5792 -0.2575 -1.1860
18334TIP3    H276494   0.063   6.205  12.283 -0.8784 -0.4102 -0.5296
18335TIP3   OH276495   0.877   3.364  11.840  0.0919  0.0784 -0.0135
18335TIP3    H176496   0.968   3.370  11.870  0.1611 -0.8217 -0.0332
18335TIP3    H276497   0.883   3.347  11.746 -0.0633 -1.2807  0.2024
18336TIP3   OH276498   3.255   4.032  12.262  0.3742 -0.0875  0.5402
18336TIP3    H176499   3.302   4.020  12.180 -0.8691 -0.0396 -0.2068
18336TIP3    H276500   3.288   3.963  12.319  1.7719  0.3252  0.2616
18337TIP3   OH276501   3.202   0.847   0.897  0.0709 -0.0038 -1.3243
18337TIP3    H176502   3.153   0.806   0.826  0.8562 -0.3519 -1.6822
18337TIP3    H276503   3.237   0.773   0.947 -0.3402  0.2390 -0.6685
18338TIP3   OH276504   5.228   4.229  12.392 -0.3921 -0.9479 -0.5399
18338TIP3    H176505   5.322   4.214  12.386 -0.1686 -0.1640  0.6969
18338TIP3    H276506   5.200   4.178  12.468 -0.4720  0.8844  0.7280
18339TIP3   OH276507   0.585   0.054   6.150 -0.0455  0.7599 -0.2157
18339TIP3    H176508   0.582   0.065   6.245  0.9000 -0.3573 -0.0361
18339TIP3    H276509   0.645  -0.019   6.136 -1.3490 -0.1139 -1.5945
18340TIP3   OH276510   1.901   6.663   2.276  0.5164 -0.0601 -0.0444
18340TIP3    H176511   1.820   6.702   2.242  0.6950 -1.3504 -2.0940
18340TIP3    H276512   1.971   6.708   2.230  1.0692  1.3262  2.0076
18341TIP3   OH276513   4.309   1.610  15.848 -0.5804  0.3611  0.4428
18341TIP3    H176514   4.223   1.576  15.824  0.1276 -1.5031  0.4320
18341TIP3    H276515   4.327   1.574  15.934  1.3749 -1.7017 -0.7287
18342TIP3   OH276516   1.734   2.896  12.021  0.0782 -0.1619 -0.0824
18342TIP3    H176517   1.695   2.916  11.936 -0.6876  0.1292  0.3227
18342TIP3    H276518   1.774   2.978  12.050 -0.8154  0.1196  0.4167
18343TIP3   OH276519   0.382   6.020   4.606  0.1924  0.5694 -0.1264
18343TIP3    H176520   0.444   6.079   4.650  0.4988 -0.9768  1.6778
18343TIP3    H276521   0.434   5.978   4.537  1.0588 -0.2571  0.9776
18344TIP3   OH276522   4.631   3.455   5.166 -0.4381 -0.0653 -0.1040
18344TIP3    H176523   4.575   3.385   5.133  1.3028 -1.6499  0.1534
18344TIP3    H276524   4.670   3.494   5.088 -2.0562  1.2980 -0.3161
18345TIP3   OH276525   3.364   6.785  13.004  0.0269  0.0095  0.1034
18345TIP3    H176526   3.305   6.730  13.055  0.3412  0.8416  1.4402
18345TIP3    H276527   3.306   6.838  12.949 -0.2631 -1.7787 -1.3768
18346TIP3   OH276528   3.577   4.163   3.988 -0.4916  0.3666 -0.5076
18346TIP3    H176529   3.596   4.247   3.946 -1.4988  0.3025 -1.1202
18346TIP3    H276530   3.523   4.116   3.925 -1.0148 -0.2285  0.3677
18347TIP3   OH276531   3.841   2.287   0.465  0.5860 -0.1230 -0.4511
18347TIP3    H176532   3.758   2.248   0.493  0.5812  0.8012  0.9439
18347TIP3    H276533   3.891   2.298   0.547  0.9287  1.9532 -0.8822
18348TIP3   OH276534   2.480   4.261   2.180 -0.2081 -0.6904  0.1424
18348TIP3    H176535   2.568   4.240   2.210  0.3189  0.9340 -0.1845
18348TIP3    H276536   2.423   4.232   2.251  0.6021 -1.3686  0.5398
18349TIP3   OH276537   1.064   6.082   4.362  0.2858 -0.1588 -0.5293
18349TIP3    H176538   1.102   6.163   4.330 -0.7232  0.5128 -0.0825
18349TIP3    H276539   1.083   6.082   4.456 -1.5085  0.6308 -0.1205
18350TIP3   OH276540   1.759   0.876   2.135  0.1699 -0.2558  0.0332
18350TIP3    H176541   1.704   0.870   2.212  1.4132 -1.9792  0.8544
18350TIP3    H276542   1.726   0.808   2.076 -0.6723  0.9443 -0.9228
18351TIP3   OH276543   5.361   1.740  13.424 -0.1576 -0.1990  0.1322
18351TIP3    H176544   5.391   1.697  13.504 -2.5558  1.5730  2.1741
18351TIP3    H276545   5.298   1.806  13.454 -1.4777  0.3396 -3.2602
18352TIP3   OH276546   6.092   6.583   3.773 -0.1319 -0.4327 -0.0215
18352TIP3    H176547   6.044   6.547   3.699  1.3411  0.8487 -1.6788
18352TIP3    H276548   6.086   6.678   3.762  0.1380 -0.2073  1.5015
18353TIP3   OH276549   6.748   4.908  11.427 -0.0517 -0.2532 -0.4570
18353TIP3    H176550   6.776   4.861  11.348 -0.0183 -0.7072 -0.1782
18353TIP3    H276551   6.660   4.874  11.444 -1.2055  1.7970 -1.8472
18354TIP3   OH276552   1.061   2.144  13.034  1.0735 -0.9839  0.0022
18354TIP3    H176553   1.095   2.233  13.046 -0.2943 -0.3737 -0.4392
18354TIP3    H276554   0.966   2.155  13.026  0.8840 -2.4785 -0.1711
18355TIP3   OH276555   1.252   0.978  14.941  0.2299 -0.0466  0.0989
18355TIP3    H176556   1.192   0.919  14.895 -0.1063 -1.1685  1.8649
18355TIP3    H276557   1.331   0.979  14.887 -1.3823  1.6894 -2.4344
18356TIP3   OH276558   2.328   0.956   5.019  0.4010 -0.1581  0.2720
18356TIP3    H176559   2.357   0.949   5.110 -0.9567  2.6916  1.0377
18356TIP3    H276560   2.373   1.033   4.985 -0.9981  0.3017 -0.6343
18357TIP3   OH276561   2.089   1.049   5.385 -0.2155 -0.1984 -0.1298
18357TIP3    H176562   2.122   1.050   5.475 -0.5569  0.1121 -0.0065
18357TIP3    H276563   2.138   0.979   5.343 -1.2304 -1.4833  0.7386
18358TIP3   OH276564   4.701   4.301   5.178  0.1547 -0.4443 -0.1227
18358TIP3    H176565   4.683   4.234   5.112  0.6447 -1.3537  0.6379
18358TIP3    H276566   4.779   4.269   5.223 -0.5112 -0.1583  1.2849
18359TIP3   OH276567   1.861   0.251   5.927 -0.5108 -0.3367  0.1865
18359TIP3    H176568   1.905   0.323   5.881 -0.8224  1.6298  2.7293
18359TIP3    H276569   1.781   0.236   5.876 -0.0576  0.5551 -0.8394
18360TIP3   OH276570   5.596   6.775   0.055 -0.3751 -0.2620  0.5463
18360TIP3    H176571   5.554   6.860   0.066 -0.3728  0.0018 -1.1247
18360TIP3    H276572   5.527   6.719   0.019  0.3227 -0.1517 -1.0795
18361TIP3   OH276573   1.259   3.953  12.303 -0.0961 -0.0926  0.0766
18361TIP3    H176574   1.175   3.917  12.276 -0.3891  0.4608  0.2247
18361TIP3    H276575   1.285   4.012  12.232  0.2711 -0.4271 -0.0683
18362TIP3   OH276576   5.551   0.852  16.038  0.0231  0.3050  0.0391
18362TIP3    H176577   5.560   0.939  15.998 -0.2849  0.5808  0.5516
18362TIP3    H276578   5.457   0.834  16.034  0.1281 -0.1581 -0.3772
18363TIP3   OH276579   0.679   0.172  13.606  0.4446  0.7429  0.3198
18363TIP3    H176580   0.688   0.162  13.511  2.6741  0.1338  0.5410
18363TIP3    H276581   0.622   0.100  13.632  0.0100  0.7688 -0.5196
18364TIP3   OH276582   5.019   1.993  14.314 -0.4152 -0.2057 -0.5541
18364TIP3    H176583   5.073   1.924  14.276  0.8592 -0.6036  1.8050
18364TIP3    H276584   5.056   2.008  14.401 -3.6569  0.0356  0.9246
18365TIP3   OH276585   3.561   1.439   5.130  0.1692  0.2741  0.0387
18365TIP3    H176586   3.608   1.366   5.088 -1.6115 -0.1243 -1.3868
18365TIP3    H276587   3.518   1.484   5.057  0.0029  1.8610  1.0779
18366TIP3   OH276588   3.876   0.474  15.903  0.0889  0.5643 -0.1323
18366TIP3    H176589   3.926   0.400  15.938  0.9253  1.3250  0.3074
18366TIP3    H276590   3.881   0.464  15.808 -0.9489 -0.6864 -0.0914
18367TIP3   OH276591   6.030   3.661   5.639 -0.3142 -0.5517 -0.3065
18367TIP3    H176592   5.986   3.649   5.555  0.5322  0.8639 -0.9830
18367TIP3    H276593   5.999   3.746   5.671  2.0534  0.6161 -0.9304
18368TIP3   OH276594   1.091   6.241  13.386  0.6692 -0.0055  0.0763
18368TIP3    H176595   1.140   6.323  13.396  0.4769  0.0287  0.8118
18368TIP3    H276596   1.023   6.246  13.453  0.0791 -0.3564 -0.4902
18369TIP3   OH276597   6.680   0.980  12.433 -0.3355  0.3638  0.1680
18369TIP3    H176598   6.769   0.945  12.433  0.2549  1.5083 -2.9663
18369TIP3    H276599   6.627   0.910  12.395 -0.0333  0.9699 -1.4643
18370TIP3   OH276600   5.133   1.907   4.757 -0.2374  0.6417  1.0586
18370TIP3    H176601   5.200   1.902   4.825 -1.0840  3.0032  2.1675
18370TIP3    H276602   5.160   1.981   4.702  0.8526 -1.6664 -1.7901
18371TIP3   OH276603   0.389   0.968  10.609 -0.6320 -0.3371  0.8208
18371TIP3    H176604   0.392   0.996  10.700 -1.3067  1.4935  0.3414
18371TIP3    H276605   0.340   0.886  10.610 -0.4793 -0.4252  2.1199
18372TIP3   OH276606   6.671   4.915   3.833  0.3439  0.1838  0.4750
18372TIP3    H176607   6.710   4.829   3.818  0.7097  0.3721  0.3520
18372TIP3    H276608   6.655   4.950   3.745 -1.5134 -0.5210  0.4741
18373TIP3   OH276609   5.067   1.191   6.046 -0.3900 -0.6983 -0.0732
18373TIP3    H176610   5.104   1.152   6.125 -0.8104 -0.6309  0.1653
18373TIP3    H276611   5.003   1.127   6.015  0.0755 -0.9121 -0.6036
18374TIP3   OH276612   3.659   1.076  14.304  0.3421 -0.0287  0.1952
18374TIP3    H176613   3.580   1.023  14.304 -0.8409  1.6145  1.7803
18374TIP3    H276614   3.700   1.057  14.388  0.9160  0.1449 -0.0412
18375TIP3   OH276615   4.019   1.582  15.728 -0.7383  0.0767  0.2152
18375TIP3    H176616   3.945   1.538  15.686 -0.9286  1.0134 -0.4620
18375TIP3    H276617   4.070   1.618  15.655  0.2633 -0.3622  0.6897
18376TIP3   OH276618   3.432   6.328  14.488 -0.3628  0.3150  0.0651
18376TIP3    H176619   3.511   6.347  14.539  0.4101 -2.8872  0.2325
18376TIP3    H276620   3.459   6.339  14.397  0.6388 -1.6635  0.0712
18377TIP3   OH276621   3.765   2.623   6.850  0.3389 -0.2250  0.4425
18377TIP3    H176622   3.699   2.599   6.916  1.0344  0.7368  1.5287
18377TIP3    H276623   3.810   2.698   6.888 -0.6330  1.7840 -2.0397
18378TIP3   OH276624   1.878   1.880  15.778 -0.1911 -0.4439  0.0818
18378TIP3    H176625   1.806   1.847  15.724 -0.4130 -1.1812  0.8130
18378TIP3    H276626   1.954   1.877  15.719 -0.7669  0.4637 -0.7333
18379TIP3   OH276627   6.397   5.557  14.340  0.2108  0.6224  0.0198
18379TIP3    H176628   6.312   5.564  14.383 -0.2170 -1.4693 -0.4120
18379TIP3    H276629   6.376   5.554  14.247  0.8629  1.2322 -0.1555
18380TIP3   OH276630   0.232   5.061  14.079 -0.5201 -0.5202  0.1363
18380TIP3    H176631   0.265   5.151  14.082  0.5199 -0.7833 -1.8516
18380TIP3    H276632   0.269   5.024  13.999 -2.7824 -1.9991 -0.3351
18381TIP3   OH276633   5.031   6.498  16.847 -0.4433  0.3515  0.2067
18381TIP3    H176634   5.046   6.429  16.782  0.1593 -0.3658  1.0858
18381TIP3    H276635   5.065   6.577  16.806  1.1105 -0.3247  0.1329
18382TIP3   OH276636   2.691   2.049   1.838  0.4605 -0.0585 -0.2966
18382TIP3    H176637   2.637   2.070   1.914 -0.9217  0.5771 -1.4118
18382TIP3    H276638   2.677   1.956   1.823  0.0714 -0.0088 -0.2610
18383TIP3   OH276639   1.901   5.843   5.058 -0.5428 -0.2222  0.0420
18383TIP3    H176640   1.986   5.842   5.014 -0.4329  0.7009  0.2151
18383TIP3    H276641   1.922   5.858   5.150 -0.8122 -1.4949  0.3218
18384TIP3   OH276642   3.496   2.703  15.898  0.3133 -0.1506 -0.0936
18384TIP3    H176643   3.468   2.682  15.988  1.4563 -0.4687  0.1968
18384TIP3    H276644   3.474   2.624  15.848  1.1276 -0.6030  0.2375
18385TIP3   OH276645   2.171   4.477  14.551 -0.6527  0.1191 -0.1805
18385TIP3    H176646   2.217   4.417  14.610 -1.5825 -2.0288 -1.5334
18385TIP3    H276647   2.209   4.459  14.464 -1.0010  1.4794 -0.6437
18386TIP3   OH276648   5.178   0.306  14.959 -0.1512  0.1046 -0.3673
18386TIP3    H176649   5.091   0.276  14.932 -0.4589  0.3673  0.3234
18386TIP3    H276650   5.187   0.392  14.918 -0.2975  0.1631 -0.2749
18387TIP3   OH276651   6.538   2.232  15.743 -0.9424 -0.6662 -0.7736
18387TIP3    H176652   6.554   2.139  15.763  0.4736 -0.2640  0.1116
18387TIP3    H276653   6.565   2.243  15.652  1.5225 -0.5762 -0.0835
18388TIP3   OH276654   0.545   5.750   4.664  0.2249  0.5406 -0.8244
18388TIP3    H176655   0.523   5.803   4.740 -1.5332  0.7743 -1.4528
18388TIP3    H276656   0.602   5.682   4.698 -1.1596  0.1673  0.8971
18389TIP3   OH276657   3.585   2.039  17.213  0.0449  0.3821 -0.0605
18389TIP3    H176658   3.577   1.956  17.165 -2.1604  1.1980 -1.2300
18389TIP3    H276659   3.600   2.105  17.146  0.7429  1.0994  0.7662
18390TIP3   OH276660   0.655   1.626   1.754 -0.1038  0.0174  0.2633
18390TIP3    H176661   0.688   1.697   1.809 -0.1534 -0.1444  0.5056
18390TIP3    H276662   0.592   1.668   1.695 -0.6478  0.0683  0.8616
18391TIP3   OH276663   3.197   6.320  10.865 -0.3014  0.7883  0.1047
18391TIP3    H176664   3.135   6.353  10.800 -0.0566  0.0689 -0.5089
18391TIP3    H276665   3.215   6.230  10.838 -0.1592  0.4917  1.1503
18392TIP3   OH276666   6.479   3.248  15.952  0.3044 -0.6146  0.2263
18392TIP3    H176667   6.451   3.161  15.922 -1.3201  0.9304 -3.3059
18392TIP3    H276668   6.571   3.254  15.926 -0.2830 -0.4120 -1.9990
18393TIP3   OH276669   4.188   1.838   3.430 -0.3012  0.1587 -0.5233
18393TIP3    H176670   4.236   1.862   3.509  0.7542 -1.9838 -0.4209
18393TIP3    H276671   4.124   1.773   3.459  0.4022 -0.9922 -1.4312
18394TIP3   OH276672   2.014   0.946   2.022 -0.2070  0.2921 -0.1615
18394TIP3    H176673   1.982   0.977   1.937 -0.9283 -1.3941 -0.5354
18394TIP3    H276674   1.936   0.911   2.066  0.4141 -0.1792  0.5992
18395TIP3   OH276675   5.710   3.575   6.287 -0.0679 -0.0234  0.6481
18395TIP3    H176676   5.681   3.665   6.301 -1.7592 -0.7505  2.2890
18395TIP3    H276677   5.791   3.583   6.237  0.6392  2.4713  2.0240
18396TIP3   OH276678   3.790   2.893  13.294  0.4606  0.0749 -0.3839
18396TIP3    H176679   3.740   2.962  13.250  0.5585 -0.3404 -1.1603
18396TIP3    H276680   3.881   2.911  13.270  0.5253 -0.0808 -0.2526
18397TIP3   OH276681   4.978   0.632   3.523  1.0767  0.0200  0.6248
18397TIP3    H176682   4.976   0.566   3.593  0.8706  0.4292  1.0089
18397TIP3    H276683   4.897   0.617   3.474  0.1810  1.0471  1.7178
18398TIP3   OH276684   6.713   5.702   1.315 -0.6736  0.0830  0.3092
18398TIP3    H176685   6.684   5.793   1.321 -1.6178 -0.0486 -1.4916
18398TIP3    H276686   6.802   5.707   1.281 -1.4291  0.3633 -1.8352
18399TIP3   OH276687   0.333   4.870  12.679 -0.0559  0.0781  0.0736
18399TIP3    H176688   0.404   4.815  12.649 -0.4467  0.0741 -0.8573
18399TIP3    H276689   0.284   4.815  12.741 -1.6316 -1.4171 -2.3139
18400TIP3   OH276690   4.312   6.332  16.945 -0.6222  0.0733  0.2461
18400TIP3    H176691   4.278   6.409  16.990  1.0905 -0.4209  2.5538
18400TIP3    H276692   4.257   6.260  16.975 -1.9399  0.2688 -1.5645
18401TIP3   OH276693   5.950   5.553   0.087  0.3521 -0.6135  0.1848
18401TIP3    H176694   5.893   5.488   0.126 -0.0192 -0.4185 -0.0227
18401TIP3    H276695   5.891   5.622   0.056  0.6594 -0.5973 -0.4008
18402TIP3   OH276696   2.250   6.210  13.119  0.0900  0.1508  0.4418
18402TIP3    H176697   2.283   6.298  13.101  0.8780  0.1372  1.6973
18402TIP3    H276698   2.301   6.153  13.062 -0.0428  0.4521  0.0185
18403TIP3   OH276699   5.408   4.080   2.808 -0.0305 -0.0430 -0.2847
18403TIP3    H176700   5.461   4.092   2.728  0.6699  0.8176  0.2953
18403TIP3    H276701   5.386   3.987   2.807  0.3128 -0.1338 -1.2739
18404TIP3   OH276702   0.175   3.507  14.032 -0.6020  0.4278 -0.4127
18404TIP3    H176703   0.093   3.497  13.982 -1.2680  0.6553  0.6028
18404TIP3    H276704   0.146   3.533  14.120  0.5888  0.9076 -0.1478
18405TIP3   OH276705   6.315   3.106  13.217  0.4617  0.0990  0.1130
18405TIP3    H176706   6.220   3.100  13.202  0.6512  0.3890 -1.3552
18405TIP3    H276707   6.337   3.026  13.265 -0.4985 -0.0564  0.3165
18406TIP3   OH276708   5.701   0.502  11.885  0.4202 -0.1865 -0.0360
18406TIP3    H176709   5.661   0.502  11.971  2.2306 -1.1964  0.8628
18406TIP3    H276710   5.726   0.411  11.869  0.4334  0.0328 -1.4844
18407TIP3   OH276711   3.894   5.857   1.744 -0.5286 -0.4798  0.3962
18407TIP3    H176712   3.857   5.769   1.732  0.1854 -0.6719 -0.5234
18407TIP3    H276713   3.956   5.848   1.816 -1.5582 -0.3691  1.3234
18408TIP3   OH276714   3.917   6.665  11.501  0.4115  0.1027  0.6526
18408TIP3    H176715   3.888   6.698  11.416  0.8295 -0.1536  0.4063
18408TIP3    H276716   3.951   6.578  11.482  0.6046  0.0877  1.0660
18409TIP3   OH276717   4.233   2.921  12.772  0.4884 -0.1160  0.0574
18409TIP3    H176718   4.205   2.973  12.697  0.5988  0.1259  0.1833
18409TIP3    H276719   4.306   2.970  12.810  1.0759 -0.7340 -0.2539
18410TIP3   OH276720   3.109   2.392   3.311 -0.0739  0.2789  0.3586
18410TIP3    H176721   3.071   2.478   3.330 -0.4927 -0.1249  1.3859
18410TIP3    H276722   3.042   2.348   3.259 -0.0456  0.4054  0.2130
18411TIP3   OH276723   1.937   1.452  12.271  0.0450 -0.4270  0.1128
18411TIP3    H176724   1.909   1.400  12.346  0.8339 -0.9571  0.0487
18411TIP3    H276725   1.955   1.388  12.202 -1.4457  0.1000 -0.8112
18412TIP3   OH276726   3.220   0.020   5.888  0.4482  0.3988  0.3177
18412TIP3    H176727   3.224   0.099   5.834 -0.2272 -0.5891 -1.2544
18412TIP3    H276728   3.251  -0.050   5.830 -0.2810 -0.7027  1.2168
18413TIP3   OH276729   5.235   5.957   3.367 -0.0760 -0.6427  0.3818
18413TIP3    H176730   5.154   5.919   3.334  0.3157 -1.1109 -0.0729
18413TIP3    H276731   5.244   6.040   3.321 -0.6585 -0.2444  0.9713
18414TIP3   OH276732   2.405   1.888   4.634 -0.3879 -0.2263 -0.0945
18414TIP3    H176733   2.483   1.928   4.596 -0.4184 -0.1630 -0.0923
18414TIP3    H276734   2.437   1.831   4.703 -0.4739  2.0683  1.9744
18415TIP3   OH276735   4.923   3.675  15.518 -0.3910  0.4375  0.1188
18415TIP3    H176736   4.954   3.737  15.584  0.5961  0.3929 -0.2961
18415TIP3    H276737   4.892   3.729  15.446  0.6143  0.4518 -0.3078
18416TIP3   OH276738   1.904   3.009  14.023  0.1974 -0.2556  0.2373
18416TIP3    H176739   1.922   3.087  14.076  1.6476  0.4111 -1.1483
18416TIP3    H276740   1.932   2.936  14.078  1.2589  0.3870  0.5957
18417TIP3   OH276741   6.594   3.882   2.591 -0.0553 -0.1237 -0.4204
18417TIP3    H176742   6.569   3.910   2.679 -2.2421 -0.9597 -0.7128
18417TIP3    H276743   6.566   3.955   2.534 -0.2307 -0.3167 -0.5840
18418TIP3   OH276744   5.450   3.337   3.809 -0.0182 -0.2935  0.3808
18418TIP3    H176745   5.430   3.302   3.723 -0.0990 -0.8821  0.6322
18418TIP3    H276746   5.365   3.360   3.846 -0.0202 -0.4074  0.4504
18419TIP3   OH276747   5.179   4.580   0.123  0.2960  0.4706 -0.1525
18419TIP3    H176748   5.105   4.520   0.122  0.9432 -0.4035 -2.4148
18419TIP3    H276749   5.222   4.567   0.038  3.0810  0.9169  1.0652
18420TIP3   OH276750   5.517   0.137  11.052 -0.4803 -0.1434  1.0135
18420TIP3    H176751   5.527   0.047  11.085 -2.0838 -0.0914  1.7166
18420TIP3    H276752   5.423   0.153  11.054 -0.6195  0.2227 -2.8178
18421TIP3   OH276753   0.373   4.258  10.750  0.3051  0.4095 -0.0391
18421TIP3    H176754   0.319   4.205  10.691  1.7772 -0.3046 -0.8124
18421TIP3    H276755   0.353   4.225  10.838 -1.1125  0.7450 -0.2126
18422TIP3   OH276756   4.406   0.207  17.118  0.0748  0.3740  0.4362
18422TIP3    H176757   4.487   0.159  17.101 -0.9870 -1.1436 -0.5789
18422TIP3    H276758   4.376   0.236  17.032 -0.5411  0.8123  0.7862
18423TIP3   OH276759   4.891   2.980  13.118 -0.2351  0.4887  0.1477
18423TIP3    H176760   4.816   2.996  13.060  0.8892  0.8832 -1.2845
18423TIP3    H276761   4.949   3.054  13.101  1.9773 -1.4299 -1.3537
18424TIP3   OH276762   3.949   6.044  14.956 -0.1338 -0.5511 -0.0418
18424TIP3    H176763   3.886   6.024  15.025  1.1676 -1.8932  0.8007
18424TIP3    H276764   4.010   5.970  14.956  2.0095  1.1004 -0.1643
18425TIP3   OH276765   1.772   4.732   6.200 -0.1431  0.3742 -0.2165
18425TIP3    H176766   1.819   4.801   6.245  1.1381  1.3432 -2.8124
18425TIP3    H276767   1.680   4.743   6.226  0.5375  0.4950  2.4224
18426TIP3   OH276768   1.905   2.860  12.229  0.1659 -0.5742  0.2834
18426TIP3    H176769   1.859   2.847  12.146  0.1400 -0.9666  0.3577
18426TIP3    H276770   1.853   2.925  12.276  0.0815 -0.4857  0.0686
18427TIP3   OH276771   2.847   2.310  16.057 -0.6339  0.3024  0.0155
18427TIP3    H176772   2.860   2.387  16.112 -0.4783  0.5747 -0.4018
18427TIP3    H276773   2.880   2.335  15.971 -1.9115  0.2548 -0.5111
18428TIP3   OH276774   3.449   2.694   2.850  0.2493  0.4943 -0.2326
18428TIP3    H176775   3.358   2.724   2.851 -0.0349 -0.3372  1.2994
18428TIP3    H276776   3.496   2.763   2.803 -1.0850  1.1610 -0.6371
18429TIP3   OH276777   4.682   6.758   2.211  0.0855 -0.4542  0.4062
18429TIP3    H176778   4.598   6.734   2.250 -0.9436  0.1626 -1.3239
18429TIP3    H276779   4.687   6.708   2.130  0.4875  0.9020 -0.4484
18430TIP3   OH276780   3.507   0.033   5.452  0.2842  0.2929  0.2979
18430TIP3    H176781   3.578  -0.021   5.417 -0.9510 -0.1728 -1.6190
18430TIP3    H276782   3.518   0.118   5.409  0.4732  0.6626  1.0543
18431TIP3   OH276783   1.324   4.531  11.725  0.1583 -0.4069  0.3662
18431TIP3    H176784   1.419   4.535  11.732  0.1994 -1.7049  0.8483
18431TIP3    H276785   1.303   4.438  11.734 -1.1379 -0.1688  0.0039
18432TIP3   OH276786   0.023   1.659  11.593  0.1346 -0.0030  0.1658
18432TIP3    H176787  -0.042   1.594  11.567 -2.2006  1.5227  1.7960
18432TIP3    H276788   0.042   1.640  11.684 -0.5287  1.5067  0.6461
18433TIP3   OH276789   3.595   2.953  16.037 -0.2482  0.5051 -0.5287
18433TIP3    H176790   3.570   2.890  15.970 -0.8561 -0.2861  0.4215
18433TIP3    H276791   3.690   2.943  16.045  0.1001  1.7361 -2.3538
18434TIP3   OH276792   2.841   3.469  16.146  0.2009  0.0815  0.3210
18434TIP3    H176793   2.800   3.384  16.135 -0.3947  0.4129 -0.0597
18434TIP3    H276794   2.811   3.500  16.231  1.6194 -0.7300  1.1627
18435TIP3   OH276795   3.450   1.249   0.866 -0.0283 -0.7198 -0.1014
18435TIP3    H176796   3.392   1.277   0.795 -0.1920 -0.5660  0.0914
18435TIP3    H276797   3.515   1.319   0.873 -0.1692 -0.6039  0.0758
18436TIP3   OH276798   4.640   0.855   3.590  0.1324  0.1180  0.0416
18436TIP3    H176799   4.563   0.896   3.629  0.8239  0.6426  0.8758
18436TIP3    H276800   4.637   0.764   3.620 -0.5847 -0.0696 -0.5781
18437TIP3   OH276801   5.498   4.581  16.988 -0.2399  0.2368  0.2020
18437TIP3    H176802   5.588   4.594  16.958 -0.6439  1.4126 -0.5914
18437TIP3    H276803   5.481   4.488  16.973  0.3379  0.3163 -1.1299
18438TIP3   OH276804   5.746   5.141   2.672 -0.1433  0.1222 -0.2745
18438TIP3    H176805   5.829   5.159   2.629  0.1528 -0.3233  0.0946
18438TIP3    H276806   5.733   5.216   2.730  0.5533 -0.3233  0.4784
18439TIP3   OH276807   1.740   0.644   5.769  0.3040  0.2288  0.0490
18439TIP3    H176808   1.662   0.605   5.729  1.4015 -0.2744 -1.7313
18439TIP3    H276809   1.731   0.738   5.754 -0.1866  0.2164  0.2636
18440TIP3   OH276810   0.145   3.149   0.389 -0.2957  0.4955  0.6758
18440TIP3    H176811   0.141   3.058   0.418  1.6191  0.3509  0.6170
18440TIP3    H276812   0.234   3.178   0.410 -1.1021  2.6552  1.4921
18441TIP3   OH276813   5.567   2.246   4.078  0.1486 -0.0576 -0.0799
18441TIP3    H176814   5.522   2.186   4.019 -1.9932  1.3261  0.0257
18441TIP3    H276815   5.571   2.199   4.161 -1.1431 -0.2350 -0.0939
18442TIP3   OH276816   2.281   3.319  13.792 -0.2908  0.0732  0.3025
18442TIP3    H176817   2.357   3.360  13.832  0.7676 -0.2072 -1.3245
18442TIP3    H276818   2.221   3.303  13.865 -0.1341  3.0895  1.2383
18443TIP3   OH276819   3.686   1.797  13.925 -0.3176 -0.3690  0.2768
18443TIP3    H176820   3.721   1.879  13.891 -0.1721 -0.1947  0.8414
18443TIP3    H276821   3.717   1.731  13.863  0.1470 -0.0841  0.2030
18444TIP3   OH276822   0.196   5.388  15.809 -0.6138  0.3928  0.7529
18444TIP3    H176823   0.229   5.358  15.894  1.2528 -0.4226 -0.2064
18444TIP3    H276824   0.124   5.328  15.789  0.3532 -0.8257  0.7933
18445TIP3   OH276825   4.083   0.061  11.582 -0.4650 -0.2551  0.2611
18445TIP3    H176826   4.017   0.001  11.549 -2.2461  0.8532  1.6105
18445TIP3    H276827   4.123   0.015  11.656 -0.3618 -0.5827  0.0024
18446TIP3   OH276828   0.269   2.754  14.563  0.1081  0.1310  0.3188
18446TIP3    H176829   0.344   2.706  14.599  0.4606  1.0432  0.8256
18446TIP3    H276830   0.195   2.695  14.575  0.4758 -0.1511  1.2553
18447TIP3   OH276831   5.169   6.120  15.123 -0.0734  0.1686  0.1721
18447TIP3    H176832   5.238   6.186  15.123 -1.1758  1.3759 -0.8939
18447TIP3    H276833   5.200   6.052  15.183  1.6706  1.0408  0.3047
18448TIP3   OH276834   0.116   4.646   4.817  0.3643 -0.2386  0.0867
18448TIP3    H176835   0.153   4.653   4.730  0.1108 -1.0898 -0.1024
18448TIP3    H276836   0.109   4.552   4.833 -0.4908 -0.1022  0.6275
18449TIP3   OH276837   2.668   2.639  12.423 -0.0344  0.6456  0.4378
18449TIP3    H176838   2.600   2.672  12.482 -0.1332 -1.3033  1.4931
18449TIP3    H276839   2.629   2.645  12.336 -2.5942 -2.4238  1.1705
18450TIP3   OH276840   0.451   0.335  15.988 -0.2642  0.0069 -1.0597
18450TIP3    H176841   0.452   0.241  15.970 -0.8725 -0.4464  1.0397
18450TIP3    H276842   0.542   0.356  16.012 -0.7435 -0.8209  1.8029
18451TIP3   OH276843   5.037   1.673   3.635  0.6563  0.4553  0.3026
18451TIP3    H176844   4.957   1.725   3.647  0.1185 -0.5031  0.9772
18451TIP3    H276845   5.015   1.586   3.669  1.6697 -0.1098 -0.4333
18452TIP3   OH276846   3.929   3.954   2.161  0.0753  0.9138  0.0040
18452TIP3    H176847   4.014   3.974   2.121  0.0865  0.4499 -0.2093
18452TIP3    H276848   3.913   4.026   2.222  1.4967  0.1075  1.4168
18453TIP3   OH276849   5.549   3.373   6.383 -0.1037  0.8087  0.0518
18453TIP3    H176850   5.613   3.335   6.443 -0.8198  0.6688  0.7466
18453TIP3    H276851   5.599   3.434   6.329  0.7614  0.0844  0.0153
18454TIP3   OH276852   1.600   6.413  13.953 -0.5258  0.2896  0.4208
18454TIP3    H176853   1.590   6.449  14.041  0.3368  0.9549  0.2654
18454TIP3    H276854   1.513   6.421  13.913 -0.5628  1.4044  0.6967
18455TIP3   OH276855   4.683   4.421  14.725 -0.5539 -0.2495 -0.4803
18455TIP3    H176856   4.749   4.488  14.741  0.7346 -1.5723 -0.0105
18455TIP3    H276857   4.611   4.443  14.784  0.8922 -0.6356  1.5474
18456TIP3   OH276858   0.981   1.761   2.506  0.8198 -0.5905  0.3677
18456TIP3    H176859   1.014   1.707   2.434  0.3349 -0.4967  0.0732
18456TIP3    H276860   0.898   1.796   2.474  1.4983  1.0058  0.2240
18457TIP3   OH276861   6.659   6.118   5.224 -0.4971  0.0183 -0.0933
18457TIP3    H176862   6.597   6.183   5.255 -0.9404 -0.6692  0.4699
18457TIP3    H276863   6.710   6.094   5.302 -0.4719 -0.4594 -0.2555
18458TIP3   OH276864   3.743   0.990  14.547  0.1729 -0.7669  0.2414
18458TIP3    H176865   3.711   1.071  14.587 -0.0002 -0.3277 -0.7588
18458TIP3    H276866   3.684   0.922  14.579 -1.5803 -0.0321 -1.2970
18459TIP3   OH276867   0.453   4.321  12.653  0.7716  0.2626  0.2544
18459TIP3    H176868   0.427   4.295  12.741  1.9340 -1.5384  0.1291
18459TIP3    H276869   0.371   4.334  12.607  0.0934 -1.1894  0.9753
18460TIP3   OH276870   6.670   6.276   0.106  0.0663 -0.1698  0.0970
18460TIP3    H176871   6.658   6.218   0.031  0.3450 -1.0712  0.7321
18460TIP3    H276872   6.739   6.234   0.157 -0.6035  0.0631  1.2159
18461TIP3   OH276873   5.353   2.517  12.612 -0.0661 -0.0937 -0.3300
18461TIP3    H176874   5.341   2.550  12.523 -0.9180 -0.5657 -0.3929
18461TIP3    H276875   5.306   2.580  12.668 -3.6168 -2.2409 -0.6233
18462TIP3   OH276876   6.354   6.012   0.816  0.1051  0.5132 -0.1055
18462TIP3    H176877   6.353   6.092   0.763  0.3538 -0.3893 -1.5562
18462TIP3    H276878   6.387   5.945   0.756 -0.5507 -0.7784  0.9279
18463TIP3   OH276879   2.252   5.393   0.298  0.3147  0.0752  0.1080
18463TIP3    H176880   2.291   5.323   0.351 -1.2655  1.1673  2.9083
18463TIP3    H276881   2.322   5.457   0.287  0.8699 -0.4946  0.2999
18464TIP3   OH276882   4.756   2.844  17.010  0.4633 -0.4580 -0.5659
18464TIP3    H176883   4.693   2.904  16.969  2.2316  0.8652 -1.4864
18464TIP3    H276884   4.830   2.900  17.033  1.8969 -2.1789 -0.7909
18465TIP3   OH276885   6.058   5.684   5.550 -0.4757  0.0284  0.6801
18465TIP3    H176886   6.099   5.765   5.521  0.2123 -0.6614 -0.3032
18465TIP3    H276887   5.967   5.693   5.522 -0.3761  0.3983  0.4607
18466TIP3   OH276888   3.226   1.777   4.822  0.6282 -0.0443 -0.1158
18466TIP3    H176889   3.259   1.818   4.742 -0.1259 -0.4215 -0.6392
18466TIP3    H276890   3.154   1.720   4.792 -0.4035  0.6353  0.9508
18467TIP3   OH276891   3.574   0.841   4.021 -0.3825 -0.0510 -0.4137
18467TIP3    H176892   3.492   0.879   3.989  0.0487  1.7075  0.4528
18467TIP3    H276893   3.636   0.855   3.949 -0.6992 -0.9515 -0.8799
18468TIP3   OH276894   5.461   0.422   0.601  0.6276 -0.7080  0.8121
18468TIP3    H176895   5.485   0.428   0.693 -0.1642 -0.1637  0.9933
18468TIP3    H276896   5.379   0.471   0.594  1.0890 -0.0492 -0.3250
18469TIP3   OH276897   3.280   0.420  16.202 -0.1906  0.5241  0.5309
18469TIP3    H176898   3.298   0.369  16.122 -1.9555 -0.7481  0.8904
18469TIP3    H276899   3.339   0.495  16.196  0.6743 -0.2361 -1.3064
18470TIP3   OH276900   4.430   3.993  13.788 -0.0316 -0.6377  0.1402
18470TIP3    H176901   4.415   4.086  13.773  1.0738 -0.3778  0.5046
18470TIP3    H276902   4.404   3.951  13.706  1.1945  0.2033 -0.7308
18471TIP3   OH276903   5.438   0.161   3.055  0.8454 -0.5682 -0.7515
18471TIP3    H176904   5.350   0.144   3.022  0.6378 -0.3147 -0.3349
18471TIP3    H276905   5.442   0.256   3.067  1.7883 -0.3559 -2.4778
18472TIP3   OH276906   1.588   6.384  12.130  0.0309  0.3007  0.6279
18472TIP3    H176907   1.496   6.361  12.142  0.0561  0.7704  1.7822
18472TIP3    H276908   1.618   6.412  12.216  1.6984 -1.4008  0.6823
18473TIP3   OH276909   1.223   4.912   2.102 -0.1286 -0.2440 -0.5399
18473TIP3    H176910   1.173   4.904   2.183  0.7867 -0.1521  0.0435
18473TIP3    H276911   1.215   5.005   2.078 -2.0704 -0.6458 -1.6723
18474TIP3   OH276912   6.467   6.660  17.284  0.4632 -0.1486  0.2041
18474TIP3    H176913   6.427   6.746  17.293  0.1194 -0.3424  0.6113
18474TIP3    H276914   6.492   6.636  17.374  2.8001  0.5675 -0.2054
18475TIP3   OH276915   4.690   3.062  12.975  0.8160  0.1280  0.2937
18475TIP3    H176916   4.669   3.032  12.887  0.6727 -1.6569  0.8954
18475TIP3    H276917   4.679   3.157  12.971 -0.7749 -0.0623 -1.1865
18476TIP3   OH276918   0.408   4.239  11.718  0.2858  0.0672  0.2139
18476TIP3    H176919   0.359   4.253  11.637  0.6708  0.3023  0.0190
18476TIP3    H276920   0.341   4.223  11.784 -0.0183 -0.4716 -0.2178
18477TIP3   OH276921   2.159   3.950  14.387 -0.0776  0.0765  0.0633
18477TIP3    H176922   2.212   3.929  14.463  1.1339  0.1862 -0.7327
18477TIP3    H276923   2.117   3.867  14.363 -1.2187  0.2409  1.3881
18478TIP3   OH276924   3.084   5.160   5.692  0.4339 -0.2415  0.3654
18478TIP3    H176925   3.083   5.092   5.624  1.0882 -0.9433  1.0353
18478TIP3    H276926   3.141   5.124   5.761 -0.5135  0.2936  1.4506
18479TIP3   OH276927   5.654   2.951   4.230 -0.0059 -0.3927 -0.4325
18479TIP3    H176928   5.623   3.041   4.216 -0.7351 -0.4473  0.6883
18479TIP3    H276929   5.677   2.920   4.143  0.7398  1.0483 -0.7853
18480TIP3   OH276930   5.585   3.802   1.544  0.3633  0.4415  0.4060
18480TIP3    H176931   5.587   3.891   1.579 -0.3580  1.3411 -1.6858
18480TIP3    H276932   5.493   3.776   1.549  0.6467 -0.4430  1.5109
18481TIP3   OH276933   0.500   6.520  12.144 -0.4693  0.1287 -0.0066
18481TIP3    H176934   0.423   6.491  12.192 -1.5727  2.0896 -0.4695
18481TIP3    H276935   0.568   6.529  12.211 -0.8936 -0.7450  0.5564
18482TIP3   OH276936   3.550   3.308   3.569  0.2054 -0.0135  0.5740
18482TIP3    H176937   3.634   3.329   3.608 -0.1271 -0.3216  1.4837
18482TIP3    H276938   3.565   3.225   3.523  1.2551  1.5838 -2.1796
18483TIP3   OH276939   0.572   5.043   2.335  0.1200  0.5388 -0.6046
18483TIP3    H176940   0.540   4.998   2.257  0.6418  0.5599 -0.8361
18483TIP3    H276941   0.606   5.126   2.302  0.7523  0.3600 -0.4218
18484TIP3   OH276942   5.261   2.599  12.375  0.5764  0.1176  0.1139
18484TIP3    H176943   5.182   2.651  12.380  1.4255  1.4650 -0.0641
18484TIP3    H276944   5.286   2.602  12.283  0.4808 -0.8589  0.0467
18485TIP3   OH276945   1.027   3.616   5.264  0.0612  0.0698  0.0875
18485TIP3    H176946   1.076   3.618   5.346  0.3756  0.2880 -0.1018
18485TIP3    H276947   1.094   3.626   5.196 -0.3129  0.9245 -0.1601
18486TIP3   OH276948   4.737   4.279   3.641  0.0456 -0.1764  0.3146
18486TIP3    H176949   4.768   4.252   3.555  0.7490  2.9476 -0.5181
18486TIP3    H276950   4.656   4.327   3.623 -0.5197 -0.6125  1.5719
18487TIP3   OH276951   0.891   3.929   3.952  0.1232 -0.3265 -0.7171
18487TIP3    H176952   0.937   4.006   3.987 -0.0657  0.3530 -1.9285
18487TIP3    H276953   0.806   3.963   3.923  0.4971 -0.7405 -2.3597
18488TIP3   OH276954   5.866   1.701  13.150  0.1610  0.3086  0.5040
18488TIP3    H176955   5.875   1.791  13.182  1.8081  1.5005 -2.8847
18488TIP3    H276956   5.772   1.690  13.135 -0.1501  1.1410  1.6583
18489TIP3   OH276957   4.059   3.243   5.750  0.1954  0.8170 -0.5921
18489TIP3    H176958   4.052   3.230   5.844  1.0389 -1.6036 -0.8006
18489TIP3    H276959   3.996   3.312   5.730  0.6423  2.0291  1.8389
18490TIP3   OH276960   3.932   3.046   0.916  0.0714  0.1770 -0.0119
18490TIP3    H176961   3.886   3.015   0.994  1.1884  0.1438  0.6539
18490TIP3    H276962   3.862   3.065   0.853 -0.8013 -0.6481  0.6781
18491TIP3   OH276963   3.728   0.703   2.789 -0.6046  0.3805 -0.0948
18491TIP3    H176964   3.744   0.660   2.873 -1.8991  0.2180  0.0885
18491TIP3    H276965   3.644   0.668   2.760 -0.8219  1.4524 -0.8085
18492TIP3   OH276966   4.731   5.037   0.463 -0.0328  0.1269  0.3063
18492TIP3    H176967   4.693   5.063   0.379  0.3329  2.4688  0.7978
18492TIP3    H276968   4.726   5.115   0.517  1.1340 -0.8829  1.9773
18493TIP3   OH276969   3.542   0.208   5.990 -0.0555  0.0167  0.6294
18493TIP3    H176970   3.481   0.252   6.049 -1.3041  0.5662 -0.9840
18493TIP3    H276971   3.488   0.181   5.916  1.2159 -1.7792  0.2978
18494TIP3   OH276972   6.684   0.086  14.553 -0.3335 -0.2553 -0.0211
18494TIP3    H176973   6.620   0.079  14.482  0.2433  0.1831 -0.5960
18494TIP3    H276974   6.634   0.121  14.627 -1.1363 -1.5521  0.0700
18495TIP3   OH276975   6.612   0.760   4.901 -0.3272 -0.2623  0.0048
18495TIP3    H176976   6.579   0.821   4.967  0.7809  2.2819 -1.6282
18495TIP3    H276977   6.656   0.692   4.952 -0.7468  0.8160  1.9193
18496TIP3   OH276978   1.434   4.976   4.504 -0.7284  0.1482 -0.0634
18496TIP3    H176979   1.426   4.882   4.486 -0.3013  0.0176  0.3958
18496TIP3    H276980   1.361   4.995   4.562 -0.1736 -0.1544  0.7627
18497TIP3   OH276981   1.140   0.297  14.703  0.2761 -0.1421  0.6684
18497TIP3    H176982   1.230   0.328  14.699  0.0983  0.2638 -0.9935
18497TIP3    H276983   1.088   0.370  14.668 -0.7522 -0.2359  1.8995
18498TIP3   OH276984   4.618   1.557   0.974  0.0359 -0.2199 -0.1485
18498TIP3    H176985   4.694   1.589   0.926 -0.6151 -0.6238 -1.5349
18498TIP3    H276986   4.588   1.632   1.025  2.0898 -0.4135  1.4815
18499TIP3   OH276987   6.607   2.159   1.748 -0.1976  0.2695  0.3591
18499TIP3    H176988   6.669   2.159   1.821 -0.9228 -0.0015  1.0000
18499TIP3    H276989   6.531   2.208   1.782 -1.3384 -1.5183  0.5172
18500TIP3   OH276990   5.466   2.969  11.628 -0.8120  0.1651 -0.5009
18500TIP3    H176991   5.551   2.950  11.668 -0.6558 -0.3893 -1.0836
18500TIP3    H276992   5.412   3.000  11.701 -0.5705 -0.9453  0.1802
18501TIP3   OH276993   0.040   5.664  13.577  0.0433 -0.4691 -0.3844
18501TIP3    H176994   0.122   5.669  13.626 -0.7040  0.0697  0.8356
18501TIP3    H276995   0.054   5.592  13.515  2.2376  1.0175 -1.7591
18502TIP3   OH276996   4.865   6.561   6.096 -0.2146  0.4961  0.0955
18502TIP3    H176997   4.948   6.531   6.057  1.1064  1.5774  1.8772
18502TIP3    H276998   4.845   6.494   6.162 -0.0892  0.8265  0.4759
18503TIP3   OH276999   2.296   3.246  14.184  0.2893  0.4962  0.3623
18503TIP3    H177000   2.290   3.280  14.273  0.2625 -1.6307  1.2197
18503TIP3    H277001   2.390   3.236  14.169  0.2534 -0.3893  0.6737
18504TIP3   OH277002   5.470   3.896   0.691 -0.4196 -0.2394 -0.1749
18504TIP3    H177003   5.523   3.867   0.765 -1.0970  0.6497  0.6967
18504TIP3    H277004   5.482   3.829   0.625  0.6629 -0.7668  0.5291
18505TIP3   OH277005   6.339   0.017  16.737 -0.3984  0.2434 -0.0640
18505TIP3    H177006   6.311  -0.004  16.648  2.1317  0.3459 -0.9589
18505TIP3    H277007   6.428   0.051  16.727  1.5123 -3.1847  2.7703
18506TIP3   OH277008   5.849   4.740  16.703 -0.1786  0.1371 -0.0731
18506TIP3    H177009   5.942   4.762  16.705  0.1074 -0.9834  1.8582
18506TIP3    H277010   5.835   4.701  16.617  0.8478  1.3914 -0.8472
18507TIP3   OH277011   5.535   4.634   3.677 -0.5844 -0.1170  0.7952
18507TIP3    H177012   5.463   4.635   3.614 -0.5519 -1.1677  0.7243
18507TIP3    H277013   5.495   4.606   3.759 -0.3443 -0.2621  0.8650
18508TIP3   OH277014   3.733   6.698   3.796 -0.3815  0.5525 -0.1503
18508TIP3    H177015   3.795   6.769   3.812  0.3446 -0.4102  1.5344
18508TIP3    H277016   3.650   6.731   3.832  0.1014  0.3372  1.2167
18509TIP3   OH277017   1.735   4.093  16.987 -0.2701 -0.1916  0.7971
18509TIP3    H177018   1.824   4.063  16.972 -0.1357  0.2255  0.7511
18509TIP3    H277019   1.697   4.027  17.045 -0.1769 -0.7783  0.2059
18510TIP3   OH277020   0.539   1.079   3.287  0.1695  0.3566  0.0115
18510TIP3    H177021   0.464   1.049   3.338  0.5477  1.2280  1.0895
18510TIP3    H277022   0.575   1.153   3.336  1.5498  0.1567 -0.6491
18511TIP3   OH277023   4.792   1.806  14.666  0.5295 -0.1063  0.1603
18511TIP3    H177024   4.781   1.900  14.653  0.5934 -0.0230  0.6920
18511TIP3    H277025   4.808   1.797  14.759 -0.6842 -0.7490  0.3301
18512TIP3   OH277026   6.389   4.723  13.117 -0.3174  0.5875  0.6811
18512TIP3    H177027   6.420   4.656  13.178 -0.6417  0.4652  0.7147
18512TIP3    H277028   6.298   4.739  13.143 -0.6405  0.1188 -0.1115
18513TIP3   OH277029   1.317   0.432   1.125  0.2151  0.1869  0.4808
18513TIP3    H177030   1.319   0.485   1.205  2.7579  0.9022  0.0412
18513TIP3    H277031   1.396   0.458   1.078 -0.7966 -0.8101 -1.9037
18514TIP3   OH277032   0.749   1.260  11.230 -0.3928  0.7410 -0.2316
18514TIP3    H177033   0.780   1.179  11.271 -0.1667  1.1871  0.4941
18514TIP3    H277034   0.828   1.313  11.219 -0.7852  1.6721  1.1492
18515TIP3   OH277035   6.555   4.259  13.989  0.0404  0.0299  0.6414
18515TIP3    H177036   6.646   4.262  14.020  0.1895  1.4823  0.1725
18515TIP3    H277037   6.554   4.189  13.924  0.8405  0.0479  0.5970
18516TIP3   OH277038   5.726   6.782   6.002 -0.0496 -0.2265 -0.4059
18516TIP3    H177039   5.779   6.719   6.051  1.1516  1.6740  0.8637
18516TIP3    H277040   5.755   6.867   6.033 -1.8535  0.9822 -1.8193
18517TIP3   OH277041   3.061   0.461   1.997 -0.0163  0.9454  0.2162
18517TIP3    H177042   3.044   0.556   1.996  0.3083  1.0046 -0.3505
18517TIP3    H277043   3.090   0.442   1.908  2.2214  0.7386  0.9288
18518TIP3   OH277044   4.093   4.788  11.657 -0.3448 -0.1355 -0.1489
18518TIP3    H177045   4.032   4.820  11.724 -1.0370 -0.4055 -0.6301
18518TIP3    H277046   4.098   4.694  11.673 -0.3095 -0.1610 -0.3052
18519TIP3   OH277047   3.085   6.532   3.321  0.3486  0.5619 -0.5688
18519TIP3    H177048   3.004   6.540   3.371  0.4823  0.1130 -0.2755
18519TIP3    H277049   3.145   6.594   3.363  0.6439 -0.2381  0.2061
18520TIP3   OH277050   2.853   1.353  16.617 -0.0911  0.2527  0.5078
18520TIP3    H177051   2.770   1.383  16.654 -1.0823  0.5448 -1.7383
18520TIP3    H277052   2.910   1.338  16.692 -1.8338  1.0763  2.0627
18521TIP3   OH277053   5.012   6.260  11.257 -0.3565 -0.3576  0.2412
18521TIP3    H177054   5.090   6.240  11.204 -0.2395 -1.4308  0.7896
18521TIP3    H277055   4.950   6.297  11.194  1.0999  1.9850  0.0573
18522TIP3   OH277056   3.260   5.104   6.945  0.0128 -0.4964  0.1668
18522TIP3    H177057   3.223   5.145   6.866 -1.1687 -0.6199  0.6307
18522TIP3    H277058   3.309   5.029   6.912  0.1913 -0.0901 -0.5139
18523TIP3   OH277059   1.621   6.121   1.576  0.1399  0.2585 -0.4171
18523TIP3    H177060   1.666   6.204   1.563  1.5594 -0.3780  0.2019
18523TIP3    H277061   1.553   6.120   1.509  0.6546  1.5365 -0.9962
18524TIP3   OH277062   5.290   1.837   0.465  0.0979  0.3310 -0.0559
18524TIP3    H177063   5.344   1.785   0.525  0.2669  1.0432  0.4076
18524TIP3    H277064   5.275   1.778   0.391  0.3276 -0.3690  0.4422
18525TIP3   OH277065   2.002   6.575   4.666 -0.1856 -0.1371 -0.1441
18525TIP3    H177066   2.017   6.568   4.760  0.1549  2.5641  0.0657
18525TIP3    H277067   2.041   6.659   4.641 -1.1290 -0.3212 -2.5222
18526TIP3   OH277068   5.964   4.840   4.231  0.2250  0.2683 -0.3930
18526TIP3    H177069   6.011   4.859   4.150 -0.2998 -2.5244 -1.4645
18526TIP3    H277070   6.032   4.814   4.293  0.6183  2.3290  0.1215
18527TIP3   OH277071   3.989   0.986  13.453 -0.5985 -0.4556 -0.2753
18527TIP3    H177072   4.016   0.929  13.381  1.2013  0.4604 -0.3945
18527TIP3    H277073   4.009   0.936  13.532 -1.7067 -1.0985 -0.3926
18528TIP3   OH277074   1.006   3.625   1.514 -0.5464  0.1941  0.3838
18528TIP3    H177075   1.006   3.694   1.580  1.0022 -0.5095  1.1524
18528TIP3    H277076   1.097   3.597   1.508 -0.9529 -0.9586 -0.7993
18529TIP3   OH277077   4.678   5.771   1.261  0.0558 -0.1780 -0.0046
18529TIP3    H177078   4.598   5.794   1.309  0.2550 -1.3200  0.9310
18529TIP3    H277079   4.684   5.675   1.269  1.9862 -0.0366  0.7360
18530TIP3   OH277080   2.578   4.261   4.722  0.0188  0.3417 -0.4802
18530TIP3    H177081   2.493   4.281   4.762 -0.4007 -1.8366 -0.1456
18530TIP3    H277082   2.564   4.177   4.678  1.9398  0.0745 -0.6650
18531TIP3   OH277083   3.092   1.847  12.197 -0.0399 -0.0556  0.0826
18531TIP3    H177084   3.000   1.839  12.222 -0.2042  0.2443 -0.4163
18531TIP3    H277085   3.093   1.832  12.103  0.2929  0.8822 -0.0713
18532TIP3   OH277086   6.444   3.499  15.445  0.0104  0.3176  0.2459
18532TIP3    H177087   6.395   3.510  15.363  0.9233 -2.2313 -0.7475
18532TIP3    H277088   6.379   3.469  15.508 -0.2737 -0.0374 -0.2112
18533TIP3   OH277089   6.479   4.965  12.581  0.1936 -0.3596 -0.6147
18533TIP3    H177090   6.472   4.936  12.672 -2.4204 -1.9185 -1.2156
18533TIP3    H277091   6.573   4.970  12.564  0.7453 -0.3542  2.0356
18534TIP3   OH277092   2.411   2.310   3.228 -0.1459  0.0006  0.6055
18534TIP3    H177093   2.341   2.363   3.266 -0.6909 -0.3149  0.0453
18534TIP3    H277094   2.394   2.221   3.259 -1.5821 -0.5995 -1.6589
18535TIP3   OH277095   1.750   2.521   1.920  0.1856 -0.4864  0.2885
18535TIP3    H177096   1.832   2.535   1.872  0.3156  1.7123  1.0370
18535TIP3    H277097   1.741   2.599   1.975 -1.4551 -1.5561  1.6496
18536TIP3   OH277098   1.440   0.943   2.958 -0.4162  0.0836  0.5133
18536TIP3    H177099   1.396   0.865   2.922 -0.1919  0.6741 -1.1101
18536TIP3    H277100   1.383   1.016   2.933  0.8127  0.7217 -0.4769
18537TIP3   OH277101   5.485   1.444  16.651 -0.0261  0.1825 -0.2219
18537TIP3    H177102   5.463   1.462  16.742 -0.4667 -1.7392  0.1049
18537TIP3    H277103   5.413   1.483  16.601  0.8954  2.4364  0.0924
18538TIP3   OH277104   3.828   0.522  16.782  0.0396  0.3074 -0.2959
18538TIP3    H177105   3.849   0.522  16.689  1.6227 -1.1314 -0.0003
18538TIP3    H277106   3.913   0.513  16.826 -0.7181  0.2805  1.2538
18539TIP3   OH277107   6.037   3.730   2.685  0.6116 -0.1301  0.3170
18539TIP3    H177108   6.088   3.775   2.618  1.6752  0.2946  1.3791
18539TIP3    H277109   6.066   3.639   2.680 -1.6265 -0.8370 -1.9131
18540TIP3   OH277110   5.116   3.811   5.198 -0.4769  0.0570  0.1464
18540TIP3    H177111   5.076   3.740   5.148 -1.4731  0.4020  0.4431
18540TIP3    H277112   5.095   3.792   5.289  0.6438 -0.1333  0.3775
18541TIP3   OH277113   5.833   3.376   2.613  0.1695 -0.5132  0.1431
18541TIP3    H177114   5.865   3.300   2.564 -0.0187 -0.8553  0.5403
18541TIP3    H277115   5.751   3.346   2.653 -0.1302  0.0387 -0.0497
18542TIP3   OH277116   3.460   3.465  13.837 -0.2572  0.1536 -0.5954
18542TIP3    H177117   3.459   3.408  13.760 -0.7180  0.0682 -0.5260
18542TIP3    H277118   3.485   3.407  13.910 -0.0932  0.1781 -0.6306
18543TIP3   OH277119   5.005   5.174  14.302 -0.2868 -0.2110 -0.1234
18543TIP3    H177120   5.080   5.142  14.352 -0.9657  0.4090  1.3562
18543TIP3    H277121   5.035   5.176  14.211  1.8187  0.9715  0.5326
18544TIP3   OH277122   2.596   4.715   3.658 -0.5897  0.4093 -0.1062
18544TIP3    H177123   2.653   4.793   3.651 -0.1051  0.1405  0.6033
18544TIP3    H277124   2.550   4.728   3.741 -1.9974  0.8856 -0.9356
18545TIP3   OH277125   1.955   4.975   4.633  0.0593 -0.1448  0.8359
18545TIP3    H177126   1.974   5.061   4.595 -0.5659 -0.1853  0.4131
18545TIP3    H277127   1.947   4.992   4.727  0.6756  0.1233  0.8472
18546TIP3   OH277128   2.570   1.510  15.296 -0.3036 -0.6652  0.3364
18546TIP3    H177129   2.639   1.490  15.359 -0.7654  2.4708  2.0686
18546TIP3    H277130   2.579   1.604  15.281 -1.9293 -0.8294 -2.2730
18547TIP3   OH277131   0.763   4.694   4.167  0.4366 -0.1191  0.1802
18547TIP3    H177132   0.800   4.644   4.240  2.0127  2.0545  0.9473
18547TIP3    H277133   0.747   4.781   4.203 -0.6291  0.4480 -1.5672
18548TIP3   OH277134   5.027   5.161   2.487 -0.4553 -0.3975 -1.0898
18548TIP3    H177135   5.093   5.104   2.448  1.2926  0.3285  0.6011
18548TIP3    H277136   5.003   5.222   2.418  1.8358  0.2760 -1.3686
18549TIP3   OH277137   4.365   5.766  10.931 -0.2405 -0.4550 -0.3893
18549TIP3    H177138   4.346   5.672  10.941 -2.3250 -0.1029 -0.5167
18549TIP3    H277139   4.334   5.787  10.843  0.9100  0.2255 -0.6455
18550TIP3   OH277140   3.594   2.836  14.664 -0.5209  0.3485 -1.1596
18550TIP3    H177141   3.589   2.838  14.759 -0.2802  1.7648 -1.1445
18550TIP3    H277142   3.544   2.759  14.638 -2.5847  1.2345 -0.0047
18551TIP3   OH277143   2.173   0.630   5.993  0.1235  0.0159 -0.0654
18551TIP3    H177144   2.129   0.642   5.909 -0.9695  0.2157  0.5194
18551TIP3    H277145   2.109   0.659   6.058  1.3828  0.9675  0.7848
18552TIP3   OH277146   0.052   3.278  14.232 -0.1867 -0.6162  0.0697
18552TIP3    H177147  -0.036   3.310  14.216 -0.0581  0.0229  0.6109
18552TIP3    H277148   0.039   3.197  14.281 -0.4675 -0.5196  0.1566
18553TIP3   OH277149   0.822   6.575   2.480  0.1962  0.3212  0.4781
18553TIP3    H177150   0.736   6.549   2.512 -0.1623  2.4174  1.3546
18553TIP3    H277151   0.882   6.512   2.519 -0.7271  0.1228  1.6335
18554TIP3   OH277152   4.012   3.366   4.304 -0.3659 -0.3528  0.6479
18554TIP3    H177153   3.993   3.403   4.390 -1.4349 -0.5188  0.4965
18554TIP3    H277154   3.997   3.272   4.315  0.0219 -0.4446  0.4159
18555TIP3   OH277155   4.647   5.883  16.791  0.5714 -0.2576 -0.3237
18555TIP3    H177156   4.642   5.956  16.853 -1.9430 -0.0523 -0.6866
18555TIP3    H277157   4.601   5.811  16.833  0.1898 -0.6096 -1.3078
18556TIP3   OH277158   2.682   2.362   4.027 -0.4239  0.5889  0.1869
18556TIP3    H177159   2.631   2.293   3.985 -0.6162  2.3427 -2.7691
18556TIP3    H277160   2.773   2.338   4.010 -0.5013  1.6801 -2.1943
18557TIP3   OH277161   6.753   3.852   1.995  0.4877  0.0694 -0.2602
18557TIP3    H177162   6.726   3.866   2.086  0.5953 -0.5978 -0.1193
18557TIP3    H277163   6.730   3.934   1.951  0.0973  0.2671  0.2877
18558TIP3   OH277164   3.287   5.792   0.450 -0.0670 -0.2271 -0.7071
18558TIP3    H177165   3.261   5.853   0.520  1.2565  0.1300 -0.5066
18558TIP3    H277166   3.375   5.820   0.425 -0.1231 -0.9908 -1.8219
18559TIP3   OH277167   0.406   3.142   0.903  0.0835 -0.3160  0.9938
18559TIP3    H177168   0.326   3.168   0.858  0.7496  1.2286  0.6196
18559TIP3    H277169   0.376   3.112   0.989 -1.0317 -1.4795  0.2297
18560TIP3   OH277170   0.717   3.429   6.386  0.2908 -0.2394 -0.2418
18560TIP3    H177171   0.806   3.427   6.350  0.6111  0.1598  0.5088
18560TIP3    H277172   0.668   3.369   6.330  1.0474 -0.5276 -0.6211
18561TIP3   OH277173   6.189   5.210  13.985  0.1987 -0.0654  0.4674
18561TIP3    H177174   6.128   5.136  13.982  0.4755 -0.3373  1.4075
18561TIP3    H277175   6.248   5.190  14.057  0.3959  0.9880  0.6154
18562TIP3   OH277176   1.258   3.736   3.566  0.5506 -0.0298  0.2394
18562TIP3    H177177   1.234   3.664   3.624 -0.8424 -0.1798 -0.4715
18562TIP3    H277178   1.275   3.694   3.481  2.4634  0.1944  0.4602
18563TIP3   OH277179   2.002   1.644   0.533  0.3228 -0.3145  0.1027
18563TIP3    H177180   2.036   1.731   0.513  2.2426 -1.1962 -0.6879
18563TIP3    H277181   2.009   1.636   0.628  1.1943 -0.0164  0.0649
18564TIP3   OH277182   5.973   4.178   5.945  0.1046 -0.0513  0.1970
18564TIP3    H177183   6.002   4.260   5.987  1.2538 -0.8845  1.1116
18564TIP3    H277184   5.889   4.158   5.986 -0.2579  0.7294 -0.1385
18565TIP3   OH277185   2.055   0.775  14.499 -0.3543 -0.5543  0.4533
18565TIP3    H177186   2.129   0.759  14.558  1.1264  1.6984 -0.6791
18565TIP3    H277187   2.071   0.719  14.424 -0.4241 -0.8969  0.6896
18566TIP3   OH277188   0.091   6.559   4.998  0.7456  0.7278  0.1793
18566TIP3    H177189   0.049   6.587   5.079 -0.8827  0.4932 -0.5499
18566TIP3    H277190   0.177   6.527   5.025 -1.0847 -3.0090  2.4553
18567TIP3   OH277191   6.011   3.480   3.050 -0.0954  0.1035  0.6738
18567TIP3    H177192   5.933   3.532   3.033  1.2113  2.9354  2.5163
18567TIP3    H277193   6.074   3.542   3.086  2.6826 -2.2453  0.2666
18568TIP3   OH277194   6.427   0.343   5.703  0.2192 -0.3362 -0.2717
18568TIP3    H177195   6.510   0.296   5.709  0.2664 -0.3693 -1.0528
18568TIP3    H277196   6.380   0.318   5.783  1.2432  0.2590  0.5382
18569TIP3   OH277197   1.250   4.619  13.050  0.5373 -0.0851  0.2337
18569TIP3    H177198   1.233   4.708  13.018  0.6525  0.2801  1.1483
18569TIP3    H277199   1.166   4.574  13.042  0.7285 -0.2311 -1.2312
18570TIP3   OH277200   3.676   5.723  10.968 -0.2840 -0.6643 -0.3756
18570TIP3    H177201   3.629   5.724  11.051  1.3099  1.9973  0.6107
18570TIP3    H277202   3.621   5.773  10.908 -0.0613 -0.0027 -0.0380
18571TIP3   OH277203   0.896   4.315   0.400  0.0721 -0.4311 -0.3656
18571TIP3    H177204   0.904   4.232   0.352 -0.0728  0.6833 -2.3834
18571TIP3    H277205   0.827   4.363   0.355 -2.6335 -0.6585  3.0646
18572TIP3   OH277206   6.388   3.536  10.329 -0.6766  0.3662  0.3084
18572TIP3    H177207   6.354   3.540  10.239  0.7591  2.1247 -0.2152
18572TIP3    H277208   6.367   3.622  10.366  1.9464  1.0830  0.3611
18573TIP3   OH277209   5.128   5.552   1.169 -0.3295  0.3047 -0.2343
18573TIP3    H177210   5.150   5.578   1.259 -0.3570  0.4461 -0.2684
18573TIP3    H277211   5.208   5.511   1.136 -0.1605  0.6945 -0.3126
18574TIP3   OH277212   2.720   1.913  10.293  0.3859  0.1178  0.1487
18574TIP3    H177213   2.714   1.877  10.381 -1.5720  0.8626  0.3791
18574TIP3    H277214   2.691   1.842  10.236  0.7423 -0.0603  0.1874
18575TIP3   OH277215   2.158   2.654   6.232  0.5477  0.0847 -0.4096
18575TIP3    H177216   2.118   2.691   6.153  1.3076  0.6064 -0.5562
18575TIP3    H277217   2.127   2.710   6.303 -0.5527 -0.6907 -0.2468
18576TIP3   OH277218   1.396   0.775  13.514  0.8557  0.2364  0.1266
18576TIP3    H177219   1.406   0.737  13.601 -1.8203  0.6622  0.6988
18576TIP3    H277220   1.373   0.867  13.530  1.5058  0.6426 -1.0792
18577TIP3   OH277221   1.757   0.667   4.155  0.6243 -0.4244 -0.2769
18577TIP3    H177222   1.712   0.614   4.220  0.1841 -0.9865 -1.0253
18577TIP3    H277223   1.754   0.614   4.075 -1.3214  1.4226 -1.5084
18578TIP3   OH277224   2.035   6.672   5.365 -0.2612  0.3948 -0.7328
18578TIP3    H177225   1.943   6.660   5.338  0.0245  1.0364 -2.0938
18578TIP3    H277226   2.086   6.648   5.288  0.8619 -1.8410  0.5941
18579TIP3   OH277227   5.834   5.435  13.756 -0.5418 -0.0405  0.0025
18579TIP3    H177228   5.801   5.517  13.794 -1.2007 -0.1419 -0.3324
18579TIP3    H277229   5.763   5.372  13.771  0.6352 -1.0233  1.7922
18580TIP3   OH277230   3.270   0.488  14.411 -0.2426 -0.4075 -0.1108
18580TIP3    H177231   3.230   0.402  14.423  0.4769 -0.5767  1.4258
18580TIP3    H277232   3.259   0.508  14.319 -1.8149 -1.4469 -0.1768
18581TIP3   OH277233   5.518   5.588   4.997  0.1360  0.0298 -0.3980
18581TIP3    H177234   5.464   5.577   4.919  0.2105  1.5851 -0.6912
18581TIP3    H277235   5.458   5.570   5.070 -0.5793  0.9388 -0.7454
18582TIP3   OH277236   2.166   5.351  15.183  0.3271 -0.3773  0.0597
18582TIP3    H177237   2.245   5.392  15.148  1.1292 -1.2025  0.8481
18582TIP3    H277238   2.094   5.402  15.146  1.2498  1.0803  0.1879
18583TIP3   OH277239   2.733   1.926  15.482 -0.3019 -0.3314  0.2670
18583TIP3    H177240   2.724   1.969  15.398 -2.9883 -0.5394  0.3765
18583TIP3    H277241   2.664   1.963  15.537  2.2768  0.9218  2.9579
18584TIP3   OH277242   4.235   1.147  12.033 -0.0700  0.1453  0.1594
18584TIP3    H177243   4.235   1.127  11.939  3.2333 -2.0984  0.4819
18584TIP3    H277244   4.172   1.085  12.070  0.8810 -1.1086 -0.2680
18585TIP3   OH277245   4.061   4.298   2.477 -0.5170  0.2422 -0.1252
18585TIP3    H177246   4.118   4.302   2.554 -2.1982  2.0650  1.1243
18585TIP3    H277247   4.046   4.390   2.454  0.1167 -0.2448 -2.8351
18586TIP3   OH277248   6.087   2.315   3.879  0.5339  0.1134  0.0448
18586TIP3    H177249   6.068   2.234   3.927  0.2789  0.2593  0.1982
18586TIP3    H277250   6.109   2.286   3.791  0.9351 -0.1546  0.2323
18587TIP3   OH277251   3.626   0.661   4.209  0.2107 -0.0589  0.4352
18587TIP3    H177252   3.603   0.729   4.146  0.6978 -0.4919 -0.2197
18587TIP3    H277253   3.576   0.584   4.180 -2.5437  0.6824  2.7597
18588TIP3   OH277254   4.247   4.037  11.691 -0.8983  0.6486 -0.4159
18588TIP3    H177255   4.193   4.023  11.613 -0.3169  0.9824 -0.8910
18588TIP3    H277256   4.241   4.131  11.708 -0.6918  0.6436 -0.3089
18589TIP3   OH277257   5.099   4.285  17.004 -0.0836 -0.4273  0.2762
18589TIP3    H177258   5.099   4.376  16.971 -3.0880 -0.0295  1.0187
18589TIP3    H277259   5.046   4.289  17.083 -1.9902 -3.1244 -0.7304
18590TIP3   OH277260   4.015   4.670   2.524  0.5799 -0.3557  0.2711
18590TIP3    H177261   3.960   4.614   2.467 -0.5768  0.6632  0.3402
18590TIP3    H277262   4.014   4.626   2.609  0.1044 -0.5103  0.1898
18591TIP3   OH277263   0.875   6.286  15.299  0.5553  0.0619 -0.0713
18591TIP3    H177264   0.877   6.381  15.287  0.2860 -0.0377 -1.0287
18591TIP3    H277265   0.808   6.256  15.238  1.7867 -0.9015 -1.0138
18592TIP3   OH277266   5.059   3.817   2.768  0.0564 -0.8763 -0.0534
18592TIP3    H177267   5.013   3.734   2.756  0.7931 -1.1209 -1.4308
18592TIP3    H277268   4.990   3.882   2.782 -0.4806 -1.8966  2.3950
18593TIP3   OH277269   3.002   4.157   5.403  0.6340  0.1710  0.2510
18593TIP3    H177270   2.952   4.083   5.437  0.6087  0.5945  1.1457
18593TIP3    H277271   2.974   4.164   5.311  0.4291 -0.7451  0.2383
18594TIP3   OH277272   0.937   2.917   4.863  0.2348  0.1559  0.3338
18594TIP3    H177273   0.918   2.825   4.879 -0.2340  0.1448 -0.2383
18594TIP3    H277274   1.031   2.921   4.849  0.1851 -0.3212 -0.1601
18595TIP3   OH277275   6.608   1.512  16.558  0.4021  0.6504 -0.2591
18595TIP3    H177276   6.570   1.448  16.498  1.4922  0.3382 -0.6350
18595TIP3    H277277   6.599   1.596  16.512  0.6522  0.5028 -0.5830
18596TIP3   OH277278   5.382   4.406  14.107 -0.6990 -0.7370 -0.3116
18596TIP3    H177279   5.375   4.462  14.030 -0.4454  0.9883  0.8552
18596TIP3    H277280   5.303   4.425  14.157  0.3356  0.1445  1.0618
18597TIP3   OH277281   5.970   4.595  12.955  0.1301  0.0572  0.0536
18597TIP3    H177282   5.929   4.517  12.917  1.2843 -1.0061  0.9234
18597TIP3    H277283   5.968   4.659  12.884 -0.8549 -0.7480 -0.6800
18598TIP3   OH277284   1.689   2.027   1.054 -0.2775  0.1856  0.3236
18598TIP3    H177285   1.729   2.027   0.967  0.4593  1.3808  0.6442
18598TIP3    H277286   1.615   1.966   1.046  0.0765 -0.1109 -0.9872
18599TIP3   OH277287   6.225   5.316  12.688  0.2296 -0.1646 -0.0987
18599TIP3    H177288   6.253   5.371  12.761 -0.6149 -2.0686  1.7718
18599TIP3    H277289   6.142   5.354  12.659  1.0827  1.2219 -0.8173
18600TIP3   OH277290   4.841   0.749  15.232 -0.5586  0.3398 -0.5153
18600TIP3    H177291   4.772   0.742  15.166 -0.8855 -0.7979 -0.0832
18600TIP3    H277292   4.922   0.738  15.182 -0.8301 -1.1771 -0.6854
18601TIP3   OH277293   1.945   0.268   6.600 -0.5195 -0.0270  0.0471
18601TIP3    H177294   1.925   0.349   6.552  0.6274  0.2513  0.0165
18601TIP3    H277295   2.005   0.295   6.670 -0.6854 -0.7380  0.4759
18602TIP3   OH277296   0.541   4.933   0.937  0.3383  0.7340  0.1150
18602TIP3    H177297   0.491   4.907   1.014 -1.1994  0.8659 -0.8027
18602TIP3    H277298   0.603   4.998   0.971  0.0292  0.4415  1.3169
18603TIP3   OH277299   1.985   6.195   4.149 -0.2676  0.3049 -0.1564
18603TIP3    H177300   1.912   6.245   4.184 -1.7884 -0.6979 -1.7180
18603TIP3    H277301   1.974   6.200   4.054  1.0744 -0.7462 -0.4026
18604TIP3   OH277302   4.681   6.763   6.926  0.2830  0.1241 -0.0958
18604TIP3    H177303   4.749   6.716   6.974 -0.9786 -0.9957  0.6748
18604TIP3    H277304   4.603   6.708   6.937 -0.1763  0.0554 -3.0623
18605TIP3   OH277305   4.583   4.935  15.125  0.3518 -0.2860  0.6590
18605TIP3    H177306   4.563   4.842  15.113  2.6765 -1.0836  2.3046
18605TIP3    H277307   4.511   4.968  15.179 -0.3881 -1.1703  0.2361
18606TIP3   OH277308   2.465   3.233   2.583 -0.0436 -0.6552 -0.2399
18606TIP3    H177309   2.521   3.310   2.577 -1.5722  0.5883  0.4894
18606TIP3    H277310   2.487   3.180   2.506  0.6836  0.7632 -1.0421
18607TIP3   OH277311   5.446   5.151   0.007 -0.2159 -0.5367  0.3966
18607TIP3    H177312   5.449   5.224   0.069 -0.7367  0.2421 -0.4612
18607TIP3    H277313   5.526   5.160  -0.044  0.7452 -1.8093  1.6169
18608TIP3   OH277314   3.547   5.328  15.673  0.5212 -0.0389  0.5922
18608TIP3    H177315   3.618   5.359  15.617  0.4292  1.7811  1.4109
18608TIP3    H277316   3.468   5.368  15.636 -0.0398 -1.5480  0.0572
18609TIP3   OH277317   3.098   2.028   3.123  0.5710 -0.1843  0.1356
18609TIP3    H177318   3.181   2.067   3.096  0.8618 -0.8772  0.0101
18609TIP3    H277319   3.098   2.034   3.218  0.3983  0.5354  0.1015
18610TIP3   OH277320   6.641   6.402   1.234 -0.5924 -0.3304  0.2592
18610TIP3    H177321   6.552   6.411   1.201 -0.2916  0.0165 -0.4851
18610TIP3    H277322   6.633   6.345   1.310 -1.2859 -1.2735 -0.5015
18611TIP3   OH277323   2.382   1.695  11.365  0.5719  0.1255  0.4220
18611TIP3    H177324   2.395   1.712  11.272  1.1846 -1.2937  0.2205
18611TIP3    H277325   2.293   1.661  11.370  0.2872  0.8507  0.4686
18612TIP3   OH277326   1.741   1.683  12.290 -0.5235  0.4862  0.1657
18612TIP3    H177327   1.701   1.685  12.378 -1.3017 -1.5675 -0.0774
18612TIP3    H277328   1.821   1.633  12.301 -1.3615 -1.0619 -0.5267
18613TIP3   OH277329   2.067   6.432  12.244 -0.3716  0.2651 -0.8633
18613TIP3    H177330   2.046   6.397  12.331  0.9462  0.3950 -0.4723
18613TIP3    H277331   2.085   6.525  12.259 -0.0048  0.2597 -1.2472
18614TIP3   OH277332   2.469   3.082  14.767  0.4470  0.3620  0.5643
18614TIP3    H177333   2.449   2.992  14.740 -0.4175  1.0457 -1.2092
18614TIP3    H277334   2.431   3.137  14.699  2.1343  2.0468  0.8910
18615TIP3   OH277335   4.383   3.286  11.151 -0.7859 -0.1609  0.2193
18615TIP3    H177336   4.439   3.350  11.107  0.4147 -0.5420  1.1297
18615TIP3    H277337   4.294   3.313  11.129 -0.2775  1.1323 -0.3624
18616TIP3   OH277338   1.053   2.070   2.643  0.6035 -0.6991  0.0999
18616TIP3    H177339   1.024   2.160   2.659  2.4946 -0.1900  0.9002
18616TIP3    H277340   1.011   2.019   2.712 -1.4336 -0.7016 -1.0469
18617TIP3   OH277341   3.393   4.891   5.880 -0.0706 -0.7007  0.2648
18617TIP3    H177342   3.454   4.964   5.889 -1.3997  0.3166  1.6334
18617TIP3    H277343   3.424   4.842   5.804  1.0049  1.1691 -0.5571
18618TIP3   OH277344   2.767   5.263  12.105  0.0539 -0.5260 -0.4075
18618TIP3    H177345   2.837   5.201  12.083 -0.5988 -2.1829  1.7731
18618TIP3    H277346   2.700   5.209  12.147 -0.3824  1.6824  2.0143
18619TIP3   OH277347   6.488   6.084   4.196 -0.1533  0.1017 -0.2587
18619TIP3    H177348   6.488   6.041   4.281  1.8362  1.7333  0.6456
18619TIP3    H277349   6.576   6.072   4.162 -0.6254  0.3348 -1.6398
18620TIP3   OH277350   0.516   6.244  12.314 -0.0906 -0.1740  0.1533
18620TIP3    H177351   0.573   6.224  12.388 -0.4429 -0.7436  0.2787
18620TIP3    H277352   0.560   6.206  12.238 -1.0606 -2.0929  0.4756
18621TIP3   OH277353   2.677   4.535   4.412  0.2345  0.8482 -0.4888
18621TIP3    H177354   2.767   4.524   4.379  0.1875  0.6073 -0.5396
18621TIP3    H277355   2.629   4.461   4.375  0.4084 -0.0052  0.9224
18622TIP3   OH277356   0.683   4.123  16.957  0.2483 -0.6225  0.5382
18622TIP3    H177357   0.607   4.104  17.012  0.6970 -1.2363  0.9581
18622TIP3    H277358   0.684   4.219  16.950  0.2677 -0.5198  1.7329
18623TIP3   OH277359   3.385   1.429   0.663 -0.1049 -0.3525 -0.6024
18623TIP3    H177360   3.449   1.494   0.633  0.5876  0.1390  1.7182
18623TIP3    H277361   3.308   1.480   0.685  0.2610 -0.3303  0.7333
18624TIP3   OH277362   4.919   4.077   6.268  0.3452 -0.8145 -0.4589
18624TIP3    H177363   4.885   4.117   6.348  0.0008 -1.1087 -0.4585
18624TIP3    H277364   4.846   4.080   6.207  0.1648 -1.8765 -0.3029
18625TIP3   OH277365   2.468   0.838  17.012  0.0190  0.1213  0.3160
18625TIP3    H177366   2.451   0.782  17.088  0.7612  0.3574  0.6631
18625TIP3    H277367   2.455   0.927  17.045  0.6956  0.2409  0.2648
18626TIP3   OH277368   4.704   3.278  12.400  0.3601  0.0464 -0.0135
18626TIP3    H177369   4.693   3.314  12.488 -0.0013  0.2979 -0.1576
18626TIP3    H277370   4.622   3.232  12.382  1.3368 -2.0926  0.7201
18627TIP3   OH277371   4.488   0.283   0.113 -0.3268  0.5549  0.0100
18627TIP3    H177372   4.431   0.207   0.101  0.0715  0.3503 -0.6117
18627TIP3    H277373   4.433   0.347   0.159 -0.4118 -0.4001  1.2845
18628TIP3   OH277374   6.513   3.193   3.089  0.3986  0.3111 -0.5749
18628TIP3    H177375   6.440   3.252   3.108  2.0507  2.0522  0.8132
18628TIP3    H277376   6.477   3.105   3.102 -0.7246  1.1485  3.3008
18629TIP3   OH277377   0.886   6.516  10.672  0.5012  0.7599  0.0300
18629TIP3    H177378   0.876   6.551  10.583 -0.6826  1.3665  0.3784
18629TIP3    H277379   0.979   6.527  10.691  0.6665  1.1643 -0.9194
18630TIP3   OH277380   0.998   0.440  15.496 -0.3305 -0.1103  0.0416
18630TIP3    H177381   0.934   0.375  15.466  0.7848 -0.5167 -1.6703
18630TIP3    H277382   0.971   0.462  15.585 -0.4966 -3.3182  0.9221
18631TIP3   OH277383   6.794   5.097   1.474  0.2126 -0.2416 -0.6381
18631TIP3    H177384   6.756   5.141   1.397 -0.2673  0.4943  0.0038
18631TIP3    H277385   6.824   5.013   1.441 -0.4350 -0.1359 -1.5350
18632TIP3   OH277386   4.402   1.035   2.006 -0.4539  0.1410 -0.5391
18632TIP3    H177387   4.365   0.949   1.987 -1.9336  0.2810  1.4077
18632TIP3    H277388   4.474   1.044   1.944  0.7378 -3.1359  0.1499
18633TIP3   OH277389   1.930   6.609  14.061 -0.6000  0.2266 -0.0595
18633TIP3    H177390   2.020   6.640  14.064 -0.4127 -0.2988 -0.1216
18633TIP3    H277391   1.915   6.572  14.148 -0.9042  0.7130  0.0989
18634TIP3   OH277392   6.559   4.357   1.418 -0.3177 -0.0257  0.3696
18634TIP3    H177393   6.593   4.410   1.490  0.3964  0.5011 -0.3429
18634TIP3    H277394   6.521   4.420   1.357 -1.3175 -0.5006  0.4706
18635TIP3   OH277395   0.637   2.668  10.764  0.1115  0.2895  0.7117
18635TIP3    H177396   0.710   2.649  10.704 -1.1193 -1.0543 -0.4499
18635TIP3    H277397   0.569   2.704  10.707 -0.2839  1.1406  1.7108
18636TIP3   OH277398   6.653   0.666   3.673 -0.1049  0.8203  0.1817
18636TIP3    H177399   6.739   0.675   3.714 -1.2830 -1.5473  3.5471
18636TIP3    H277400   6.670   0.615   3.593  1.7273  1.6266  0.0056
18637TIP3   OH277401   1.531   6.193   3.262 -1.1307  0.3709  0.2823
18637TIP3    H177402   1.498   6.220   3.176 -1.9436 -1.3903  0.0041
18637TIP3    H277403   1.626   6.184   3.249 -1.0819  1.2894 -0.0881
18638TIP3   OH277404   4.786   2.913   3.444 -0.0599 -0.0320  0.2344
18638TIP3    H177405   4.692   2.896   3.435 -0.4286  1.1883  1.3655
18638TIP3    H277406   4.797   3.002   3.411  0.2091  0.8280  2.4931
18639TIP3   OH277407   1.213   2.661  10.860  0.5265 -0.1499  0.0339
18639TIP3    H177408   1.200   2.567  10.848 -0.6350 -0.1836  1.3564
18639TIP3    H277409   1.212   2.696  10.771 -1.0839 -1.1399 -0.3805
18640TIP3   OH277410   2.476   3.634   0.991 -0.5617 -0.0205 -0.0707
18640TIP3    H177411   2.487   3.720   0.950 -1.4671 -0.3161 -0.9507
18640TIP3    H277412   2.443   3.578   0.921 -0.8750 -0.8634  0.7392
18641TIP3   OH277413   6.256   0.412  12.940  0.8274 -0.2503  0.2391
18641TIP3    H177414   6.252   0.375  13.028 -0.8673 -0.1336  0.2383
18641TIP3    H277415   6.269   0.506  12.955 -0.3919 -0.0960  0.4123
18642TIP3   OH277416   0.016   3.486  13.533 -0.5437  0.4952 -0.3033
18642TIP3    H177417   0.061   3.564  13.501  1.0198 -0.0338  0.4770
18642TIP3    H277418  -0.059   3.475  13.475  2.5730 -0.9764 -4.4618
18643TIP3   OH277419   1.762   4.900   3.758  0.3414  0.4668 -0.0932
18643TIP3    H177420   1.853   4.906   3.727 -0.3615  0.8090 -2.3278
18643TIP3    H277421   1.732   4.816   3.723 -0.6986  1.1814 -0.9810
18644TIP3   OH277422   2.528   5.868   1.190 -0.6940 -0.1925 -0.0165
18644TIP3    H177423   2.566   5.932   1.128 -0.8860 -1.2489 -1.2633
18644TIP3    H277424   2.590   5.866   1.263  1.1394 -1.0659 -1.5182
18645TIP3   OH277425   1.578   6.562  16.056 -0.6086  0.1118 -0.0700
18645TIP3    H177426   1.509   6.512  16.012 -0.2865 -0.2963 -0.1184
18645TIP3    H277427   1.658   6.541  16.008 -0.3775  0.2389  0.2561
18646TIP3   OH277428   4.459   1.924   3.899  0.1422 -0.1802  0.2666
18646TIP3    H177429   4.528   1.866   3.930  0.4614  0.0394 -0.0323
18646TIP3    H277430   4.457   1.996   3.962  0.2523 -0.1359  0.2188
18647TIP3   OH277431   6.169   4.383   2.180  0.1256 -0.2077  0.0186
18647TIP3    H177432   6.186   4.303   2.229  0.6175 -0.3213 -0.3325
18647TIP3    H277433   6.238   4.386   2.114 -0.0299  0.3841 -0.1219
18648TIP3   OH277434   0.502   0.429   3.954  0.2150 -0.1051  0.5525
18648TIP3    H177435   0.427   0.393   4.002 -0.7742 -0.8558 -1.4437
18648TIP3    H277436   0.553   0.352   3.929  0.2768  0.1971 -0.2645
18649TIP3   OH277437   2.511   2.418   1.111  0.0340 -0.1804 -0.0811
18649TIP3    H177438   2.586   2.360   1.118  0.3699  0.4166  2.1740
18649TIP3    H277439   2.435   2.361   1.117  0.3090 -0.6415 -0.8647
18650TIP3   OH277440   5.946   5.297  13.283 -0.5101 -0.7704  0.4010
18650TIP3    H177441   6.015   5.320  13.345  1.7892 -0.7974 -1.9680
18650TIP3    H277442   5.924   5.206  13.303  1.8336 -1.5265 -0.1829
18651TIP3   OH277443   4.348   2.111   3.069 -0.7687 -0.5989  0.0132
18651TIP3    H177444   4.300   2.171   3.127  0.9799 -1.2378  2.2707
18651TIP3    H277445   4.303   2.027   3.079 -1.2375 -0.4248 -0.5841
18652TIP3   OH277446   1.627   0.958  14.276 -0.2176  0.4822 -0.6364
18652TIP3    H177447   1.718   0.951  14.303 -0.2046  1.1231 -0.4936
18652TIP3    H277448   1.607   0.874  14.236  1.5659  1.5740 -4.2299
18653TIP3   OH277449   5.259   6.018   6.407 -0.6184  0.5171 -0.2993
18653TIP3    H177450   5.173   6.009   6.448 -1.5091  1.3990 -1.8598
18653TIP3    H277451   5.259   5.952   6.337  0.0658  0.3781 -0.1762
18654TIP3   OH277452   1.814   6.128  12.605  0.7128  0.3459 -0.1802
18654TIP3    H177453   1.741   6.067  12.592  1.9767 -1.0102 -1.2043
18654TIP3    H277454   1.796   6.169  12.689 -1.7714  0.8301 -0.8751
18655TIP3   OH277455   5.019   4.147   4.918 -0.3822  0.2951 -0.0074
18655TIP3    H177456   4.951   4.165   4.853 -0.4931 -0.4645 -0.1130
18655TIP3    H277457   5.084   4.216   4.904 -1.2338  1.1522  0.2486
18656TIP3   OH277458   3.764   1.587  17.206 -0.1796  0.2019  0.1127
18656TIP3    H177459   3.833   1.626  17.259  0.6515 -0.5821 -0.3553
18656TIP3    H277460   3.683   1.605  17.254  0.2248  1.9675  0.1929
18657TIP3   OH277461   4.020   2.153   4.255  0.3538 -0.0293  0.4906
18657TIP3    H177462   3.962   2.086   4.292  0.4470  0.3842  1.4284
18657TIP3    H277463   3.995   2.234   4.301  0.2893  0.5662 -0.5759
18658TIP3   OH277464   0.493   3.145  13.969  0.4940 -0.1594  0.1662
18658TIP3    H177465   0.550   3.168  14.043  0.3765 -0.0232  0.2145
18658TIP3    H277466   0.411   3.119  14.009  0.5743 -0.5140  0.1027
18659TIP3   OH277467   0.972   1.045  12.645 -0.2411 -0.5820  0.2798
18659TIP3    H177468   0.926   1.128  12.655  1.6191  0.6814 -0.8370
18659TIP3    H277469   0.912   0.990  12.595 -0.1949  1.4227 -2.2089
18660TIP3   OH277470   4.830   3.189  13.810  0.2360  0.6538  0.6546
18660TIP3    H177471   4.885   3.164  13.885 -0.1190 -0.0214  0.6945
18660TIP3    H277472   4.747   3.145  13.826  1.1080 -2.1323 -1.6807
18661TIP3   OH277473   3.748   4.917  15.744  0.2612  0.4328 -0.2462
18661TIP3    H177474   3.662   4.954  15.761 -0.1323 -1.4382  2.5581
18661TIP3    H277475   3.749   4.899  15.650 -1.6869  2.0796 -0.6434
18662TIP3   OH277476   0.956   6.423   3.433 -0.3325  0.3826 -0.0479
18662TIP3    H177477   1.007   6.438   3.512  1.3310  1.1409 -1.2031
18662TIP3    H277478   0.918   6.336   3.445  0.9313 -0.0565  1.0373
18663TIP3   OH277479   4.975   4.664  16.014  0.1889 -0.8055  0.1748
18663TIP3    H177480   4.919   4.741  16.003  0.5276 -0.6484 -0.4924
18663TIP3    H277481   5.064   4.700  16.014  0.3208 -1.1209  0.6083
18664TIP3   OH277482   0.573   2.396  11.405 -0.3778 -0.0063 -0.1216
18664TIP3    H177483   0.656   2.414  11.448 -0.7431 -2.0563  1.6151
18664TIP3    H277484   0.509   2.390  11.476 -0.8611 -4.3380 -0.6665
18665TIP3   OH277485   0.620   5.234   3.831 -0.3819 -0.2422 -0.8643
18665TIP3    H177486   0.661   5.238   3.917 -0.6846 -0.0508 -0.7244
18665TIP3    H277487   0.691   5.247   3.769 -0.3392  0.8705 -0.6054
18666TIP3   OH277488   5.890   1.292  16.427 -0.0691  0.0558  0.3635
18666TIP3    H177489   5.869   1.206  16.464  0.9692 -0.5192 -0.3432
18666TIP3    H277490   5.985   1.294  16.422 -0.0730  1.2748  0.3923
18667TIP3   OH277491   0.327   4.389  13.406  0.0323  0.6591  0.7625
18667TIP3    H177492   0.400   4.446  13.382  0.4911  0.4081  1.5333
18667TIP3    H277493   0.287   4.365  13.322 -0.5139  2.5270  0.4376
18668TIP3   OH277494   5.665   5.361  13.028  0.1708 -0.4295 -0.2756
18668TIP3    H177495   5.686   5.449  13.059  1.1203 -0.3334 -1.1572
18668TIP3    H277496   5.585   5.371  12.978 -1.0564 -0.4838  1.5626
18669TIP3   OH277497   2.601   3.907   0.244  0.5424  0.2923  0.7212
18669TIP3    H177498   2.623   3.982   0.188 -0.2445  0.1365  0.1803
18669TIP3    H277499   2.651   3.922   0.324  1.8295  0.4363 -0.0787
18670TIP3   OH277500   1.872   3.118  11.321  0.3764 -0.2867 -0.1255
18670TIP3    H177501   1.888   3.048  11.383 -0.9791  0.8226  1.5382
18670TIP3    H277502   1.789   3.096  11.280 -0.3377  0.6025  0.8133
18671TIP3   OH277503   1.548   6.716   2.617  0.1223  0.6027 -0.1436
18671TIP3    H177504   1.575   6.649   2.679  0.0552  0.2062 -0.5337
18671TIP3    H277505   1.493   6.776   2.668  0.0444  0.2660  0.1685
18672TIP3   OH277506   3.884   3.900   1.446 -0.3212  0.2543  0.2271
18672TIP3    H177507   3.937   3.932   1.519  0.4319 -0.4471  0.0063
18672TIP3    H277508   3.809   3.857   1.488  1.3535 -2.3869  0.7403
18673TIP3   OH277509   5.662   6.533  15.498 -0.6578  0.3631  0.3478
18673TIP3    H177510   5.708   6.452  15.474 -0.6175  0.1343  1.1414
18673TIP3    H277511   5.604   6.551  15.424 -1.2247 -0.8208  0.4755
18674TIP3   OH277512   1.483   0.287  14.359 -0.1820  0.0509  0.5064
18674TIP3    H177513   1.512   0.368  14.401  0.8431  0.3941 -0.7579
18674TIP3    H277514   1.424   0.316  14.289 -0.1686 -0.3254  0.3359
18675TIP3   OH277515   3.246   4.840  15.293  0.5769 -0.1025 -0.9691
18675TIP3    H177516   3.243   4.748  15.270 -0.6501  0.0705 -1.6114
18675TIP3    H277517   3.176   4.852  15.357  2.6502 -0.1673  1.4455
18676TIP3   OH277518   3.434   2.263   4.382 -0.8860 -0.2911 -0.0749
18676TIP3    H177519   3.356   2.316   4.363 -0.9493 -0.2310  0.3476
18676TIP3    H277520   3.489   2.273   4.304 -1.4723 -0.6542 -0.5417
18677TIP3   OH277521   4.796   2.286   0.839 -0.0037  0.0741 -0.1427
18677TIP3    H177522   4.816   2.193   0.824 -1.5802 -0.2025 -0.6951
18677TIP3    H277523   4.782   2.292   0.934  0.8534 -0.0705  0.0072
18678TIP3   OH277524   1.696   2.220  17.025 -0.3588  0.5108 -0.1529
18678TIP3    H177525   1.764   2.154  17.037  0.0314  1.2367  2.1711
18678TIP3    H277526   1.695   2.237  16.931  1.4825 -0.7442 -0.4526
18679TIP3   OH277527   0.178   2.999   3.827 -0.1298  0.1788  0.4347
18679TIP3    H177528   0.097   2.949   3.823  0.7298 -1.1655 -1.7210
18679TIP3    H277529   0.152   3.089   3.806 -1.1133 -0.1288  0.3001
18680TIP3   OH277530   5.887   1.572  14.205 -0.3015 -0.1762 -0.3852
18680TIP3    H177531   5.958   1.616  14.253 -1.3714  0.7636  0.3876
18680TIP3    H277532   5.807   1.610  14.241 -1.2189 -1.4242 -1.0458
18681TIP3   OH277533   4.552   4.890   2.564  0.2287 -0.2976 -0.3435
18681TIP3    H177534   4.532   4.865   2.654  0.7953  1.6300  0.3771
18681TIP3    H277535   4.525   4.982   2.559  1.4952  0.0346 -1.7017
18682TIP3   OH277536   5.226   0.089  11.260  0.1933  0.4805  0.2731
18682TIP3    H177537   5.319   0.076  11.278  0.0752  0.4717  0.8979
18682TIP3    H277538   5.181   0.044  11.332 -0.2648  1.9236  0.9263
18683TIP3   OH277539   4.291   5.250  13.824 -0.1483 -0.5027 -0.5243
18683TIP3    H177540   4.290   5.164  13.866 -0.0545  0.2490  1.0953
18683TIP3    H277541   4.379   5.284  13.840 -0.6780  0.5496  0.3271
18684TIP3   OH277542   6.394   2.483   4.764 -0.5503  0.0622  0.1068
18684TIP3    H177543   6.351   2.499   4.680  0.3324 -1.3633 -0.6496
18684TIP3    H277544   6.322   2.478   4.827 -1.1183  2.9103 -0.2127
18685TIP3   OH277545   5.441   2.520   3.489  0.4284 -0.6581  0.3861
18685TIP3    H177546   5.348   2.505   3.472  0.3941 -0.1849  0.1510
18685TIP3    H277547   5.458   2.608   3.457  1.1779 -1.0830 -0.4486
18686TIP3   OH277548   5.036   6.210  13.742  0.0336  0.1439 -0.1305
18686TIP3    H177549   5.117   6.254  13.716  1.0532  0.0090  2.4497
18686TIP3    H277550   4.974   6.281  13.758  0.0617  0.3258 -0.7975
18687TIP3   OH277551   3.362   3.122  11.961  0.4358 -0.0755 -0.6439
18687TIP3    H177552   3.353   3.213  11.988 -1.3740  0.3387 -2.4031
18687TIP3    H277553   3.285   3.078  11.998  1.0264 -0.7975 -0.2416
18688TIP3   OH277554   1.765   3.243   1.081 -0.1599  0.6358 -0.0191
18688TIP3    H177555   1.775   3.164   1.133  1.7105 -0.9685 -2.5713
18688TIP3    H277556   1.849   3.288   1.090  0.0929  0.4772 -1.3375
18689TIP3   OH277557   0.199   6.427  17.270 -0.1339  0.7175 -0.4780
18689TIP3    H177558   0.132   6.471  17.322  1.7441  1.3075  1.5872
18689TIP3    H277559   0.240   6.497  17.219  0.4208  0.7606  0.0189
18690TIP3   OH277560   1.053   1.729  14.840  0.0524  0.3264 -0.0213
18690TIP3    H177561   1.015   1.645  14.865  1.5331 -0.3936 -0.0832
18690TIP3    H277562   1.076   1.770  14.924  1.5263 -0.4098 -0.0419
18691TIP3   OH277563   4.622   2.957   1.708 -0.1818 -0.2656 -0.0289
18691TIP3    H177564   4.685   2.917   1.649  1.1149  3.6897 -1.6738
18691TIP3    H277565   4.540   2.961   1.658  0.5252  1.7511 -1.1356
18692TIP3   OH277566   6.509   5.225  14.611  0.3355  0.1274 -0.0054
18692TIP3    H177567   6.494   5.317  14.587  0.7868  0.4182  0.7636
18692TIP3    H277568   6.551   5.230  14.697  0.1314 -0.8138  0.1581
18693TIP3   OH277569   1.186   0.925   3.563  0.5297  0.3801 -0.6375
18693TIP3    H177570   1.185   0.990   3.492 -0.9725 -0.9776 -1.9678
18693TIP3    H277571   1.094   0.902   3.575  0.9391 -0.7999  0.4685
18694TIP3   OH277572   3.826   3.216   3.161 -0.3435 -0.3752  0.0142
18694TIP3    H177573   3.753   3.170   3.119 -0.0256  1.1652 -2.4447
18694TIP3    H277574   3.844   3.290   3.103  0.8452  1.3599  2.4507
18695TIP3   OH277575   1.235   6.026  12.875 -0.9154 -0.0693  0.0281
18695TIP3    H177576   1.271   5.972  12.946 -0.8450 -0.7320 -0.5072
18695TIP3    H277577   1.140   6.017  12.884 -0.9017 -0.3228 -0.0991
18696TIP3   OH277578   0.240   4.914   0.107  0.5298  0.3211  0.5887
18696TIP3    H177579   0.267   4.850   0.041  0.0728  1.2165 -0.5015
18696TIP3    H277580   0.228   4.862   0.187  0.1287 -0.9727 -0.2716
18697TIP3   OH277581   5.637   3.558  14.018 -0.2262  0.3290 -0.1756
18697TIP3    H177582   5.656   3.636  13.966  0.7404 -1.4618 -2.7721
18697TIP3    H277583   5.580   3.505  13.962  0.0358 -1.2926  1.0101
18698TIP3   OH277584   5.414   3.050  15.399  0.6227 -0.1079 -0.2975
18698TIP3    H177585   5.372   2.967  15.376 -1.6966  0.6755  0.8196
18698TIP3    H277586   5.447   3.084  15.316  2.3888 -2.4663 -0.6748
18699TIP3   OH277587   0.616   3.842   5.640 -0.0568 -0.0375 -0.0333
18699TIP3    H177588   0.617   3.764   5.695 -0.5970 -0.0190  0.0087
18699TIP3    H277589   0.706   3.874   5.641 -0.0900  0.0417  0.9447
18700TIP3   OH277590   1.060   1.618   5.019 -0.5482  0.0817  0.3257
18700TIP3    H177591   1.133   1.561   4.996 -0.0510 -0.1765  2.3589
18700TIP3    H277592   0.985   1.581   4.973  0.2619 -0.6563 -0.4312
18701TIP3   OH277593   1.534   4.890  14.089  0.7437 -0.3436 -0.2492
18701TIP3    H177594   1.441   4.913  14.086  0.9869  0.7377 -0.1155
18701TIP3    H277595   1.540   4.819  14.152  0.1127  0.1229  0.3491
18702TIP3   OH277596   0.128   6.391   3.931 -0.0906 -0.2819 -0.0698
18702TIP3    H177597   0.046   6.344   3.942 -0.0325 -0.6024 -0.9450
18702TIP3    H277598   0.125   6.459   3.998 -0.4184 -1.1783  0.8395
18703TIP3   OH277599   3.031   1.448  14.857  0.4937  0.8216  0.1811
18703TIP3    H177600   3.012   1.385  14.787 -1.2635 -0.2592  1.5115
18703TIP3    H277601   2.987   1.528  14.830 -0.8604  0.1752  0.3270
18704TIP3   OH277602   6.347   3.274  17.072  0.1401  0.5337 -0.1743
18704TIP3    H177603   6.382   3.188  17.047 -0.7365  0.5181 -1.4374
18704TIP3    H277604   6.422   3.333  17.069  1.3250 -0.5777  3.1338
18705TIP3   OH277605   4.622   1.227  12.552 -0.1653  0.5737 -0.1600
18705TIP3    H177606   4.692   1.225  12.617 -0.6794  2.0002  0.4923
18705TIP3    H277607   4.667   1.243  12.469  0.5439 -1.8047 -0.2898
18706TIP3   OH277608   3.989   2.759   2.686  0.3786  0.8153 -0.0472
18706TIP3    H177609   4.025   2.749   2.598 -0.1285 -1.4564 -0.0766
18706TIP3    H277610   4.057   2.724   2.744  0.8542  2.6203  0.5354
18707TIP3   OH277611   3.737   1.991   4.296 -0.2183 -0.5414 -0.4753
18707TIP3    H177612   3.688   2.072   4.310 -0.4878 -0.6344 -0.8247
18707TIP3    H277613   3.671   1.922   4.307  0.2091 -0.7778  0.7705
18708TIP3   OH277614   6.090   4.947  11.695 -0.3147 -0.7646  0.3677
18708TIP3    H177615   6.145   4.873  11.667 -1.5681 -1.4845 -0.2591
18708TIP3    H277616   6.153   5.012  11.727  0.7979 -2.3949  1.7138
18709TIP3   OH277617   2.579   5.088   2.091  0.2604  0.5951 -0.1697
18709TIP3    H177618   2.579   5.178   2.122  1.4708  0.2778  0.8283
18709TIP3    H277619   2.632   5.090   2.012 -1.1228  1.0411 -1.1131
18710TIP3   OH277620   2.596   6.034   1.722  0.0371 -0.3073  0.1416
18710TIP3    H177621   2.546   6.024   1.804 -0.0649 -0.6454  0.0392
18710TIP3    H277622   2.687   6.016   1.748 -0.0758 -1.0257  0.0626
18711TIP3   OH277623   0.387   4.612   3.437 -0.0871 -0.1262 -0.2613
18711TIP3    H177624   0.459   4.667   3.406  0.9451 -0.9027  0.6915
18711TIP3    H277625   0.429   4.538   3.481 -1.4591 -0.5962  0.3438
18712TIP3   OH277626   0.642   1.180  13.864 -0.8470  0.4501  0.2315
18712TIP3    H177627   0.661   1.200  13.955  0.5124  0.1419  0.0365
18712TIP3    H277628   0.724   1.196  13.818 -1.5836  0.8581 -0.9904
18713TIP3   OH277629   1.792   0.799  17.284  0.0953 -0.2749 -0.4181
18713TIP3    H177630   1.809   0.716  17.240  2.3681 -0.5676  0.8682
18713TIP3    H277631   1.802   0.865  17.216 -1.5884 -0.9870 -1.4205
18714TIP3   OH277632   4.439   0.798  13.567 -0.2446 -0.1128 -0.3631
18714TIP3    H177633   4.456   0.744  13.490 -0.3619 -0.1679 -0.3511
18714TIP3    H277634   4.411   0.736  13.634 -2.3029  0.1310 -0.9154
18715TIP3   OH277635   6.130   0.556   4.034 -0.2235 -0.5911  0.8771
18715TIP3    H177636   6.155   0.506   4.112  1.0049 -2.5667 -0.7072
18715TIP3    H277637   6.212   0.570   3.987 -1.0711 -0.3097 -0.5701
18716TIP3   OH277638   4.524   1.266  14.192 -0.5803  0.7483  0.1443
18716TIP3    H177639   4.447   1.322  14.182  0.6074  2.3839 -0.2625
18716TIP3    H277640   4.578   1.311  14.258  1.2269  1.0641 -1.4662
18717TIP3   OH277641   1.305   4.475   4.164 -0.1948 -0.1419  0.4657
18717TIP3    H177642   1.327   4.397   4.113  0.5403  0.0579  0.4575
18717TIP3    H277643   1.322   4.450   4.255 -0.2424 -0.0826  0.4914
18718TIP3   OH277644   0.762   0.679   1.325 -0.2788  0.1077 -0.4161
18718TIP3    H177645   0.714   0.630   1.258 -0.8488 -0.0162  0.0768
18718TIP3    H277646   0.789   0.760   1.282  0.1078 -0.3495 -1.0485
18719TIP3   OH277647   1.477   4.483   1.552  0.0481  0.1860  0.2709
18719TIP3    H177648   1.555   4.529   1.582  1.2043 -1.6962  0.2976
18719TIP3    H277649   1.429   4.462   1.632 -0.6050  1.4730  0.2452
18720TIP3   OH277650   1.561   6.260   4.827 -0.2937  0.7271  0.8937
18720TIP3    H177651   1.525   6.222   4.747 -0.3311  0.8460  0.8547
18720TIP3    H277652   1.532   6.201   4.897  1.3282 -0.4953  0.6191
18721TIP3   OH277653   3.954   6.409  11.377 -0.1883 -0.4098 -0.0695
18721TIP3    H177654   3.890   6.409  11.306  0.4632 -0.8051 -0.6792
18721TIP3    H277655   3.941   6.327  11.423  0.7320 -1.1180 -1.0150
18722TIP3   OH277656   0.225   5.797   2.936 -0.3940  0.0252  0.0446
18722TIP3    H177657   0.269   5.838   3.010  1.7885 -2.4068  0.2064
18722TIP3    H277658   0.157   5.742   2.975 -0.0148 -0.3588  0.1628
18723TIP3   OH277659   3.438   2.907   6.467 -0.0915  0.3014 -0.3842
18723TIP3    H177660   3.442   2.971   6.396  0.4524 -1.3801 -1.9279
18723TIP3    H277661   3.515   2.852   6.454 -0.1047 -0.2004  1.3897
18724TIP3   OH277662   0.152   5.450   4.915 -0.5992 -0.1855 -0.4904
18724TIP3    H177663   0.133   5.491   4.830  0.1224 -2.0117 -1.5738
18724TIP3    H277664   0.068   5.414   4.943 -0.3854 -1.6731 -1.6317
18725TIP3   OH277665   3.410   5.675   2.020  0.8735  0.2093  0.2878
18725TIP3    H177666   3.459   5.721   2.089 -0.0480  1.4441  0.1532
18725TIP3    H277667   3.470   5.672   1.946  0.8391  1.5609  0.1772
18726TIP3   OH277668   2.993   0.130  14.435 -0.1375 -0.2478  0.0255
18726TIP3    H177669   3.017   0.127  14.528 -0.1391  0.8885  0.0708
18726TIP3    H277670   2.972   0.039  14.413  0.9158 -0.7174  0.8581
18727TIP3   OH277671   5.588   2.469  14.293  0.0356 -0.0726  0.2872
18727TIP3    H177672   5.676   2.458  14.331  0.2373 -0.6390 -0.3272
18727TIP3    H277673   5.583   2.562  14.272  0.9676 -0.2424 -0.8007
18728TIP3   OH277674   4.854   2.502   9.945 -0.0419  0.2115  0.3951
18728TIP3    H177675   4.893   2.415   9.950 -0.6035 -0.2302 -1.8944
18728TIP3    H277676   4.769   2.493   9.987 -0.8449 -0.8494 -1.3763
18729TIP3   OH277677   5.368   4.309  16.943 -0.4848 -0.0298 -0.4255
18729TIP3    H177678   5.274   4.312  16.927 -0.2581 -0.7702 -2.1152
18729TIP3    H277679   5.384   4.224  16.982 -0.4297 -0.1905 -0.7963
18730TIP3   OH277680   3.867   3.918  13.153  0.1166  0.2118 -0.3782
18730TIP3    H177681   3.773   3.903  13.153  0.3647 -1.5777  0.0029
18730TIP3    H277682   3.877   4.012  13.140 -1.7748  0.7914  1.8247
18731TIP3   OH277683   0.800   0.890   0.342  0.4414 -0.0258  0.3300
18731TIP3    H177684   0.828   0.961   0.284  0.0628  1.4811  1.9119
18731TIP3    H277685   0.851   0.903   0.422 -0.2555 -1.0240  0.9606
18732TIP3   OH277686   6.483   6.533  12.319  0.5748 -0.3416 -0.2220
18732TIP3    H177687   6.561   6.478  12.307  1.7357  1.0494  0.6527
18732TIP3    H277688   6.497   6.607  12.260  1.1665  1.1653  1.7026
18733TIP3   OH277689   4.668   3.641  10.699  0.1088 -0.5002  0.4266
18733TIP3    H177690   4.683   3.713  10.639 -1.0315 -0.6285 -0.0398
18733TIP3    H277691   4.612   3.678  10.768 -0.3154 -0.8803  0.2935
18734TIP3   OH277692   3.496   6.373  17.281 -0.2777  0.5414 -0.1539
18734TIP3    H177693   3.416   6.363  17.331 -0.4581  0.8646 -0.3769
18734TIP3    H277694   3.506   6.468  17.269 -0.5058  0.4458 -1.1618
18735TIP3   OH277695   5.623   0.924  13.189 -0.0316 -0.2901  0.0536
18735TIP3    H177696   5.544   0.873  13.172 -1.8649  2.1850  0.7179
18735TIP3    H277697   5.667   0.929  13.104 -1.9540  0.4790 -0.9340
18736TIP3   OH277698   4.455   4.862  11.106 -0.3362  0.0967  0.2500
18736TIP3    H177699   4.422   4.938  11.058 -0.4666  1.5142  2.4314
18736TIP3    H277700   4.379   4.804  11.114 -0.3897 -0.0256 -0.9242
18737TIP3   OH277701   3.759   4.696   0.827 -0.4481 -0.1199 -0.4949
18737TIP3    H177702   3.771   4.780   0.783  0.7641  0.1969  0.3900
18737TIP3    H277703   3.769   4.716   0.920  0.0449 -1.2741 -0.2802
18738TIP3   OH277704   1.302   5.296  16.460 -0.3547  0.3070 -0.2747
18738TIP3    H177705   1.257   5.226  16.506 -0.6791 -0.4492 -1.6729
18738TIP3    H277706   1.247   5.373  16.471 -0.0529  0.3468  1.1790
18739TIP3   OH277707   3.686   5.399  16.620 -0.2856 -0.3562  0.0269
18739TIP3    H177708   3.622   5.420  16.552 -0.9417 -0.6815  0.5209
18739TIP3    H277709   3.650   5.439  16.699  0.9523  0.8489  0.0066
18740TIP3   OH277710   3.734   6.192   0.926  0.2663 -0.4493 -0.2433
18740TIP3    H177711   3.817   6.195   0.878  0.6722 -0.5396  0.4369
18740TIP3    H277712   3.759   6.172   1.016 -0.5428 -1.0972 -0.1496
18741TIP3   OH277713   4.485   1.135   2.442  0.1922  0.2962 -0.2036
18741TIP3    H177714   4.445   1.131   2.355 -2.6420 -3.3178  0.9847
18741TIP3    H277715   4.411   1.146   2.502  1.7122 -0.0811  1.8746
18742TIP3   OH277716   4.653   2.808   0.347 -0.4079 -0.1813 -0.0391
18742TIP3    H177717   4.690   2.730   0.306 -1.1182 -0.7638  0.4109
18742TIP3    H277718   4.686   2.881   0.293 -1.3072 -0.9148 -1.6460
18743TIP3   OH277719   5.678   4.157   0.716  0.6371 -0.2662  0.3534
18743TIP3    H177720   5.690   4.172   0.623  0.6792  0.7638  0.5125
18743TIP3    H277721   5.648   4.242   0.751 -0.9218 -1.0325  1.0105
18744TIP3   OH277722   4.951   2.216  13.691  0.1384  0.1155  0.5678
18744TIP3    H177723   5.047   2.215  13.689  0.1941 -2.8938  0.4169
18744TIP3    H277724   4.924   2.212  13.600 -0.1192  0.2038  0.6376
18745TIP3   OH277725   0.710   2.104   6.025  0.4882 -0.0239  0.0807
18745TIP3    H177726   0.732   2.031   6.082  1.2852 -0.5295 -0.8538
18745TIP3    H277727   0.615   2.115   6.037 -0.2262 -3.0007 -1.7625
18746TIP3   OH277728   5.984   6.765  16.282  0.3606 -0.0655 -0.4397
18746TIP3    H177729   5.985   6.815  16.200  2.3471  0.8262  0.0699
18746TIP3    H277730   6.040   6.689  16.265  3.5302  1.7463  0.9103
18747TIP3   OH277731   3.670   2.407   3.441  0.2339  0.4318  0.4807
18747TIP3    H177732   3.653   2.497   3.413 -1.2025 -0.2163 -0.9631
18747TIP3    H277733   3.714   2.367   3.366  0.9793 -0.0516  1.1598
18748TIP3   OH277734   2.748   6.279   5.228 -0.1973 -0.0850  0.2143
18748TIP3    H177735   2.838   6.249   5.215 -0.4190 -1.3021  1.2612
18748TIP3    H277736   2.731   6.337   5.154  0.3769 -2.3477 -1.8176
18749TIP3   OH277737   3.427   6.713   3.847  0.3223  0.1206  0.3789
18749TIP3    H177738   3.371   6.645   3.885  1.7568 -0.4542  1.5645
18749TIP3    H277739   3.458   6.762   3.922  0.2812  1.3427 -0.3805
18750TIP3   OH277740   3.373   6.074  15.569 -0.0084 -0.1454  0.5181
18750TIP3    H177741   3.281   6.077  15.541 -0.4942 -1.8782  1.7399
18750TIP3    H277742   3.369   6.097  15.662  1.1684  2.3882  0.0233
18751TIP3   OH277743   3.690   4.204   5.461  0.0663  0.3161 -0.1260
18751TIP3    H177744   3.778   4.167   5.475 -0.6295 -1.2083  0.4335
18751TIP3    H277745   3.652   4.149   5.392 -1.1096 -0.2683  0.9435
18752TIP3   OH277746   5.433   1.139   4.314 -0.1489 -0.0985 -0.8556
18752TIP3    H177747   5.421   1.079   4.388  1.0381  1.2381  0.5014
18752TIP3    H277748   5.528   1.146   4.304 -0.2763 -0.5521 -2.8215
18753TIP3   OH277749   2.815   0.178  15.699 -0.8186  0.0297  0.4808
18753TIP3    H177750   2.727   0.188  15.734 -1.2460  0.9600 -0.7716
18753TIP3    H277751   2.872   0.173  15.776 -1.9433 -0.4549  1.2926
18754TIP3   OH277752   4.962   1.186  15.608  0.0202  0.3911 -0.7187
18754TIP3    H177753   5.057   1.188  15.621  0.0428  0.9368 -0.9309
18754TIP3    H277754   4.933   1.276  15.626 -0.7578 -0.2399  1.5264
18755TIP3   OH277755   0.585   6.803   5.791 -0.4892 -0.0651  0.1787
18755TIP3    H177756   0.625   6.870   5.845  0.4275  1.0142 -1.7406
18755TIP3    H277757   0.644   6.793   5.716 -1.4276 -1.8598 -0.4008
18756TIP3   OH277758   2.891   4.451  13.770  0.3487  0.5659 -0.2310
18756TIP3    H177759   2.815   4.506  13.746  0.6694  1.0632 -0.1261
18756TIP3    H277760   2.962   4.514  13.783  1.1236  0.0223 -1.5695
18757TIP3   OH277761   0.007   4.858   4.922 -0.2998  0.3034  0.4021
18757TIP3    H177762  -0.059   4.808   4.970  0.0896 -1.3201 -0.6739
18757TIP3    H277763   0.056   4.792   4.872 -0.9704  1.8753 -2.5817
18758TIP3   OH277764   1.247   5.792   5.988  0.0908 -0.1814  0.6001
18758TIP3    H177765   1.273   5.879   6.017  0.3536  0.8882 -2.5017
18758TIP3    H277766   1.324   5.737   6.006  0.9742  0.8555  0.0919
18759TIP3   OH277767   6.687   5.057   2.445 -0.3893  0.4544 -0.1533
18759TIP3    H177768   6.742   5.011   2.508 -0.7308  0.6428  0.2914
18759TIP3    H277769   6.695   5.006   2.364 -0.0937  0.1050  0.0928
18760TIP3   OH277770   0.311   2.439  14.384 -0.0920 -0.4801 -0.2594
18760TIP3    H177771   0.372   2.450  14.457 -2.0777  0.2484  1.3862
18760TIP3    H277772   0.271   2.353  14.398 -0.5632 -0.2910 -0.4074
18761TIP3   OH277773   6.495   3.349  15.157  0.0447  0.1457 -0.3367
18761TIP3    H177774   6.564   3.303  15.206  1.5197  1.1473 -1.3824
18761TIP3    H277775   6.417   3.294  15.168  0.6874 -0.4518  1.8382
18762TIP3   OH277776   4.259   1.519  15.480  0.1718  0.0881  0.0604
18762TIP3    H177777   4.316   1.446  15.458 -0.1921 -0.4911  1.0274
18762TIP3    H277778   4.319   1.592  15.495  0.7523 -0.7274  1.9388
18763TIP3   OH277779   3.021   2.318  11.754 -0.7925  0.0448 -0.0234
18763TIP3    H177780   2.941   2.267  11.747 -0.8324 -0.2034  1.7878
18763TIP3    H277781   3.083   2.260  11.799 -0.9783  1.6472  2.4983
18764TIP3   OH277782   3.773   3.689   5.858 -0.0512  0.4003  0.3121
18764TIP3    H177783   3.803   3.641   5.935  1.2183  1.0307  0.2356
18764TIP3    H277784   3.808   3.777   5.870 -0.0574  0.5773 -0.8641
18765TIP3   OH277785   4.151   2.682   2.910 -0.7452  0.3438  0.4494
18765TIP3    H177786   4.183   2.594   2.893  0.0643  0.4586  1.2782
18765TIP3    H277787   4.230   2.737   2.909 -1.2731  1.1138 -0.3573
18766TIP3   OH277788   4.392   2.525   2.976 -0.1169  0.3516 -0.4430
18766TIP3    H177789   4.453   2.455   2.999  0.4829  0.5546 -1.3683
18766TIP3    H277790   4.446   2.602   2.960 -0.8269  1.2735  1.3017
18767TIP3   OH277791   3.371   1.477  16.362 -0.8430  0.2506 -0.1630
18767TIP3    H177792   3.276   1.470  16.354 -1.1143  1.1541  1.6859
18767TIP3    H277793   3.396   1.404  16.419 -0.4200  0.0098 -0.6495
18768TIP3   OH277794   2.628   6.113  15.683  0.2633 -0.0693  0.5090
18768TIP3    H177795   2.607   6.182  15.746 -0.6072  1.0971 -0.9760
18768TIP3    H277796   2.695   6.060  15.726  0.8998  1.6569  1.7587
18769TIP3   OH277797   1.012   3.660  15.888  0.4831 -0.4644 -0.2049
18769TIP3    H177798   0.951   3.615  15.946  1.7278 -0.6650  1.0191
18769TIP3    H277799   1.079   3.695  15.947  1.0069  0.6206 -1.3969
18770TIP3   OH277800   2.206   5.376  14.084  0.3417 -0.3155 -0.0704
18770TIP3    H177801   2.282   5.412  14.038  0.1244 -1.3007 -1.2626
18770TIP3    H277802   2.133   5.429  14.054  0.3356 -0.3592 -0.1332
18771TIP3   OH277803   5.297   2.436   1.577  0.0988  0.5603 -0.3182
18771TIP3    H177804   5.251   2.409   1.497 -1.0471 -1.2492  0.8815
18771TIP3    H277805   5.375   2.379   1.580 -0.3515 -0.0405  0.3024
18772TIP3   OH277806   4.310   2.674   3.465 -0.3334 -0.3727 -0.0518
18772TIP3    H177807   4.264   2.668   3.380  0.9707  2.0065 -1.0261
18772TIP3    H277808   4.272   2.752   3.506 -1.7721 -2.1418  2.1718
18773TIP3   OH277809   1.970   4.779  16.099 -0.2547  0.1699  0.0718
18773TIP3    H177810   2.051   4.797  16.050 -1.3576 -0.9122 -2.3035
18773TIP3    H277811   1.972   4.685  16.114 -0.5609  0.3071  0.9769
18774TIP3   OH277812   4.876   5.068   3.417  0.2062  0.1730 -0.1623
18774TIP3    H177813   4.809   5.098   3.479 -0.3472  0.5323 -0.9219
18774TIP3    H277814   4.947   5.132   3.424  0.4141 -0.1237  0.5346
18775TIP3   OH277815   5.912   0.283  14.313  0.4533 -0.0271  0.7814
18775TIP3    H177816   5.953   0.370  14.308  2.0633 -0.6784  1.8537
18775TIP3    H277817   5.828   0.299  14.357  0.3350  1.0781  0.2083
18776TIP3   OH277818   3.647   2.957   0.450  0.2440 -0.2533 -0.5052
18776TIP3    H177819   3.633   2.959   0.355  1.6756 -0.6489 -0.7521
18776TIP3    H277820   3.593   3.028   0.483 -0.2666 -0.0891 -1.6200
18777TIP3   OH277821   4.749   1.388   3.134 -0.3841  0.1671 -0.0244
18777TIP3    H177822   4.731   1.383   3.228 -0.1770 -1.9536 -0.0265
18777TIP3    H277823   4.723   1.476   3.109 -0.7280  0.6937  1.9621
18778TIP3   OH277824   4.143   1.027  13.720  0.0409  0.0999  0.0219
18778TIP3    H177825   4.151   0.932  13.732  0.8388  0.1370 -0.1470
18778TIP3    H277826   4.186   1.044  13.637 -1.2642  0.4557 -0.6065
18779TIP3   OH277827   2.239   5.816   1.341 -0.0061 -0.3980  0.4878
18779TIP3    H177828   2.253   5.729   1.378  0.1134 -0.4247  0.3770
18779TIP3    H277829   2.312   5.868   1.375 -1.1091  0.1557  2.1364
18780TIP3   OH277830   0.346   5.940  15.902  0.1441 -0.1516  0.8793
18780TIP3    H177831   0.357   6.035  15.907 -0.4562 -0.0846  0.9715
18780TIP3    H277832   0.423   5.910  15.853  0.5012  0.3449  1.1268
18781TIP3   OH277833   6.054   0.803   4.355  0.1022 -0.5540 -0.3946
18781TIP3    H177834   6.126   0.807   4.291 -0.5812  0.6774 -1.1161
18781TIP3    H277835   6.091   0.754   4.428  1.8866  0.5245 -0.4945
18782TIP3   OH277836   3.851   3.667  11.932 -0.1344 -0.7441 -0.2782
18782TIP3    H177837   3.918   3.689  11.867 -0.0222  2.5431  0.7846
18782TIP3    H277838   3.785   3.617  11.882  0.0149  1.4946 -2.9523
18783TIP3   OH277839   0.317   3.408   0.257  0.2044 -0.2676  0.5888
18783TIP3    H177840   0.400   3.455   0.262  0.3147 -0.6000  2.7044
18783TIP3    H277841   0.283   3.408   0.347 -2.2984  0.2079 -0.2644
18784TIP3   OH277842   5.663   3.817   0.908 -0.1868 -0.0028  0.0524
18784TIP3    H177843   5.616   3.850   0.984 -0.0792  0.3854 -0.0442
18784TIP3    H277844   5.651   3.722   0.910 -0.6078  0.0556  0.2692
18785TIP3   OH277845   5.396   4.063   1.741 -0.3952  0.2845 -0.3300
18785TIP3    H177846   5.331   4.014   1.791 -0.6201  0.1032 -0.7992
18785TIP3    H277847   5.348   4.138   1.706 -0.5650 -0.3127 -1.3989
18786TIP3   OH277848   2.407   1.332  10.343  0.3501 -0.4172  0.5275
18786TIP3    H177849   2.363   1.275  10.405  1.7363 -1.1530  0.8865
18786TIP3    H277850   2.497   1.298  10.338  0.0960 -1.0053 -2.5738
18787TIP3   OH277851   6.326   4.064  16.313  0.0641 -0.1218  0.2487
18787TIP3    H177852   6.339   3.985  16.365 -1.1792  0.4574  1.4909
18787TIP3    H277853   6.379   4.050  16.235  2.8288 -0.5818  2.0826
18788TIP3   OH277854   3.355   0.909  10.923  0.5805  0.2413 -0.8091
18788TIP3    H177855   3.318   0.832  10.965  0.9417  0.0176 -0.9057
18788TIP3    H277856   3.353   0.889  10.829  0.3949  0.4732 -0.8574
18789TIP3   OH277857   0.715   2.430  15.053  0.1337 -0.1528 -0.1750
18789TIP3    H177858   0.778   2.373  15.008 -0.0308  0.1895 -0.8480
18789TIP3    H277859   0.654   2.458  14.984  1.1160  2.1121 -0.2146
18790TIP3   OH277860   1.058   0.626   4.143  0.7154 -0.0800 -0.3397
18790TIP3    H177861   1.090   0.638   4.053  2.5774 -0.3732  0.2414
18790TIP3    H277862   0.978   0.575   4.133  0.4357  0.6145 -1.8811
18791TIP3   OH277863   4.682   0.417   3.988 -1.0589 -0.8310  0.3546
18791TIP3    H177864   4.651   0.491   3.936 -1.1991 -1.0836  0.0718
18791TIP3    H277865   4.701   0.349   3.923  1.9463 -0.0862  0.2759
18792TIP3   OH277866   3.248   4.465  15.859 -0.5603  0.1742  0.3422
18792TIP3    H177867   3.215   4.539  15.910  0.6737  0.1747  1.1784
18792TIP3    H277868   3.249   4.496  15.768 -0.0663  1.1928  0.6854
18793TIP3   OH277869   0.482   2.496  12.161  0.1615  0.0513 -0.0061
18793TIP3    H177870   0.526   2.416  12.190  0.0037  0.5887  1.8380
18793TIP3    H277871   0.484   2.491  12.066  0.7963 -1.7908  0.0625
18794TIP3   OH277872   0.265   2.427   1.278  0.2496  0.3481  0.0615
18794TIP3    H177873   0.280   2.489   1.349  2.0169 -1.1757  1.1319
18794TIP3    H277874   0.193   2.371   1.308  0.4439  0.2219  0.2905
18795TIP3   OH277875   4.260   0.939   5.337  0.3390  0.4712  0.2527
18795TIP3    H177876   4.233   0.977   5.421 -1.0691  1.3609 -0.5673
18795TIP3    H277877   4.204   0.862   5.327  0.2078  0.6089 -0.0665
18796TIP3   OH277878   3.106   5.451   5.037  0.3936  0.2305  0.2205
18796TIP3    H177879   3.046   5.525   5.037  0.4253  0.4308 -3.3066
18796TIP3    H277880   3.087   5.405   4.955  3.3461 -1.1268  0.1731
18797TIP3   OH277881   4.876   6.670  12.492 -0.5771 -0.1689 -0.4133
18797TIP3    H177882   4.860   6.683  12.398  0.1666 -0.1256 -0.5437
18797TIP3    H277883   4.799   6.623  12.523 -1.0405  0.2154 -0.9513
18798TIP3   OH277884   4.441   4.570  12.139  0.1102 -0.4454 -0.2308
18798TIP3    H177885   4.483   4.489  12.167 -0.0584 -0.4564 -0.0051
18798TIP3    H277886   4.378   4.589  12.208  1.2688  0.7462  0.5357
18799TIP3   OH277887   5.733   2.269  11.697 -0.1424 -0.5679 -0.2521
18799TIP3    H177888   5.789   2.346  11.704 -0.5819 -0.0175 -2.1426
18799TIP3    H277889   5.647   2.299  11.728 -0.3588 -0.2008 -1.1541
18800TIP3   OH277890   6.419   6.213   3.491 -0.1916 -0.0100 -0.0773
18800TIP3    H177891   6.448   6.156   3.419  1.4928  2.3455 -1.3771
18800TIP3    H277892   6.500   6.249   3.527 -1.1944  1.6245  0.6371
18801TIP3   OH277893   2.241   4.750   0.940 -0.1018  0.2271  0.2072
18801TIP3    H177894   2.195   4.765   1.022  0.0694  1.1175  0.1563
18801TIP3    H277895   2.189   4.797   0.875  0.9889  1.4718  0.1901
18802TIP3   OH277896   3.109   0.492  15.853  0.1586 -0.0543 -0.4861
18802TIP3    H177897   3.053   0.470  15.779 -0.7047 -3.0048  0.9165
18802TIP3    H277898   3.051   0.493  15.929  1.3694  0.6630  0.4791
18803TIP3   OH277899   6.457   4.018   2.858 -0.1828  0.2192 -0.0069
18803TIP3    H177900   6.400   3.941   2.850  0.5917 -0.4464  0.7093
18803TIP3    H277901   6.522   3.994   2.924  1.0301  0.8899 -0.8989
18804TIP3   OH277902   1.546   0.327  11.882 -0.5672  0.0232  0.0374
18804TIP3    H177903   1.466   0.353  11.928 -0.2778  0.9441  0.0421
18804TIP3    H277904   1.520   0.250  11.831 -1.1175 -0.4884  1.0424
18805TIP3   OH277905   3.930   0.477   5.110  0.4790  0.2099 -0.1985
18805TIP3    H177906   3.985   0.399   5.116 -1.2830 -1.2017 -1.5016
18805TIP3    H277907   3.882   0.467   5.029  0.3217  2.7943 -0.5200
18806TIP3   OH277908   6.773   6.407  13.536  0.5539 -0.3077 -0.4105
18806TIP3    H177909   6.827   6.328  13.542  0.6608 -0.2434 -0.5432
18806TIP3    H277910   6.683   6.375  13.548  0.4578 -0.6467 -1.8459
18807TIP3   OH277911   4.075   6.564   5.225  0.9684 -0.0112  0.2831
18807TIP3    H177912   4.065   6.542   5.133 -0.4807  0.5004  0.2966
18807TIP3    H277913   4.165   6.539   5.246  1.0538 -0.9169 -1.0428
18808TIP3   OH277914   0.940   1.147   0.261  0.0037  0.3264  0.2575
18808TIP3    H177915   0.869   1.211   0.267 -0.0469  0.2507  0.4669
18808TIP3    H277916   0.972   1.155   0.171 -0.5879  0.0221  0.0135
18809TIP3   OH277917   1.577   4.820  13.387  0.4642  0.6886 -0.2191
18809TIP3    H177918   1.498   4.815  13.333  0.1153 -1.1353  0.4010
18809TIP3    H277919   1.649   4.818  13.324  0.0543  1.7239 -0.7511
18810TIP3   OH277920   4.367   5.036   3.477 -0.3350  0.1289 -0.3455
18810TIP3    H177921   4.313   5.032   3.398 -1.5500 -1.8037  0.5202
18810TIP3    H277922   4.308   5.012   3.548  1.5111 -1.5522  0.7248
18811TIP3   OH277923   1.616   3.026   0.867 -0.1415  0.0218 -0.8100
18811TIP3    H177924   1.563   3.076   0.930  0.1323  0.4051 -0.8759
18811TIP3    H277925   1.639   2.946   0.914 -2.1999 -0.9539 -1.3886
18812TIP3   OH277926   0.807   0.627   0.227 -0.8321  0.0303 -0.0757
18812TIP3    H177927   0.816   0.713   0.269 -1.6561 -0.2992  0.8234
18812TIP3    H277928   0.827   0.564   0.296 -1.8431 -0.5220 -0.2652
18813TIP3   OH277929   3.449   1.606   4.653 -0.2080 -0.6285  0.3043
18813TIP3    H177930   3.469   1.677   4.593  0.6395  0.8578  2.2391
18813TIP3    H277931   3.492   1.529   4.616  2.0307  0.6827  0.0401
18814TIP3   OH277932   2.072   1.195  15.332 -0.1268 -0.3308  0.1879
18814TIP3    H177933   2.064   1.190  15.427  0.9564  0.8505  0.3528
18814TIP3    H277934   2.038   1.110  15.301  0.1755 -1.0128  1.6483
18815TIP3   OH277935   3.541   2.835  10.739 -0.6908  0.3065  0.2314
18815TIP3    H177936   3.521   2.857  10.648 -1.6099 -0.6583  0.1824
18815TIP3    H277937   3.623   2.881  10.757 -2.2157  3.3938  0.0196
18816TIP3   OH277938   6.228   0.984  13.159 -0.0861  0.2195 -0.0125
18816TIP3    H177939   6.276   1.065  13.145 -1.1991  0.8560 -0.2591
18816TIP3    H277940   6.203   0.987  13.251 -0.8012  0.5404 -0.2133
18817TIP3   OH277941   0.541   0.550  12.810 -0.2400  0.2987 -0.0049
18817TIP3    H177942   0.593   0.609  12.756 -0.6859 -0.2353 -1.0462
18817TIP3    H277943   0.566   0.462  12.781 -1.5903  0.0346 -0.4289
18818TIP3   OH277944   1.530   0.004  14.077 -0.1226 -0.1854 -0.2703
18818TIP3    H177945   1.443  -0.005  14.116 -0.1756  0.4442 -0.2407
18818TIP3    H277946   1.574   0.069  14.130  0.1309 -0.0030 -0.6966
18819TIP3   OH277947   5.971   3.026   0.647 -0.4137 -0.1024 -0.5943
18819TIP3    H177948   6.010   2.965   0.710 -1.2133 -1.1162 -1.0650
18819TIP3    H277949   5.898   3.065   0.695  1.4857  2.3454  0.5460
18820TIP3   OH277950   0.346   2.315   0.387 -0.0465  0.0579 -0.4123
18820TIP3    H177951   0.406   2.390   0.385 -0.4894  0.4667  0.7584
18820TIP3    H277952   0.403   2.238   0.386  0.4138  0.3904 -1.6038
18821TIP3   OH277953   4.643   2.387  16.415 -0.4323 -0.4481 -0.2214
18821TIP3    H177954   4.606   2.326  16.479 -1.1912 -0.3063 -0.5121
18821TIP3    H277955   4.577   2.457  16.408  0.5152  0.5151  0.2596
18822TIP3   OH277956   5.741   6.777   4.354 -0.2187  0.3235 -0.1783
18822TIP3    H177957   5.688   6.764   4.433 -0.4276 -0.8899 -0.4919
18822TIP3    H277958   5.775   6.866   4.362 -2.0508  1.0372  0.1824
18823TIP3   OH277959   3.056   5.167   4.927  0.1568 -0.4644  0.0124
18823TIP3    H177960   3.094   5.213   4.852  1.9037 -1.9004 -0.0613
18823TIP3    H277961   3.015   5.089   4.889  0.4439 -0.8412  0.4673
18824TIP3   OH277962   2.840   3.821  13.257  0.3490  0.0238  0.6590
18824TIP3    H177963   2.936   3.817  13.256  0.3458 -0.0745  0.0214
18824TIP3    H277964   2.818   3.856  13.343  0.9477 -0.2045  0.9074
18825TIP3   OH277965   5.344   0.780   5.838  0.0724 -0.6076  0.2416
18825TIP3    H177966   5.347   0.692   5.875  0.5616 -1.0726 -0.8313
18825TIP3    H277967   5.286   0.772   5.762  0.1386 -0.0130  0.1215
18826TIP3   OH277968   3.358   4.052  11.465  0.7276  0.3302 -0.2474
18826TIP3    H177969   3.444   4.061  11.425  0.5272  0.4793 -0.6557
18826TIP3    H277970   3.329   3.964  11.440  1.0022  0.0592  0.3742
18827TIP3   OH277971   4.310   6.139   3.304 -0.7659  0.5766  0.2208
18827TIP3    H177972   4.275   6.176   3.385  1.5546  2.9700  0.2992
18827TIP3    H277973   4.404   6.157   3.309 -0.3680 -0.3537 -2.4411
18828TIP3   OH277974   6.502   0.724  15.461 -0.0202  0.5944  0.0014
18828TIP3    H177975   6.528   0.728  15.553  0.8549  0.6547 -0.2444
18828TIP3    H277976   6.525   0.810  15.426  0.5878  0.2189 -0.5220
18829TIP3   OH277977   5.603   1.167   1.020  0.2054 -0.3337 -0.2220
18829TIP3    H177978   5.571   1.199   1.104  0.6864 -0.4942  0.0262
18829TIP3    H277979   5.607   1.245   0.965 -0.5077 -0.2953 -0.2262
18830TIP3   OH277980   1.769   6.503   2.478 -0.2119  0.3272  0.3022
18830TIP3    H177981   1.845   6.544   2.436  0.4953 -0.5218  0.6950
18830TIP3    H277982   1.706   6.573   2.490  0.5564  1.0728  0.0313
18831TIP3   OH277983   4.650   4.213  15.545  0.0557 -0.4259 -0.8673
18831TIP3    H177984   4.637   4.161  15.465 -0.1494 -0.8304 -0.5698
18831TIP3    H277985   4.617   4.159  15.616 -2.6444  1.1545 -0.7964
18832TIP3   OH277986   4.349   6.653   3.489 -0.1903 -0.4758  0.2630
18832TIP3    H177987   4.412   6.671   3.419  0.9389 -0.2605  1.2980
18832TIP3    H277988   4.344   6.557   3.493  0.9685 -0.5355  0.9003
18833TIP3   OH277989   4.237   1.629  12.542  0.6933 -0.0633 -0.0719
18833TIP3    H177990   4.243   1.553  12.600 -0.6871 -0.6600 -0.6751
18833TIP3    H277991   4.173   1.604  12.476  0.0294  1.7241 -0.1613
18834TIP3   OH277992   5.996   0.648  16.741 -0.0907 -0.0028 -0.8541
18834TIP3    H177993   6.008   0.700  16.662 -1.6825  0.9142 -0.5225
18834TIP3    H277994   6.009   0.557  16.712  0.0839  0.3751 -1.9997
18835TIP3   OH277995   6.629   6.652   5.443  0.5601 -0.3577  0.1265
18835TIP3    H177996   6.548   6.686   5.481  1.0719  1.0931 -0.0293
18835TIP3    H277997   6.698   6.710   5.476  1.2319 -0.0943 -1.6308
18836TIP3   OH277998   4.742   1.988  14.351  0.3370 -0.1263  0.1461
18836TIP3    H177999   4.837   1.979  14.339  0.1136 -1.0720 -0.9868
18836TIP3    H278000   4.719   2.065  14.300  0.2804 -0.7558 -0.7947
18837TIP3   OH278001   0.423   1.007   0.462  0.5809 -0.7561 -0.6275
18837TIP3    H178002   0.352   0.993   0.400  1.3668 -0.3600 -1.6480
18837TIP3    H278003   0.458   1.093   0.440  1.9746 -1.3326 -0.7853
18838TIP3   OH278004   0.349   1.943  10.881  0.0206  0.2532  0.1254
18838TIP3    H178005   0.373   2.034  10.897  0.2482  0.2972 -0.4375
18838TIP3    H278006   0.276   1.926  10.940 -1.7303  1.5608 -1.5422
18839TIP3   OH278007   1.896   1.361  15.202 -0.1593 -0.2383 -0.5919
18839TIP3    H178008   1.960   1.303  15.242 -1.8541 -0.5947  1.7619
18839TIP3    H278009   1.879   1.323  15.116  0.5872 -1.8357 -0.0657
18840TIP3   OH278010   6.228   4.708  11.917 -0.1501  0.7034  0.2159
18840TIP3    H178011   6.160   4.642  11.931  0.4118  0.5128  2.6562
18840TIP3    H278012   6.243   4.709  11.823 -3.3556  0.6151 -0.4104
18841TIP3   OH278013   3.364   4.465   3.999 -0.1321  0.0081 -0.3301
18841TIP3    H178014   3.407   4.551   4.000  1.3842 -0.7066 -1.3595
18841TIP3    H278015   3.387   4.426   4.083  0.1977  0.1245 -0.3636
18842TIP3   OH278016   1.639   0.813   4.858  0.3235 -0.1129 -0.1031
18842TIP3    H178017   1.681   0.753   4.920  1.4743 -0.0421 -0.7855
18842TIP3    H278018   1.712   0.856   4.813 -0.4867  1.1829 -0.2217
18843TIP3   OH278019   6.784   3.405  11.497  0.4405 -0.7596 -0.0924
18843TIP3    H178020   6.761   3.440  11.410  0.5895 -0.7273 -0.1183
18843TIP3    H278021   6.836   3.327  11.479  0.7152 -0.5920 -0.0323
18844TIP3   OH278022   3.867   4.442   5.813  0.0614 -0.0996 -0.3011
18844TIP3    H178023   3.915   4.359   5.821 -3.6801 -2.5937 -0.9671
18844TIP3    H278024   3.819   4.450   5.895 -0.1691  1.0730 -0.5306
18845TIP3   OH278025   1.999   2.272  15.319  0.7287  0.2707 -0.6304
18845TIP3    H178026   1.997   2.349  15.376 -0.9103 -0.7911  0.8723
18845TIP3    H278027   2.092   2.262  15.296  1.1035  2.1467 -0.1546
18846TIP3   OH278028   0.452   5.915   2.752 -0.5901  0.6526  0.3378
18846TIP3    H178029   0.547   5.928   2.751 -0.5324  0.2730 -0.7702
18846TIP3    H278030   0.429   5.902   2.660 -1.4260 -1.2283  0.7680
18847TIP3   OH278031   2.146   5.052  17.275  0.2606  0.3671 -0.2817
18847TIP3    H178032   2.166   5.046  17.181  2.1456 -2.9938  0.1413
18847TIP3    H278033   2.108   4.967  17.297 -0.2252  1.0997  2.0125
18848TIP3   OH278034   4.095   2.522   4.603 -0.0172  0.2936  0.5504
18848TIP3    H178035   4.119   2.434   4.571  1.7242  1.1195 -0.6084
18848TIP3    H278036   4.002   2.531   4.581 -0.1079 -1.0858  0.2550
18849TIP3   OH278037   3.423   2.418   1.364  0.0166  0.5974  1.1564
18849TIP3    H178038   3.353   2.472   1.401 -1.1383 -0.5196  0.7032
18849TIP3    H278039   3.484   2.405   1.436 -1.3590 -0.1839  2.2488
18850TIP3   OH278040   1.185   0.158   4.954  0.1253  0.1026 -0.1068
18850TIP3    H178041   1.154   0.245   4.929  0.6747  0.2869 -0.1492
18850TIP3    H278042   1.167   0.104   4.877 -1.4972 -0.1518  0.4107
18851TIP3   OH278043   4.173   2.515  13.994  0.0387 -0.3010  0.0553
18851TIP3    H178044   4.083   2.529  13.965  0.0602 -1.4255 -0.6152
18851TIP3    H278045   4.215   2.601  13.986 -0.7685  0.0558 -0.3939
18852TIP3   OH278046   6.084   1.130  14.054 -0.3110 -0.3549 -0.2082
18852TIP3    H178047   6.057   1.222  14.046  0.9205  0.2482  1.7503
18852TIP3    H278048   6.138   1.114  13.977  1.2728  1.2982  0.4817
18853TIP3   OH278049   2.092   3.790  15.582  0.6408 -0.4831  0.1484
18853TIP3    H178050   2.096   3.873  15.629 -0.0310  0.6725 -1.7222
18853TIP3    H278051   2.142   3.729  15.637  0.4447  0.9204  1.9835
18854TIP3   OH278052   3.517   5.654  15.431 -0.5781  0.1717 -0.2944
18854TIP3    H178053   3.584   5.610  15.483 -0.3027  1.4949  0.5162
18854TIP3    H278054   3.460   5.584  15.401 -0.4095 -0.6930  1.3059
18855TIP3   OH278055   3.808   4.908   1.331  0.2563 -0.1998  0.0009
18855TIP3    H178056   3.870   4.965   1.378 -0.3582 -0.6367  1.3985
18855TIP3    H278057   3.722   4.948   1.348  0.1757  1.1360 -2.9677
18856TIP3   OH278058   6.695   3.982   0.558  0.1130 -0.0476  0.4276
18856TIP3    H178059   6.788   3.992   0.541  0.3828 -1.5235  0.8686
18856TIP3    H278060   6.670   4.061   0.604  0.9297  0.7867 -0.5044
18857TIP3   OH278061   6.372   0.884  13.702  0.3486  0.1181 -0.1354
18857TIP3    H178062   6.435   0.841  13.759 -2.3211 -0.3957  2.6757
18857TIP3    H278063   6.346   0.817  13.639  1.0502 -0.2982  0.0140
18858TIP3   OH278064   3.522   5.409   4.691 -0.1350  0.2852 -0.3466
18858TIP3    H178065   3.430   5.437   4.690 -0.6671 -1.1281  1.5256
18858TIP3    H278066   3.519   5.317   4.665  0.6019 -0.0391  0.6520
18859TIP3   OH278067   1.176   3.961  11.940 -0.2588 -0.0093 -0.0500
18859TIP3    H178068   1.201   4.005  11.859 -1.0608  0.1167 -0.2356
18859TIP3    H278069   1.234   3.998  12.006  0.0488  0.2663 -0.4689
18860TIP3   OH278070   0.138   5.634  11.752  0.2078  0.3343 -0.3109
18860TIP3    H178071   0.179   5.558  11.710  2.2161  0.9629  0.4221
18860TIP3    H278072   0.079   5.596  11.818  0.1824 -0.5857 -0.8406
18861TIP3   OH278073   1.179   5.999   3.832  0.6585 -0.6594 -0.1393
18861TIP3    H178074   1.155   6.011   3.924 -1.3631 -0.9809 -0.5835
18861TIP3    H278075   1.274   5.992   3.833  0.6136 -1.7750  2.0550
18862TIP3   OH278076   3.271   1.750  11.021  0.4285 -0.2411 -0.3074
18862TIP3    H178077   3.366   1.746  11.004  0.3525  0.1406 -0.8704
18862TIP3    H278078   3.232   1.764  10.934 -0.1583 -0.5567 -0.0980
18863TIP3   OH278079   5.992   2.555   2.220 -0.4555  0.2501  0.3159
18863TIP3    H178080   5.912   2.530   2.267 -0.4694 -0.9482 -0.2769
18863TIP3    H278081   6.046   2.475   2.222  0.3310  0.7638 -0.0780
18864TIP3   OH278082   5.545   1.964   5.948 -0.1171  0.2160 -0.0523
18864TIP3    H178083   5.575   1.884   5.905 -0.0975  1.7148 -3.0367
18864TIP3    H278084   5.452   1.971   5.926 -0.8157 -0.2142  2.3740
18865TIP3   OH278085   0.905   2.633   4.873  0.3387  0.1240 -0.5104
18865TIP3    H178086   0.893   2.614   4.780  0.6593 -1.4150 -0.2673
18865TIP3    H278087   0.992   2.599   4.893 -0.3962 -1.1677  0.7083
18866TIP3   OH278088   1.527   6.013  15.889  0.0265  0.2779  0.4823
18866TIP3    H178089   1.599   5.952  15.873 -0.3777 -0.2793  0.7541
18866TIP3    H278090   1.560   6.098  15.858 -0.0660 -0.3998 -1.6595
18867TIP3   OH278091   6.305   2.083  14.143 -0.2982  0.1543  0.4391
18867TIP3    H178092   6.346   2.165  14.114  1.1796 -0.3608  0.9757
18867TIP3    H278093   6.314   2.025  14.067  1.9151 -0.6130  1.2182
18868TIP3   OH278094   0.239   0.539  13.282  0.3831 -0.2532  0.0495
18868TIP3    H178095   0.313   0.598  13.270  0.5490 -0.0253  1.8757
18868TIP3    H278096   0.277   0.458  13.315 -0.1566 -0.0213  1.3399
18869TIP3   OH278097   4.956   3.024  14.932  0.1903 -0.6577  0.4791
18869TIP3    H178098   4.955   3.107  14.980  0.8591 -0.6615  0.5194
18869TIP3    H278099   5.049   2.999  14.931  0.1992 -0.6646 -0.7872
18870TIP3   OH278100   2.569   3.586   2.545  0.4628 -0.1037  0.1934
18870TIP3    H178101   2.654   3.558   2.511 -0.3610 -0.5663 -1.5960
18870TIP3    H278102   2.533   3.642   2.477 -0.2748  0.8753  1.3559
18871TIP3   OH278103   5.019   0.120  16.651 -0.1415 -0.4323 -0.2043
18871TIP3    H178104   5.037   0.208  16.617 -0.3515  0.2127  1.2707
18871TIP3    H278105   4.963   0.135  16.727  1.7980 -1.6424  1.5716
18872TIP3   OH278106   5.575   5.881   0.797  0.0399 -0.2718  0.2168
18872TIP3    H178107   5.513   5.942   0.756  0.2597 -0.2173 -0.0366
18872TIP3    H278108   5.641   5.866   0.731 -1.1129 -2.4892 -0.5347
18873TIP3   OH278109   4.530   3.149   0.421  0.1467 -0.2666  0.3582
18873TIP3    H178110   4.610   3.098   0.413  1.3341  1.4406  0.7915
18873TIP3    H278111   4.540   3.198   0.502 -1.4276 -0.1492  0.5141
18874TIP3   OH278112   4.790   2.044  10.242 -0.2244  0.4882  0.7490
18874TIP3    H178113   4.699   2.062  10.267  0.2788  0.8866  2.4277
18874TIP3    H278114   4.835   2.128  10.253  0.7313 -0.1417  1.8459
18875TIP3   OH278115   5.215   6.734  11.483 -0.1547  0.9245 -0.7304
18875TIP3    H178116   5.295   6.682  11.494  1.3637  3.3859  0.8819
18875TIP3    H278117   5.173   6.733  11.569 -0.8371  1.2296 -1.0501
18876TIP3   OH278118   2.682   5.122  13.152 -0.1319 -0.3642 -0.3845
18876TIP3    H178119   2.657   5.172  13.230  1.1840  2.4599 -1.6320
18876TIP3    H278120   2.600   5.110  13.104 -0.5248  0.4985  0.0388
18877TIP3   OH278121   2.861   3.059   6.046 -0.1220  0.3884  0.2025
18877TIP3    H178122   2.858   3.115   6.123  1.4629  1.5810 -0.5556
18877TIP3    H278123   2.943   3.011   6.054  0.7140  1.4812 -1.3514
18878TIP3   OH278124   2.459   3.930   1.015 -0.1707  0.2125 -0.4596
18878TIP3    H178125   2.391   3.976   1.064  0.8449  0.9789  0.2666
18878TIP3    H278126   2.432   3.939   0.924 -1.3033  0.0619 -0.1607
18879TIP3   OH278127   6.262   0.417   4.251  0.0203 -0.2916 -0.3830
18879TIP3    H178128   6.355   0.437   4.241  0.2992 -0.8895  0.8048
18879TIP3    H278129   6.245   0.429   4.345 -1.0837 -0.2751 -0.5649
18880TIP3   OH278130   3.085   1.521  10.918 -0.1920 -0.0091 -0.3560
18880TIP3    H178131   3.124   1.608  10.927  0.4519 -0.0979 -1.9645
18880TIP3    H278132   3.101   1.497  10.826 -2.9417 -0.5883 -0.7695
18881TIP3   OH278133   5.308   6.647  13.373 -0.5316  0.2760 -0.1418
18881TIP3    H178134   5.324   6.664  13.280  0.2631  0.9025  0.0988
18881TIP3    H278135   5.387   6.601  13.403 -1.5036 -1.5132 -0.1509
18882TIP3   OH278136   3.038   1.046   0.415  0.0861  0.1320 -0.3569
18882TIP3    H178137   3.087   1.063   0.334  0.5586  0.0676 -0.0895
18882TIP3    H278138   2.958   1.002   0.386 -0.1287  0.8391 -0.8637
18883TIP3   OH278139   5.142   0.107  12.416 -0.0451 -0.0145 -0.5374
18883TIP3    H178140   5.115   0.079  12.329  0.3006 -1.2191 -0.2763
18883TIP3    H278141   5.215   0.168  12.401 -0.0704 -0.1161 -1.0863
18884TIP3   OH278142   4.229   1.419   2.527  0.4283 -0.3271 -0.8694
18884TIP3    H178143   4.242   1.326   2.542  1.8608 -0.1286 -0.7136
18884TIP3    H278144   4.282   1.462   2.594  0.1663  0.6027 -1.2340
18885TIP3   OH278145   0.340   3.904  14.680 -0.2727  0.4177 -0.3498
18885TIP3    H178146   0.333   3.821  14.632 -1.4529  0.3322 -0.0628
18885TIP3    H278147   0.333   3.879  14.772 -2.8548  0.9726 -0.3059
18886TIP3   OH278148   1.945   4.474  14.824  0.0031  0.1254  0.3590
18886TIP3    H178149   1.953   4.546  14.887  0.6244 -0.3077  0.7854
18886TIP3    H278150   1.903   4.514  14.747  2.3563  1.5026 -0.2917
18887TIP3   OH278151   3.889   3.934  11.355  0.0952  0.4743 -0.3912
18887TIP3    H178152   3.837   3.975  11.285 -0.7897 -1.0909 -0.7032
18887TIP3    H278153   3.875   3.840  11.342  3.1776 -0.0454 -0.5921
18888TIP3   OH278154   5.687   1.255  13.243 -0.2390  0.1950  0.5879
18888TIP3    H178155   5.681   1.217  13.155  0.1831  1.5631 -0.0553
18888TIP3    H278156   5.688   1.179  13.301 -0.6417 -0.7386 -0.5743
18889TIP3   OH278157   6.637   0.529   4.641 -0.0610  0.4999 -0.0796
18889TIP3    H178158   6.692   0.499   4.714 -0.3044  2.1174  0.8218
18889TIP3    H278159   6.699   0.552   4.572  0.4162  1.8924  0.7705
18890TIP3   OH278160   2.406   5.718  16.450 -0.1313  0.0828  0.4337
18890TIP3    H178161   2.416   5.798  16.500  1.1092  0.7489 -0.7948
18890TIP3    H278162   2.494   5.681  16.445 -0.7297 -1.6028  1.3049
18891TIP3   OH278163   5.544   2.747  15.305 -0.1110  0.4389 -0.1263
18891TIP3    H178164   5.632   2.780  15.320 -0.4103  0.8150  0.9353
18891TIP3    H278165   5.494   2.777  15.381 -0.7933 -1.0319  0.0446
18892TIP3   OH278166   4.191   1.195  14.890  0.1207  0.2972  0.0548
18892TIP3    H178167   4.189   1.243  14.807  1.1866  0.0468 -0.1256
18892TIP3    H278168   4.126   1.125  14.879 -0.9631  1.2722  0.0740
18893TIP3   OH278169   1.164   3.121  16.335  0.5087  0.7766  0.0041
18893TIP3    H178170   1.212   3.051  16.380 -0.1094 -0.9510 -1.8993
18893TIP3    H278171   1.176   3.197  16.391  0.4306 -1.0417  2.7020
18894TIP3   OH278172   1.991   6.579   3.138  0.7797  0.1400 -0.0117
18894TIP3    H178173   1.898   6.596   3.126  0.7620 -0.4950 -0.7960
18894TIP3    H278174   2.014   6.517   3.069  1.9678  0.9034 -0.3300
18895TIP3   OH278175   5.641   2.920   1.172 -0.2282 -0.3586  0.3743
18895TIP3    H178176   5.583   2.889   1.103 -0.7345  0.2901  0.4950
18895TIP3    H278177   5.589   2.914   1.252  0.9260 -2.8062  1.0400
18896TIP3   OH278178   5.120   5.694   0.782 -0.1441  0.4832 -0.3523
18896TIP3    H178179   5.030   5.726   0.790 -0.7550 -0.4266 -2.7122
18896TIP3    H278180   5.160   5.752   0.717  1.2090  1.2456  1.1019
18897TIP3   OH278181   5.898   6.227   5.394 -1.2011 -0.1802 -0.4018
18897TIP3    H178182   5.824   6.263   5.443 -0.4430 -0.2384  0.8043
18897TIP3    H278183   5.870   6.138   5.371 -0.9182 -0.7761  1.4165
18898TIP3   OH278184   3.325   4.547  16.781 -0.7802  0.1232 -0.1513
18898TIP3    H178185   3.387   4.594  16.725 -0.9046 -1.8733 -2.1025
18898TIP3    H278186   3.242   4.594  16.769 -0.2147  1.4241  0.6935
18899TIP3   OH278187   6.049   3.424  15.131  0.1512 -0.2034  0.5387
18899TIP3    H178188   6.126   3.463  15.172 -1.4806  0.8570  2.7941
18899TIP3    H278189   6.030   3.482  15.057  1.2404 -0.2390  0.2088
18900TIP3   OH278190   6.106   1.396   2.537 -0.0375  0.5271  0.1188
18900TIP3    H178191   6.016   1.429   2.531 -0.4526 -0.4371  0.8888
18900TIP3    H278192   6.122   1.356   2.451 -0.6969 -0.1489  0.3002
18901TIP3   OH278193   0.252   3.530   3.573  0.8189  0.5920  0.4876
18901TIP3    H178194   0.244   3.520   3.668  1.2456  2.0139  0.6940
18901TIP3    H278195   0.280   3.621   3.560  0.7656  0.4285 -1.0033
18902TIP3   OH278196   2.373   6.378   4.521 -0.2116 -0.4641 -0.5652
18902TIP3    H178197   2.280   6.377   4.497 -1.0085  1.4910  2.0080
18902TIP3    H278198   2.382   6.305   4.583 -0.4805  0.3268  0.4405
18903TIP3   OH278199   1.514   2.339   6.501  0.0017 -0.2110 -0.4499
18903TIP3    H178200   1.448   2.403   6.475 -0.7051 -0.5744  0.3824
18903TIP3    H278201   1.499   2.326   6.595  0.7589 -0.8679 -0.4084
18904TIP3   OH278202   5.317   4.919   0.071  0.6389 -0.1964 -0.3446
18904TIP3    H178203   5.383   4.855   0.097  1.3779  0.7973  0.2828
18904TIP3    H278204   5.363   5.002   0.068 -0.5765  0.5236  0.1147
18905TIP3   OH278205   1.718   6.363  13.546 -0.1096  0.3774 -0.0800
18905TIP3    H178206   1.626   6.387  13.545 -0.4623 -0.9113  0.3172
18905TIP3    H278207   1.762   6.434  13.499 -0.7556  3.1764  3.1367
18906TIP3   OH278208   0.771   6.365  12.759  0.2472  0.4773  0.4208
18906TIP3    H178209   0.851   6.354  12.706 -0.7957  0.9158 -1.3204
18906TIP3    H278210   0.751   6.458  12.753 -1.4655  0.0662 -0.8430
18907TIP3   OH278211   2.343   4.876  15.204 -0.0771 -0.1756 -0.1284
18907TIP3    H178212   2.394   4.957  15.212 -2.2404  1.0835  2.7335
18907TIP3    H278213   2.269   4.900  15.147  1.4606 -1.5086 -2.8701
18908TIP3   OH278214   2.824   4.974   4.218 -0.7127 -0.8455  0.1441
18908TIP3    H178215   2.841   4.880   4.224 -1.5587 -1.4078 -3.7740
18908TIP3    H278216   2.735   4.984   4.251 -1.5074 -1.8828 -1.5597
18909TIP3   OH278217   0.861   0.308  14.247  0.1935 -0.2760 -0.3576
18909TIP3    H178218   0.847   0.276  14.336  0.4343  0.4645 -0.0457
18909TIP3    H278219   0.811   0.390  14.243  0.3087 -0.2280 -0.8535
18910TIP3   OH278220   6.555   5.874   5.435 -0.1442 -0.4829  0.6845
18910TIP3    H178221   6.552   5.833   5.521  0.1167 -0.6059  0.6357
18910TIP3    H278222   6.485   5.940   5.437 -0.0585 -0.4036  1.0320
18911TIP3   OH278223   6.486   0.519  16.499 -0.5755  0.0374 -0.4487
18911TIP3    H178224   6.468   0.533  16.592 -0.6194 -0.2119 -0.4186
18911TIP3    H278225   6.406   0.479  16.465  0.4434 -2.6556  0.0454
18912TIP3   OH278226   4.768   5.284   4.337  0.3114 -0.4230 -0.2246
18912TIP3    H178227   4.748   5.192   4.317 -0.5168 -0.1984 -0.4775
18912TIP3    H278228   4.683   5.328   4.332  0.7083  0.3603 -0.1282
18913TIP3   OH278229   3.107   2.505   4.983 -0.3936  0.1668  0.1255
18913TIP3    H178230   3.016   2.476   4.983 -0.9175  1.6732  0.9867
18913TIP3    H278231   3.158   2.428   4.958 -1.8032 -1.0413  0.8843
18914TIP3   OH278232   5.013   2.700   0.635 -0.4399  0.0641  0.0850
18914TIP3    H178233   4.971   2.770   0.685 -1.7775 -0.2239 -0.6105
18914TIP3    H278234   4.996   2.621   0.686 -1.2901 -0.1435 -0.5109
18915TIP3   OH278235   0.149   5.621  15.329 -0.5125  0.8298  0.2179
18915TIP3    H178236   0.076   5.672  15.365 -0.3807  2.9634 -2.2827
18915TIP3    H278237   0.220   5.636  15.390 -1.3172  1.2319  1.0921
18916TIP3   OH278238   4.457   5.834   1.409  0.5134  0.2405 -0.4350
18916TIP3    H178239   4.445   5.891   1.485  2.0678  0.8559 -0.6095
18916TIP3    H278240   4.386   5.771   1.415  0.1085  0.7914  1.0582
18917TIP3   OH278241   0.495   2.852   0.464 -0.2246  0.1622 -0.2161
18917TIP3    H178242   0.508   2.765   0.502 -1.1495 -0.2398 -0.7713
18917TIP3    H278243   0.538   2.912   0.525  0.6511 -0.7038  0.0374
18918TIP3   OH278244   4.859   6.095  17.132  0.8403  0.3804  0.1207
18918TIP3    H178245   4.834   6.139  17.213 -0.7293 -1.8443  0.9439
18918TIP3    H278246   4.881   6.006  17.159  2.6446  0.2358 -1.6201
18919TIP3   OH278247   0.324   5.036   1.353 -0.5128  0.7720 -0.0300
18919TIP3    H178248   0.356   5.092   1.282 -1.8132  0.1931 -1.1249
18919TIP3    H278249   0.312   5.095   1.427 -0.6074  1.6991 -0.7672
18920TIP3   OH278250   3.579   1.352  13.128 -0.1763 -0.1601 -0.7083
18920TIP3    H178251   3.561   1.296  13.053  0.8091 -0.1997 -0.9353
18920TIP3    H278252   3.650   1.410  13.099  0.4907 -0.4309  0.2988
18921TIP3   OH278253   1.811   2.097  15.945  0.5377 -0.0273 -0.2601
18921TIP3    H178254   1.821   2.015  15.896  0.1335 -0.3818  0.2490
18921TIP3    H278255   1.896   2.111  15.986  0.4896 -0.4012 -0.0275
18922TIP3   OH278256   5.284   4.164  15.575  0.3499 -0.2743 -0.7426
18922TIP3    H178257   5.242   4.127  15.653 -0.3344  0.2713 -0.8483
18922TIP3    H278258   5.377   4.171  15.599  0.1935 -0.3805 -0.0807
18923TIP3   OH278259   2.599   2.851   2.243 -0.3713 -0.0393 -0.3429
18923TIP3    H178260   2.505   2.864   2.258 -0.5124  0.1825 -1.3428
18923TIP3    H278261   2.604   2.818   2.153  0.5524  0.5529 -0.5176
18924TIP3   OH278262   5.831   0.274  16.219  0.5854  0.3485 -0.4152
18924TIP3    H178263   5.927   0.272  16.222  0.5613 -0.7708  2.0352
18924TIP3    H278264   5.805   0.182  16.216 -0.4390  0.6416 -1.0620
18925TIP3   OH278265   6.585   2.673  11.377  0.1259  0.6457  0.6366
18925TIP3    H178266   6.645   2.643  11.446  0.7833  1.9557  0.6687
18925TIP3    H278267   6.528   2.598  11.361  1.8019 -0.7073  0.5744
18926TIP3   OH278268   6.575   3.497  11.248  0.7557 -0.5084 -0.6820
18926TIP3    H178269   6.518   3.574  11.251 -0.2627 -1.2412 -0.9451
18926TIP3    H278270   6.652   3.527  11.199 -0.0081  0.1026 -1.5372
18927TIP3   OH278271   6.349   2.470   5.588  0.2307  0.1676 -0.9731
18927TIP3    H178272   6.388   2.558   5.589  0.1739  0.2102  0.7712
18927TIP3    H278273   6.388   2.426   5.663  0.0625 -1.2322 -1.6830
18928TIP3   OH278274   5.371   6.450   2.650 -0.3989 -0.0112 -0.3337
18928TIP3    H178275   5.416   6.477   2.730 -0.8665 -1.4220  0.4507
18928TIP3    H278276   5.385   6.521   2.589  0.9843  0.5739  0.6212
18929TIP3   OH278277   4.049   0.042   4.896 -0.0868  0.1044 -0.2522
18929TIP3    H178278   4.091   0.001   4.971 -2.6953  0.1651  1.3369
18929TIP3    H278279   4.109   0.113   4.871  2.0315 -1.4387  0.1237
18930TIP3   OH278280   6.058   4.392   5.075 -0.3544 -0.1468 -0.1154
18930TIP3    H178281   6.037   4.302   5.100  0.0250 -0.3266 -0.4345
18930TIP3    H278282   5.987   4.445   5.113 -0.9383 -0.6491 -0.4793
18931TIP3   OH278283   4.273   2.012   6.214  0.3127  0.2339 -0.5200
18931TIP3    H178284   4.347   2.072   6.220  0.6966 -0.2594 -0.1471
18931TIP3    H278285   4.250   1.993   6.305  0.3850 -0.3924 -0.6227
18932TIP3   OH278286   0.486   1.522  13.317  0.2059  0.3860  0.0568
18932TIP3    H178287   0.534   1.463  13.375 -1.1118  0.4290  1.2196
18932TIP3    H278288   0.554   1.557  13.258  1.5993  0.4649  1.6388
18933TIP3   OH278289   0.492   6.587   5.924 -0.4133  0.2033 -0.0852
18933TIP3    H178290   0.559   6.582   5.992 -1.3049  1.2985  0.9101
18933TIP3    H278291   0.512   6.668   5.876  0.2452 -0.5894 -1.1996
18934TIP3   OH278292   3.953   0.116   1.082 -0.2955 -0.5181 -0.4785
18934TIP3    H178293   3.965   0.116   0.987 -0.6090  2.5432 -0.6146
18934TIP3    H278294   3.997   0.036   1.112  2.3263 -0.1529 -2.9130
18935TIP3   OH278295   1.498   2.078   6.429 -0.5736 -0.0228 -0.4745
18935TIP3    H178296   1.448   2.140   6.483 -0.2138 -0.1468  0.0046
18935TIP3    H278297   1.500   2.119   6.342 -0.0826  0.7873 -0.0915
18936TIP3   OH278298   6.147   6.804  16.495  0.5683 -0.3754 -0.0512
18936TIP3    H178299   6.089   6.760  16.433 -0.7424 -1.4000  1.8128
18936TIP3    H278300   6.116   6.895  16.497  1.7092  0.1117 -2.0838
18937TIP3   OH278301   4.162   1.974   6.475 -0.1882 -0.1547  0.1727
18937TIP3    H178302   4.068   1.964   6.458 -0.1966  0.2338 -0.0334
18937TIP3    H278303   4.196   1.885   6.478 -0.3138 -0.2588 -1.2061
18938TIP3   OH278304   6.760   5.622  14.687  0.1362  0.0150 -0.6853
18938TIP3    H178305   6.805   5.591  14.766  0.7419  2.2879 -0.0815
18938TIP3    H278306   6.831   5.647  14.628 -0.3313 -0.3242 -1.4051
18939TIP3   OH278307   2.088   5.057  13.770 -0.2482  0.1020  0.9596
18939TIP3    H178308   2.044   5.136  13.800  0.4105  0.5179  0.8583
18939TIP3    H278309   2.085   5.062  13.675  0.1366  0.2106  0.9494
18940TIP3   OH278310   0.042   3.588  14.713  0.7166  0.2567 -0.3846
18940TIP3    H178311  -0.007   3.582  14.631 -0.0540  1.9331 -0.0871
18940TIP3    H278312  -0.026   3.594  14.781  1.3158  1.2594  0.1484
18941TIP3   OH278313   2.210   4.501  11.037 -0.5935 -0.6179 -0.2717
18941TIP3    H178314   2.285   4.442  11.024 -0.3385 -0.4474  0.4190
18941TIP3    H278315   2.210   4.556  10.959 -0.1577 -0.7975 -0.4044
18942TIP3   OH278316   5.425   5.782  13.406  1.4233  0.0251  0.3426
18942TIP3    H178317   5.341   5.782  13.452  1.6664 -1.4645  0.8607
18942TIP3    H278318   5.489   5.756  13.472  2.1193  0.0464 -0.3060
18943TIP3   OH278319   3.691   4.638  10.978  0.1254  0.0496 -1.0216
18943TIP3    H178320   3.700   4.553  10.936  1.5703 -0.4489  0.2485
18943TIP3    H278321   3.607   4.634  11.024  0.7019 -1.1304 -0.0300
18944TIP3   OH278322   6.096   6.504  16.376  0.3607  0.2040  0.1951
18944TIP3    H178323   6.063   6.416  16.360 -0.4064  0.3785  0.7747
18944TIP3    H278324   6.186   6.502  16.343  0.3275 -0.7727  0.1320
18945TIP3   OH278325   6.619   2.861  14.379 -0.0078  0.0964 -0.2288
18945TIP3    H178326   6.626   2.807  14.300 -0.5763 -0.6780  0.2313
18945TIP3    H278327   6.709   2.883  14.401  0.5022 -2.7469  0.9499
18946TIP3   OH278328   1.405   2.013   4.033 -0.2381  0.8563  0.0639
18946TIP3    H178329   1.407   2.014   4.128 -0.5852 -0.3321  0.0950
18946TIP3    H278330   1.333   2.071   4.009 -0.7838  0.3902  0.5613
18947TIP3   OH278331   5.312   5.391   5.608 -0.4072  0.0697 -0.0387
18947TIP3    H178332   5.331   5.478   5.573 -2.0196 -0.2183 -1.8097
18947TIP3    H278333   5.364   5.331   5.555  0.2253 -0.0983  0.7643
18948TIP3   OH278334   6.769   6.335   6.723 -0.0368 -0.1174  0.6869
18948TIP3    H178335   6.801   6.377   6.643 -1.0882  0.1193  0.3722
18948TIP3    H278336   6.744   6.408   6.780 -0.8973 -0.2927  0.5480
18949TIP3   OH278337   0.642   3.499  13.246 -0.0164  0.2441  0.0442
18949TIP3    H178338   0.572   3.564  13.241  0.2494  0.4430 -1.9288
18949TIP3    H278339   0.619   3.433  13.181  1.8059  0.5258 -0.9458
18950TIP3   OH278340   5.068   6.099  11.006  0.0055 -0.5318  0.0389
18950TIP3    H178341   5.111   6.051  10.935 -1.2751 -1.0829 -0.4028
18950TIP3    H278342   4.975   6.082  10.993 -0.3491  0.5243  1.0263
18951TIP3   OH278343   1.608   5.462  13.301 -0.5939  0.1767  0.0712
18951TIP3    H178344   1.583   5.374  13.330  0.6265 -0.1915  0.0643
18951TIP3    H278345   1.676   5.448  13.236 -0.0431  1.1419  0.4172
18952TIP3   OH278346   5.453   1.728   5.168  0.2443 -0.6067 -0.4529
18952TIP3    H178347   5.437   1.702   5.258 -2.3503 -0.1176 -0.6955
18952TIP3    H278348   5.512   1.803   5.174  0.9023 -1.1975  0.7376
18953TIP3   OH278349   3.391   0.222   1.573 -0.0716 -0.1295 -0.0542
18953TIP3    H178350   3.414   0.310   1.545 -0.4648 -0.3498 -1.1211
18953TIP3    H278351   3.447   0.205   1.649  0.7659  0.6358 -0.4871
18954TIP3   OH278352   4.399   6.067  13.802 -0.0398  0.1521 -0.4059
18954TIP3    H178353   4.320   6.112  13.771 -0.1140  1.4585  1.4708
18954TIP3    H278354   4.460   6.072  13.728 -0.7317  1.6758 -0.9236
18955TIP3   OH278355   4.031   0.187   1.644 -0.4351  0.0311  0.2700
18955TIP3    H178356   4.015   0.269   1.596  1.6576  0.6515  0.4917
18955TIP3    H278357   4.115   0.202   1.687  0.3066 -2.4608 -0.1668
18956TIP3   OH278358   4.881   3.791  10.587 -0.1271 -0.0429 -0.4539
18956TIP3    H178359   4.927   3.874  10.585 -1.4823  0.7367 -0.6688
18956TIP3    H278360   4.939   3.732  10.636  0.5424  1.2153  0.3266
18957TIP3   OH278361   0.568   1.601  15.539  0.2995 -0.0116 -0.1000
18957TIP3    H178362   0.641   1.603  15.478 -0.5594  0.5043 -1.1540
18957TIP3    H278363   0.491   1.617  15.484 -0.3601  2.2711  1.3338
18958TIP3   OH278364   0.602   5.262   5.386  0.1675 -0.0450 -0.1908
18958TIP3    H178365   0.552   5.335   5.349  1.1648  0.9805  0.4185
18958TIP3    H278366   0.650   5.301   5.460  1.4031 -1.1179 -0.3972
18959TIP3   OH278367   4.784   6.523  11.265  0.4072 -0.2660 -0.0643
18959TIP3    H178368   4.797   6.557  11.177 -0.8473 -0.8799 -0.5053
18959TIP3    H278369   4.714   6.576  11.302 -0.0331 -0.9061  0.0421
18960TIP3   OH278370   2.917   0.625   5.256 -0.2018 -0.2562  0.1817
18960TIP3    H178371   2.847   0.568   5.224 -2.0139  1.4824  0.8197
18960TIP3    H278372   2.945   0.674   5.179  0.3794 -0.9933 -0.0865
18961TIP3   OH278373   2.056   2.798   4.264 -0.0864  0.2407  0.4585
18961TIP3    H178374   2.055   2.891   4.242  0.2985  0.4627  1.3560
18961TIP3    H278375   1.987   2.787   4.329  2.3344  0.6783  3.2777
18962TIP3   OH278376   0.856   5.200  12.269  0.3031  0.2140  0.3333
18962TIP3    H178377   0.817   5.283  12.244 -1.6203 -0.5708  0.5631
18962TIP3    H278378   0.933   5.224  12.321  0.9361  1.8247 -1.2553
18963TIP3   OH278379   0.981   0.848   1.655  0.8454  0.0531 -0.0303
18963TIP3    H178380   0.923   0.880   1.586 -0.0628 -0.6076  0.4030
18963TIP3    H278381   1.021   0.927   1.692  0.1500  0.5287 -0.2819
18964TIP3   OH278382   3.525   4.548  12.687  0.0162  0.5220 -0.1833
18964TIP3    H178383   3.471   4.472  12.707 -0.7157  0.9903 -0.3168
18964TIP3    H278384   3.490   4.618  12.743  0.1349  0.9718 -0.6589
18965TIP3   OH278385   3.074   3.612  10.750 -0.8388 -0.1543  0.5502
18965TIP3    H178386   3.132   3.624  10.824 -1.3079 -0.6470  1.0028
18965TIP3    H278387   2.991   3.584  10.788 -1.4434  0.7263 -0.0636
18966TIP3   OH278388   1.150   6.515  13.412 -0.3653  0.8448 -0.4707
18966TIP3    H178389   1.076   6.509  13.352  0.9207 -1.3297 -2.0008
18966TIP3    H278390   1.214   6.569  13.365 -0.8711  2.7106  0.8417
18967TIP3   OH278391   5.363   3.175   4.672 -0.2939  0.1164 -0.2019
18967TIP3    H178392   5.283   3.225   4.654  0.0081  0.3136 -1.0577
18967TIP3    H278393   5.433   3.240   4.667  0.0480 -0.2842 -0.8041
18968TIP3   OH278394   5.651   3.168  13.829  0.2428 -0.0683 -0.1236
18968TIP3    H178395   5.631   3.114  13.753 -0.6091 -0.0584  0.0836
18968TIP3    H278396   5.673   3.106  13.898  3.0325 -0.0365 -0.8853
18969TIP3   OH278397   4.193   0.609   0.535  0.3327  0.1965 -0.3234
18969TIP3    H178398   4.120   0.614   0.474  0.7284  0.9924 -0.7483
18969TIP3    H278399   4.190   0.520   0.569 -1.1999  0.3860  0.1296
18970TIP3   OH278400   5.541   0.066   5.083  0.3799 -0.8763  0.0792
18970TIP3    H178401   5.501   0.149   5.108  0.5413 -1.2872  1.7984
18970TIP3    H278402   5.580   0.084   4.997 -2.9821 -0.3205 -1.4979
18971TIP3   OH278403   1.764   6.415   5.592 -0.0797  0.3471 -0.2426
18971TIP3    H178404   1.834   6.440   5.652 -0.5771 -1.2244  1.1062
18971TIP3    H278405   1.691   6.473   5.615  0.5576  1.5712 -1.2273
18972TIP3   OH278406   1.136   5.705  11.865 -0.0180  0.4434  0.3848
18972TIP3    H178407   1.079   5.628  11.866  2.0479 -1.1786 -0.2197
18972TIP3    H278408   1.116   5.750  11.784  0.0568 -0.5329 -0.1881
18973TIP3   OH278409   5.803   4.733   0.198  0.1930 -0.0545  0.6035
18973TIP3    H178410   5.814   4.647   0.156  0.4964  0.3948 -0.2717
18973TIP3    H278411   5.793   4.794   0.125  1.0493  0.8100  1.1786
18974TIP3   OH278412   6.098   0.199   4.163 -0.2779  0.3342  0.1516
18974TIP3    H178413   6.175   0.247   4.191  0.4938 -0.1570 -1.0521
18974TIP3    H278414   6.130   0.111   4.144 -1.7324 -0.8579  2.7375
18975TIP3   OH278415   0.809   0.545  16.960  0.0915  0.2875  0.2088
18975TIP3    H178416   0.805   0.458  16.920  1.5877  0.5551 -0.6048
18975TIP3    H278417   0.722   0.583  16.942 -0.3293 -0.7644 -0.0608
18976TIP3   OH278418   3.139   1.578  14.374 -0.0862 -0.2509 -0.2125
18976TIP3    H178419   3.045   1.564  14.378  0.0166 -1.3759 -1.3543
18976TIP3    H278420   3.175   1.494  14.347  1.0781  0.6508 -1.6184
18977TIP3   OH278421   1.471   5.307   1.183 -0.1503 -0.1046 -0.1021
18977TIP3    H178422   1.379   5.325   1.168  0.4978  1.1224 -3.5647
18977TIP3    H278423   1.483   5.216   1.156 -0.2301 -0.1037 -0.1392
18978TIP3   OH278424   5.998   3.853   2.336 -0.3463  0.4782  0.0157
18978TIP3    H178425   6.013   3.805   2.255  0.4627 -2.0043  1.5463
18978TIP3    H278426   5.939   3.798   2.387 -0.8542  1.9862  1.1342
18979TIP3   OH278427   3.867   3.081   5.621  0.2451 -0.3153  0.7466
18979TIP3    H178428   3.949   3.073   5.670  0.5497 -0.2861  0.2504
18979TIP3    H278429   3.890   3.134   5.545 -0.3610  0.1543  0.8776
18980TIP3   OH278430   1.400   3.986  14.880 -0.0351  0.7958 -0.0461
18980TIP3    H178431   1.457   3.933  14.936 -1.6983 -0.2040  0.7893
18980TIP3    H278432   1.384   4.065  14.931 -0.7773  0.3043  0.5052
18981TIP3   OH278433   3.063   3.738  11.955  0.1765 -0.2003  0.0756
18981TIP3    H178434   3.129   3.759  12.021  1.9166 -0.6725 -1.4307
18981TIP3    H278435   3.066   3.643  11.947 -0.1346 -0.1652 -0.5485
18982TIP3   OH278436   1.158   0.338   1.551  0.9032 -0.7019 -0.0296
18982TIP3    H178437   1.092   0.397   1.514 -0.8333 -1.9916  0.8634
18982TIP3    H278438   1.229   0.396   1.578 -0.7616  1.0461  0.8891
18983TIP3   OH278439   4.995   1.340   4.464 -0.0998  0.4550  0.3198
18983TIP3    H178440   4.987   1.246   4.480  0.9581  0.3376  0.2584
18983TIP3    H278441   5.052   1.372   4.534 -0.9936  1.1884  0.7391
18984TIP3   OH278442   4.362   6.011  14.344  0.4390  0.4163 -0.3915
18984TIP3    H178443   4.371   6.020  14.249  2.2192 -1.3597 -0.4614
18984TIP3    H278444   4.451   6.011  14.377 -0.0644 -0.5945  1.0952
18985TIP3   OH278445   4.427   5.734   6.222 -0.2399 -0.0705 -0.2923
18985TIP3    H178446   4.434   5.770   6.310  2.5855 -2.6901  0.7231
18985TIP3    H278447   4.333   5.730   6.205 -0.8174  2.0849  1.8347
18986TIP3   OH278448   1.096   1.474  16.998  0.1610  0.4895 -0.2191
18986TIP3    H178449   1.167   1.426  17.042 -0.9202 -1.6374 -0.6290
18986TIP3    H278450   1.134   1.500  16.914  0.9179  0.7416  0.1901
18987TIP3   OH278451   1.623   6.109  14.345  0.7473  0.0549  0.3719
18987TIP3    H178452   1.600   6.016  14.350  0.5583  0.1178  0.7943
18987TIP3    H278453   1.543   6.152  14.314  1.0768 -0.0084 -0.6036
18988TIP3   OH278454   0.634   0.149  13.331  0.2427 -0.2353 -0.4675
18988TIP3    H178455   0.702   0.126  13.269 -0.0461 -0.4499 -0.7086
18988TIP3    H278456   0.566   0.082  13.319 -1.0311  1.2054 -1.8230
18989TIP3   OH278457   3.253   0.191   3.000  0.1980  0.2350 -0.2673
18989TIP3    H178458   3.237   0.101   2.969  0.3105  0.6729 -1.6591
18989TIP3    H278459   3.167   0.224   3.023 -0.0525  0.2699 -1.2133
18990TIP3   OH278460   3.585   1.538   1.708  0.0521  0.1870  0.2819
18990TIP3    H178461   3.675   1.508   1.695 -0.0009  0.2574 -0.2718
18990TIP3    H278462   3.534   1.457   1.715  0.2591  0.1304  1.4508
18991TIP3   OH278463   1.531   3.846  12.139 -0.0347 -0.0627  0.5586
18991TIP3    H178464   1.463   3.784  12.166  0.1127 -0.0682  0.9239
18991TIP3    H278465   1.538   3.907  12.213 -0.5799  0.7321 -0.0365
18992TIP3   OH278466   6.133   3.339  16.668  0.4216  0.1013  0.5629
18992TIP3    H178467   6.121   3.327  16.762  2.0616 -0.0332  0.7832
18992TIP3    H278468   6.135   3.434  16.656 -1.8721  0.1711  0.3329
18993TIP3   OH278469   4.661   2.453   1.539 -0.1718 -0.8597 -0.4738
18993TIP3    H178470   4.636   2.399   1.614  0.2028  0.6033  0.7615
18993TIP3    H278471   4.647   2.543   1.569  3.6505 -0.0245 -0.7174
18994TIP3   OH278472   5.253   1.719   4.532 -0.3478 -0.3735 -0.2161
18994TIP3    H178473   5.284   1.649   4.475 -1.5337  0.0524 -1.4281
18994TIP3    H278474   5.236   1.793   4.474  0.2436  0.7261  0.9524
18995TIP3   OH278475   1.757   1.583   3.993 -0.0481  0.2291  0.2077
18995TIP3    H178476   1.755   1.604   4.086 -3.4022  1.4128  0.0031
18995TIP3    H278477   1.828   1.637   3.958 -0.3594  1.6758  1.7107
18996TIP3   OH278478   2.839   2.319  17.194 -0.0538  0.2557  0.0588
18996TIP3    H178479   2.883   2.358  17.269 -0.7918  0.0024  0.6379
18996TIP3    H278480   2.748   2.307  17.223  0.1450 -1.9140 -0.0517
18997TIP3   OH278481   5.301   3.085  13.650  0.5211  0.8451  0.2909
18997TIP3    H178482   5.213   3.048  13.657  1.0284 -0.5619 -0.4238
18997TIP3    H278483   5.294   3.170  13.695 -1.1724  0.7545  0.2938
18998TIP3   OH278484   3.469   1.547   3.067  0.4180  0.1886  0.3852
18998TIP3    H178485   3.385   1.534   3.024 -0.3276  0.0700  1.8073
18998TIP3    H278486   3.528   1.487   3.023 -0.4677 -0.4063 -0.0251
18999TIP3   OH278487   6.539   2.972  11.038  0.7794 -0.6851  0.3555
18999TIP3    H178488   6.626   3.010  11.029  0.9572 -0.9968  0.7575
18999TIP3    H278489   6.514   2.948  10.948  1.6211 -1.7150  0.3739
19000TIP3   OH278490   0.982   6.057   2.566 -0.2227  0.2747 -0.2946
19000TIP3    H178491   0.957   6.021   2.481 -2.5413  0.8440  0.0759
19000TIP3    H278492   0.948   6.147   2.564  0.9037  0.7523  0.7338
19001TIP3   OH278493   4.771   3.317   4.525  0.3664 -0.2131  0.0197
19001TIP3    H178494   4.816   3.366   4.456 -1.6132 -0.1025 -1.2851
19001TIP3    H278495   4.680   3.312   4.495  0.0029 -2.6090  1.2901
19002TIP3   OH278496   5.603   5.119  11.310 -0.0661 -0.0530  0.0187
19002TIP3    H178497   5.512   5.098  11.330 -0.1934  0.8058  0.3667
19002TIP3    H278498   5.598   5.198  11.257  0.5317  0.7785  1.1607
19003TIP3   OH278499   4.197   1.495  16.284  0.0533 -0.4002  0.3594
19003TIP3    H178500   4.262   1.425  16.283 -0.0121 -0.4594  0.1962
19003TIP3    H278501   4.131   1.466  16.347  0.4682 -0.0795  0.9428
19004TIP3   OH278502   0.952   4.445   1.179 -0.5102 -0.2723  0.3689
19004TIP3    H178503   0.976   4.426   1.269  0.3425 -0.5145  0.1009
19004TIP3    H278504   1.016   4.509   1.150 -0.1432 -0.9636 -0.3797
19005TIP3   OH278505   3.733   1.568   3.548 -0.0670 -0.6458  0.6109
19005TIP3    H178506   3.771   1.495   3.597  0.9088  0.2532  1.2391
19005TIP3    H278507   3.722   1.638   3.612 -0.8492 -0.1754 -0.0098
19006TIP3   OH278508   1.471   6.064   0.099 -0.3306  0.3169 -0.8629
19006TIP3    H178509   1.378   6.041   0.099 -0.2325 -0.1004 -0.5347
19006TIP3    H278510   1.514   5.988   0.059  0.0072 -0.1227  0.3059
19007TIP3   OH278511   0.636   5.720  14.715 -0.5651  0.0225 -0.5423
19007TIP3    H178512   0.694   5.762  14.652 -1.3986 -0.6009 -1.7690
19007TIP3    H278513   0.684   5.723  14.798  1.5139 -1.1201 -1.6439
19008TIP3   OH278514   1.589   2.856  13.157  0.2714 -0.1356  0.7207
19008TIP3    H178515   1.521   2.808  13.205 -1.1943  2.0018  0.9651
19008TIP3    H278516   1.551   2.870  13.070  0.8184  0.2473  0.5406
19009TIP3   OH278517   1.084   3.089  14.617  0.7100 -0.1137  0.6161
19009TIP3    H178518   1.121   3.005  14.589 -1.9139 -0.6334 -1.6667
19009TIP3    H278519   1.006   3.066  14.666  0.7164  1.0127  1.1777
19010TIP3   OH278520   6.712   5.801   3.500  0.5577  0.1321  0.2489
19010TIP3    H178521   6.792   5.853   3.506  0.4991  0.1209  1.4097
19010TIP3    H278522   6.671   5.829   3.419  1.4028  0.6226 -0.0257
19011TIP3   OH278523   5.762   2.644   1.734 -0.1222  0.0544 -0.3203
19011TIP3    H178524   5.698   2.613   1.798  0.1370 -0.0698 -0.1230
19011TIP3    H278525   5.846   2.643   1.780 -0.2877  2.3746  0.1555
19012TIP3   OH278526   3.909   0.458  15.622  0.2321 -0.3150 -0.0941
19012TIP3    H178527   3.901   0.460  15.527 -1.5683 -1.0363  0.0119
19012TIP3    H278528   3.995   0.418  15.638  0.6796  0.0764 -1.3909
19013TIP3   OH278529   2.749   4.858   0.186 -0.4604 -0.0423  0.3805
19013TIP3    H178530   2.654   4.860   0.196 -0.2876  1.6843  3.0132
19013TIP3    H278531   2.769   4.937   0.136 -0.4090 -0.4836 -0.3013
19014TIP3   OH278532   3.349   5.596   3.990 -0.2230 -0.0835 -0.4857
19014TIP3    H178533   3.267   5.556   4.020 -0.1032 -0.5015 -0.7251
19014TIP3    H278534   3.390   5.628   4.071 -1.2402  1.3164 -0.4771
19015TIP3   OH278535   6.130   1.418   5.656  0.5950 -0.1822 -0.2585
19015TIP3    H178536   6.100   1.472   5.583  1.9890  0.8669 -0.0956
19015TIP3    H278537   6.217   1.389   5.629  1.1389  0.2507  0.9742
19016TIP3   OH278538   2.261   4.539  11.479 -0.0859  0.3251 -0.1300
19016TIP3    H178539   2.200   4.535  11.406 -0.4299 -3.1467  0.1788
19016TIP3    H278540   2.348   4.533  11.438 -0.1137  1.2635 -0.3537
19017TIP3   OH278541   5.510   2.119   4.337  0.1133  0.5919  0.2247
19017TIP3    H178542   5.442   2.097   4.273 -0.4058  1.8850  0.3047
19017TIP3    H278543   5.472   2.098   4.422  1.1722 -2.0989  0.1414
19018TIP3   OH278544   5.034   3.719  13.118 -0.0950  0.6276 -0.0958
19018TIP3    H178545   5.114   3.756  13.155 -0.8190  0.8175  1.3440
19018TIP3    H278546   5.054   3.626  13.106  0.5826  0.8157 -0.4976
19019TIP3   OH278547   2.647   5.345  13.739 -0.1403 -0.5707  0.0204
19019TIP3    H178548   2.575   5.320  13.682 -1.2629  0.3349  0.9867
19019TIP3    H278549   2.725   5.341  13.684 -0.9243 -1.5821 -1.0410
19020TIP3   OH278550   4.930   3.687  12.499 -0.2423 -0.1235 -0.0023
19020TIP3    H178551   4.882   3.644  12.570 -0.8994  1.0889  0.3125
19020TIP3    H278552   4.929   3.780  12.522  0.5002  0.1605 -1.0425
19021TIP3   OH278553   2.880   0.655   2.553 -0.2654 -0.1989  0.2667
19021TIP3    H178554   2.916   0.742   2.570  0.7582 -0.5402 -0.1054
19021TIP3    H278555   2.809   0.646   2.617 -0.7012  1.0900 -0.0080
19022TIP3   OH278556   5.493   6.419   0.674 -0.6646 -0.7239 -0.1771
19022TIP3    H178557   5.500   6.479   0.748 -0.2210 -0.3259 -0.5330
19022TIP3    H278558   5.398   6.412   0.658 -0.7175 -0.0074 -0.2122
19023TIP3   OH278559   6.495   4.284   3.812  0.7204 -0.2847 -0.6205
19023TIP3    H178560   6.549   4.355   3.777 -1.3313  0.9850 -1.3982
19023TIP3    H278561   6.432   4.329   3.869 -0.6262 -1.4643 -1.1278
19024TIP3   OH278562   6.290   6.791   5.815 -0.5037 -0.3421  0.0848
19024TIP3    H178563   6.325   6.810   5.728 -0.8043  0.9922  0.2433
19024TIP3    H278564   6.347   6.721   5.848  1.0193  0.6578 -0.2990
19025TIP3   OH278565   2.100   4.822   1.172 -0.7168  0.0824  0.4667
19025TIP3    H178566   2.082   4.730   1.152 -0.8206  0.3036 -0.4901
19025TIP3    H278567   2.013   4.859   1.191 -0.8039  0.2359 -0.2318
19026TIP3   OH278568   5.779   3.405  16.291  0.2372 -0.5116  0.5145
19026TIP3    H178569   5.738   3.490  16.308 -0.4448 -1.1089  2.0529
19026TIP3    H278570   5.716   3.359  16.236  0.7223  0.0490 -0.5360
19027TIP3   OH278571   3.254   4.217  11.767  0.2626  0.2229  0.0823
19027TIP3    H178572   3.267   4.123  11.779  1.1072  0.2152 -0.7549
19027TIP3    H278573   3.342   4.254  11.770  0.2659  0.6111 -2.3578
19028TIP3   OH278574   2.957   4.485   2.502  0.5578 -0.3572  0.0320
19028TIP3    H178575   2.882   4.501   2.560  0.5274 -0.0686 -0.0897
19028TIP3    H278576   3.032   4.520   2.550  0.2427  1.9534 -1.0597
19029TIP3   OH278577   1.923   0.227   0.863 -0.7200  0.1232  0.1312
19029TIP3    H178578   1.951   0.305   0.911  0.5637 -0.9440  1.1854
19029TIP3    H278579   1.951   0.243   0.773  4.2526 -1.1312  1.1648
19030TIP3   OH278580   2.165   6.182   2.149 -0.3726 -0.1694 -0.5943
19030TIP3    H178581   2.193   6.195   2.058  0.1753  1.5716 -0.2286
19030TIP3    H278582   2.100   6.251   2.164  0.5165  0.4398  0.6996
19031TIP3   OH278583   2.135   3.580   1.635 -0.5057  0.1470  0.1421
19031TIP3    H178584   2.123   3.536   1.551 -2.2762  1.2976 -0.2583
19031TIP3    H278585   2.124   3.673   1.616  1.5551  0.6877  1.2449
19032TIP3   OH278586   6.462   2.517  13.934  0.2784  0.2521 -0.1085
19032TIP3    H178587   6.405   2.593  13.918  1.3753  1.2031  0.3771
19032TIP3    H278588   6.540   2.533  13.882  2.0240  1.2452  2.5932
19033TIP3   OH278589   0.001   1.670   3.166  0.2747  0.3912  0.0999
19033TIP3    H178590   0.080   1.617   3.155 -0.2757 -0.3917 -0.1713
19033TIP3    H278591  -0.031   1.683   3.076 -1.2848 -1.4594  0.3214
19034TIP3   OH278592   1.653   4.921   4.776 -0.0649  0.0119 -0.6217
19034TIP3    H178593   1.704   4.862   4.720 -0.3490  0.4158 -1.3258
19034TIP3    H278594   1.636   4.871   4.855  1.4530 -0.1298 -0.3509
19035TIP3   OH278595   1.844   4.728   2.056 -0.1339 -0.9025 -0.6801
19035TIP3    H178596   1.845   4.648   2.003 -0.6331 -0.1226 -1.9172
19035TIP3    H278597   1.933   4.735   2.091  0.4791 -0.9959 -2.1429
19036TIP3   OH278598   3.574   5.677   1.771 -0.1850  0.0831  0.1479
19036TIP3    H178599   3.565   5.763   1.729 -1.3219 -0.2882 -0.4214
19036TIP3    H278600   3.536   5.616   1.708 -0.3791 -0.7074  1.0149
19037TIP3   OH278601   6.481   1.258   5.297 -0.3918 -0.0176 -0.6565
19037TIP3    H178602   6.412   1.217   5.348 -0.7767 -0.6161 -1.6385
19037TIP3    H278603   6.511   1.331   5.352 -0.3273 -1.0391  0.7063
19038TIP3   OH278604   6.148   4.806   4.409  0.1733  0.3523 -0.2370
19038TIP3    H178605   6.222   4.746   4.407 -0.4097 -0.3838 -0.2964
19038TIP3    H278606   6.128   4.816   4.502  0.4072  0.6261 -0.2163
19039TIP3   OH278607   5.025   4.732   1.656 -0.3519  0.0254 -0.2670
19039TIP3    H178608   5.001   4.813   1.610 -0.5663 -0.2030 -0.5623
19039TIP3    H278609   5.105   4.754   1.704 -0.2508  0.3333 -0.5731
19040TIP3   OH278610   2.050   6.693  14.785  0.6491 -0.0804  0.5436
19040TIP3    H178611   2.141   6.665  14.786  0.4932 -0.6790 -0.2477
19040TIP3    H278612   2.022   6.679  14.694  0.0729  1.0929  0.5201
19041TIP3   OH278613   5.813   5.681   3.069 -0.3155  0.1845  0.4029
19041TIP3    H178614   5.840   5.663   2.979  1.1586  1.0999  0.6240
19041TIP3    H278615   5.862   5.617   3.122  1.9193  2.1042  0.8409
19042TIP3   OH278616   2.873   0.210  15.120  0.2096  0.0737 -0.3021
19042TIP3    H178617   2.800   0.268  15.100  0.4503  0.6361  0.4073
19042TIP3    H278618   2.852   0.173  15.206  0.6343  0.0493 -0.2058
19043TIP3   OH278619   4.727   1.770  16.453 -0.1229 -0.2586  0.0867
19043TIP3    H178620   4.651   1.799  16.503  1.0013 -0.7900  2.2199
19043TIP3    H278621   4.771   1.707  16.509  1.9331  0.0576 -1.0385
19044TIP3   OH278622   6.086   3.729   0.437  0.2587 -0.2056  0.4609
19044TIP3    H178623   6.012   3.769   0.392  0.6432 -0.1938 -0.1891
19044TIP3    H278624   6.163   3.770   0.397  0.6165  0.0194  1.3472
19045TIP3   OH278625   3.889   0.585  15.376  0.2886 -0.0344  0.1862
19045TIP3    H178626   3.801   0.605  15.408  0.3934 -1.9495  1.8511
19045TIP3    H278627   3.947   0.641  15.427  0.0404  2.8276 -2.3696
19046TIP3   OH278628   2.497   3.150   6.388  0.2986 -0.7219 -0.0168
19046TIP3    H178629   2.522   3.161   6.479 -0.1996 -2.3538  0.3446
19046TIP3    H278630   2.557   3.083   6.354 -0.1991 -0.8983 -0.5754
19047TIP3   OH278631   6.014   2.230   0.761 -0.3216  0.5865 -0.7162
19047TIP3    H178632   5.969   2.149   0.787  1.4176  0.3334  1.9525
19047TIP3    H278633   5.944   2.289   0.735 -1.9129 -0.8147  0.1612
19048TIP3   OH278634   1.919   6.715  11.589 -0.3205  0.0723  0.0506
19048TIP3    H178635   1.895   6.626  11.562 -0.1961  0.3449 -1.0030
19048TIP3    H278636   1.855   6.737  11.656 -0.3907 -0.7920  0.2804
19049TIP3   OH278637   4.058   2.816  16.404 -0.6370  0.1844  0.0246
19049TIP3    H178638   4.153   2.828  16.391 -0.3429 -0.1983  1.6248
19049TIP3    H278639   4.049   2.728  16.441 -1.4381  0.7832  1.3507
19050TIP3   OH278640   1.600   3.697   2.920 -0.0295  0.1809 -0.1647
19050TIP3    H178641   1.685   3.706   2.962  0.1245  0.8904 -0.5969
19050TIP3    H278642   1.548   3.644   2.980 -0.1688  2.0417  1.4480
19051TIP3   OH278643   4.631   2.596   5.887 -0.3181 -0.0684 -0.0696
19051TIP3    H178644   4.536   2.595   5.888 -0.3402 -1.5846  1.8639
19051TIP3    H278645   4.655   2.683   5.918 -1.0956  0.1108  0.0324
19052TIP3   OH278646   1.052   3.302  17.269  0.0017  0.0238  0.2847
19052TIP3    H178647   1.020   3.388  17.297  1.4479 -0.1613  2.8348
19052TIP3    H278648   0.996   3.240  17.315  0.1020 -0.3977 -0.1548
19053TIP3   OH278649   0.630   3.041   0.619 -0.2154 -0.0738  0.3160
19053TIP3    H178650   0.624   3.131   0.588 -1.3826 -0.7163 -1.5152
19053TIP3    H278651   0.722   3.017   0.607  0.3066  1.1110  1.6803
19054TIP3   OH278652   0.473   5.603   2.156  0.3670 -0.0746  0.2717
19054TIP3    H178653   0.442   5.560   2.075  0.1090  0.3556  0.1363
19054TIP3    H278654   0.521   5.535   2.202 -0.1988 -0.5693  0.1507
19055TIP3   OH278655   1.617   3.367   0.901  0.0264  0.2733  0.2436
19055TIP3    H178656   1.672   3.312   0.957 -0.4563 -0.7023 -0.2137
19055TIP3    H278657   1.671   3.443   0.881  0.7045 -0.0214  0.9121
19056TIP3   OH278658   5.121   2.188  12.021  0.1342  0.0840 -0.1878
19056TIP3    H178659   5.201   2.136  12.010 -0.0655 -0.7057  1.6488
19056TIP3    H278660   5.145   2.257  12.083 -0.1242  1.0310 -1.1150
19057TIP3   OH278661   0.815   2.464   5.505 -0.4359 -0.1600 -0.1953
19057TIP3    H178662   0.793   2.457   5.598 -0.7795  0.8307 -0.1908
19057TIP3    H278663   0.789   2.380   5.467 -1.8695  0.0528  0.2867
19058TIP3   OH278664   1.245   4.843   0.810 -0.5725  0.1166  0.4145
19058TIP3    H178665   1.282   4.840   0.898 -0.8260  0.0346  0.5182
19058TIP3    H278666   1.240   4.751   0.783  0.6321  0.1925 -0.1619
19059TIP3   OH278667   1.068   4.366  16.440 -0.6659 -0.3489  0.2645
19059TIP3    H178668   1.024   4.313  16.507  0.4571  0.7420  1.9518
19059TIP3    H278669   1.160   4.343  16.447 -0.0396  2.1843  1.5095
19060TIP3   OH278670   5.374   1.834   1.825 -0.5669  0.8849  0.4028
19060TIP3    H178671   5.452   1.793   1.860  0.0528  0.4115 -1.4279
19060TIP3    H278672   5.301   1.788   1.867  0.1185 -1.2901 -0.6768
19061TIP3   OH278673   0.012   2.203  15.166  0.4001 -0.3171 -0.5018
19061TIP3    H178674  -0.079   2.209  15.139  0.2512  1.0122  0.1982
19061TIP3    H278675   0.041   2.294  15.174  1.5446 -0.7065  0.0818
19062TIP3   OH278676   0.551   1.786  10.897 -0.5974  0.4147  0.1632
19062TIP3    H178677   0.483   1.849  10.872 -0.9976 -0.6710 -1.6818
19062TIP3    H278678   0.503   1.716  10.941 -0.2663  0.9378  1.4039
19063TIP3   OH278679   2.014   1.149   1.047  0.0910 -0.1591  0.0828
19063TIP3    H178680   2.033   1.057   1.065  0.6874  0.0993  0.8461
19063TIP3    H278681   1.948   1.173   1.113 -2.3135 -0.7930 -1.9455
19064TIP3   OH278682   2.241   3.984   2.247  0.4718  0.1802 -0.0688
19064TIP3    H178683   2.241   3.948   2.158  1.2185  0.7353 -0.2984
19064TIP3    H278684   2.332   4.008   2.263  1.0110 -2.6256  1.9625
19065TIP3   OH278685   0.822   5.258  13.626  0.1867 -0.5211 -0.8023
19065TIP3    H178686   0.811   5.180  13.572 -2.6438 -0.5818 -0.2835
19065TIP3    H278687   0.885   5.233  13.693  2.0350 -1.1623 -2.6771
19066TIP3   OH278688   2.687   5.524   4.875 -0.0065  0.3784 -0.3787
19066TIP3    H178689   2.729   5.447   4.911 -1.0335 -0.4177 -0.8253
19066TIP3    H278690   2.609   5.490   4.830  0.1165  1.5388 -1.5451
19067TIP3   OH278691   4.990   2.988   1.026  0.2790 -0.3914 -0.5184
19067TIP3    H178692   5.030   2.915   0.981  1.1462  0.1923 -0.7175
19067TIP3    H278693   4.986   3.058   0.961 -0.2268 -0.1432 -0.2362
19068TIP3   OH278694   5.230   2.216  11.711 -0.1460 -0.0319  0.1602
19068TIP3    H178695   5.233   2.174  11.796 -1.8665  1.6861  1.1488
19068TIP3    H278696   5.190   2.302  11.727  0.7806  0.9388 -2.1444
19069TIP3   OH278697   2.757   1.164  12.731  0.0212  0.6771 -0.3464
19069TIP3    H178698   2.845   1.190  12.756 -0.3758  2.3079 -0.5642
19069TIP3    H278699   2.733   1.096  12.794  1.2809  0.4779 -0.0646
19070TIP3   OH278700   1.187   4.980  11.740  0.1868  0.4258 -0.3218
19070TIP3    H178701   1.132   4.973  11.818 -0.7613  0.3352 -0.9827
19070TIP3    H278702   1.177   4.896  11.696 -2.0914  1.6100 -2.3260
19071TIP3   OH278703   0.013   1.880  17.250  0.4096 -0.0048 -0.0104
19071TIP3    H178704  -0.017   1.796  17.216 -0.3550  0.1158  0.3421
19071TIP3    H278705   0.020   1.936  17.172  1.8703 -0.6468 -0.3780
19072TIP3   OH278706   1.056   2.272   5.316 -0.6942 -0.2390  0.2978
19072TIP3    H178707   0.985   2.249   5.255 -0.2492  0.1644 -0.3840
19072TIP3    H278708   1.067   2.194   5.370 -0.5730 -0.9063 -0.6608
19073TIP3   OH278709   2.573   5.144  11.795  0.2394 -0.3508  0.3761
19073TIP3    H178710   2.502   5.206  11.810  0.9543  0.8587 -1.0609
19073TIP3    H278711   2.652   5.198  11.791  0.8339 -1.2761 -1.3256
19074TIP3   OH278712   2.787   5.764   4.803 -0.5082  0.2485  0.3901
19074TIP3    H178713   2.708   5.719   4.834 -1.2566 -0.6079 -2.4202
19074TIP3    H278714   2.793   5.740   4.711  3.2333  0.1156  0.5308
19075TIP3   OH278715   1.598   4.373  16.208 -0.1214 -0.4476 -0.0136
19075TIP3    H178716   1.671   4.407  16.155 -0.5264 -2.8158 -2.3013
19075TIP3    H278717   1.639   4.338  16.286  0.5140  3.1633  1.4800
19076TIP3   OH278718   1.983   4.554   1.141 -0.0485 -0.5316  0.2939
19076TIP3    H178719   1.888   4.544   1.138  0.1113 -2.4747  0.2066
19076TIP3    H278720   2.012   4.488   1.205  1.3016 -0.7445 -0.4898
19077TIP3   OH278721   5.725   5.591   2.355 -0.3942 -0.0491  0.1910
19077TIP3    H178722   5.688   5.543   2.430 -3.7201  0.2618 -1.1052
19077TIP3    H278723   5.734   5.681   2.387  0.5851 -0.4017  0.9470
19078TIP3   OH278724   5.791   4.763  14.563 -0.6039  0.1905  0.2318
19078TIP3    H178725   5.719   4.758  14.500 -0.8944  2.0666  0.3424
19078TIP3    H278726   5.797   4.857  14.584  0.9766 -0.1120  1.2639
19079TIP3   OH278727   4.286   4.432   6.316 -0.4032  0.1511  0.1831
19079TIP3    H178728   4.243   4.516   6.299 -1.2909 -0.2523  0.3779
19079TIP3    H278729   4.339   4.446   6.395 -1.0849  0.3398  0.6087
19080TIP3   OH278730   4.569   0.066  14.575 -0.0480 -0.5224  0.0257
19080TIP3    H178731   4.622   0.144  14.591 -1.9813  0.9770 -0.4482
19080TIP3    H278732   4.522   0.052  14.657 -0.0393 -0.9399 -0.0370
19081TIP3   OH278733   2.210   0.344  12.195 -0.5672 -0.3840  0.0232
19081TIP3    H178734   2.152   0.269  12.185 -1.4732  0.4895 -1.7733
19081TIP3    H278735   2.217   0.381  12.107  1.3148  0.5929  0.5189
19082TIP3   OH278736   0.192   2.187   0.574  0.1106  0.0366  0.1778
19082TIP3    H178737   0.203   2.273   0.614  2.1635 -1.3485  3.0070
19082TIP3    H278738   0.249   2.189   0.497 -0.9309  1.5942 -0.5854
19083TIP3   OH278739   1.319   4.672  17.227 -0.0952  0.2642 -0.4813
19083TIP3    H178740   1.226   4.686  17.245 -0.2542 -2.1592  0.9256
19083TIP3    H278741   1.363   4.743  17.274 -1.1240  0.4741  0.2017
19084TIP3   OH278742   2.630   3.584  15.670 -0.5696 -0.9898 -0.0396
19084TIP3    H178743   2.656   3.656  15.728 -2.8919  0.7690 -0.9802
19084TIP3    H278744   2.678   3.600  15.588  0.0176 -1.3880  0.2216
19085TIP3   OH278745   0.368   5.693  12.572 -0.2051  0.0693 -0.2126
19085TIP3    H178746   0.304   5.754  12.535 -0.4290  0.2089  0.3934
19085TIP3    H278747   0.339   5.607  12.545  0.0732  0.2207 -1.0207
19086TIP3   OH278748   1.984   4.811   5.134 -0.8350 -0.2162  0.0817
19086TIP3    H178749   2.033   4.832   5.214  0.3146 -1.4092 -0.2732
19086TIP3    H278750   1.976   4.895   5.088 -0.3393  0.2485  0.8160
19087TIP3   OH278751   5.273   5.035   3.740  0.3914  0.0099  0.3969
19087TIP3    H178752   5.208   4.966   3.734  0.7330 -0.3140  0.3844
19087TIP3    H278753   5.348   5.001   3.691  0.3372  0.6430 -0.1361
19088TIP3   OH278754   4.456   2.481  13.997  0.1024  0.1424  0.1652
19088TIP3    H178755   4.488   2.489  14.087  1.1951 -1.9283  0.0239
19088TIP3    H278756   4.363   2.460  14.007  0.4551 -1.1955  0.8964
19089TIP3   OH278757   2.056   5.455  14.757  0.3459  0.1443 -0.0080
19089TIP3    H178758   2.145   5.476  14.730  0.1755 -0.1237 -0.8136
19089TIP3    H278759   2.042   5.366  14.726 -0.8406  0.8365 -1.5831
19090TIP3   OH278760   5.336   5.223   3.943 -0.2154 -1.2157 -0.6359
19090TIP3    H178761   5.307   5.163   3.874 -1.7693 -0.6634 -0.5095
19090TIP3    H278762   5.280   5.300   3.932 -2.2755 -2.0499  2.7536
19091TIP3   OH278763   1.128   2.645   0.368 -0.0701  0.0335 -0.2710
19091TIP3    H178764   1.173   2.610   0.445  0.8945 -1.9180 -1.6437
19091TIP3    H278765   1.035   2.636   0.389  0.1796 -0.1526  0.7961
19092TIP3   OH278766   3.494   5.181  12.356 -0.5432  0.0013  0.1310
19092TIP3    H178767   3.557   5.206  12.423 -0.5476 -2.4771  1.1566
19092TIP3    H278768   3.545   5.131  12.293 -0.8822  0.8534 -0.8454
19093TIP3   OH278769   6.505   0.184   2.378 -0.0558 -0.1455 -0.1983
19093TIP3    H178770   6.576   0.160   2.438  0.3173  0.0933 -0.5339
19093TIP3    H278771   6.511   0.120   2.308 -2.1769 -2.0889  1.2760
19094TIP3   OH278772   4.484   3.122  13.639 -0.1070 -0.0824 -0.2192
19094TIP3    H178773   4.429   3.120  13.717  0.3533  0.6556  0.1373
19094TIP3    H278774   4.438   3.181  13.579  1.1274  1.9768  0.7573
19095TIP3   OH278775   3.136   3.742   1.986 -0.1472 -0.3919 -0.3168
19095TIP3    H178776   3.051   3.711   1.956 -0.3675  0.1257 -0.2318
19095TIP3    H278777   3.141   3.714   2.078 -0.1223 -0.6213 -0.3857
19096TIP3   OH278778   0.127   0.695   5.512  0.1034  0.5351  0.0554
19096TIP3    H178779   0.091   0.722   5.427  0.4275 -1.6582 -0.8317
19096TIP3    H278780   0.056   0.645   5.553  0.8707 -0.7709 -0.1602
19097TIP3   OH278781   4.861   0.195  14.352 -0.1348  0.2120  0.6414
19097TIP3    H178782   4.915   0.116  14.361 -0.5457 -0.2528 -0.7879
19097TIP3    H278783   4.794   0.171  14.289 -0.4513  1.6220  0.4160
19098TIP3   OH278784   3.045   0.666   2.220 -0.1071 -0.1232  0.3699
19098TIP3    H178785   2.975   0.652   2.284  1.2932 -0.3190  1.9336
19098TIP3    H278786   3.048   0.761   2.208 -1.1192 -0.1561 -0.3216
19099TIP3   OH278787   3.089   0.102   2.551 -0.1609  0.7680 -0.2571
19099TIP3    H178788   3.149   0.171   2.523 -1.5340  1.5070 -1.5410
19099TIP3    H278789   3.102   0.032   2.487  0.3853  0.2912  0.3562
19100TIP3   OH278790   1.453   0.927   1.361  0.4320 -0.3978 -0.1616
19100TIP3    H178791   1.542   0.929   1.397 -0.3965 -1.1253  2.1048
19100TIP3    H278792   1.421   1.016   1.372  0.5985 -0.3363 -0.1775
19101TIP3   OH278793   0.440   0.194   3.633 -0.7449  0.4346 -0.0290
19101TIP3    H178794   0.515   0.206   3.692 -1.2517  2.0391  0.3309
19101TIP3    H278795   0.403   0.282   3.624 -1.3677  0.0162 -1.8312
19102TIP3   OH278796   2.002   0.047  13.928 -0.6120 -0.5324  0.5867
19102TIP3    H178797   1.991  -0.034  13.979  1.2195 -0.5292  1.0567
19102TIP3    H278798   2.015   0.017  13.838  0.1837 -0.7826  0.7795
19103TIP3   OH278799   1.026   4.352   5.470  0.0990 -0.0955  0.0340
19103TIP3    H178800   1.098   4.334   5.531 -1.1951 -0.8506  1.3902
19103TIP3    H278801   1.034   4.284   5.403  0.6576 -0.1622  0.1632
19104TIP3   OH278802   0.379   3.956   2.477 -0.1680  0.3111 -0.0534
19104TIP3    H178803   0.343   3.870   2.458  1.5092 -0.4474  0.0443
19104TIP3    H278804   0.381   4.001   2.393 -3.3128  1.2315  0.2529
19105TIP3   OH278805   1.298   5.206   3.190  0.2149 -0.8987 -0.3976
19105TIP3    H178806   1.203   5.213   3.196  0.1770 -0.8024 -1.0439
19105TIP3    H278807   1.326   5.179   3.278 -0.2739  0.4350  0.1900
19106TIP3   OH278808   5.406   0.558   2.599 -0.3360  0.2323 -0.0671
19106TIP3    H178809   5.422   0.518   2.513  0.7109 -1.6063  0.9318
19106TIP3    H278810   5.384   0.485   2.656 -0.8724  1.4116  1.2939
19107TIP3   OH278811   5.685   1.933  11.817  0.1103 -0.8307 -0.5771
19107TIP3    H178812   5.609   1.979  11.782 -0.5117 -1.0794  0.4398
19107TIP3    H278813   5.739   2.002  11.856 -1.3447 -1.0314  1.9255
19108TIP3   OH278814   4.706   1.607   0.078 -0.2867  0.1415 -0.4086
19108TIP3    H178815   4.703   1.691   0.033 -0.7136 -0.0576 -0.7491
19108TIP3    H278816   4.765   1.553   0.026 -1.3560 -0.3343 -1.1637
19109TIP3   OH278817   5.990   5.736   3.855 -0.1833  0.1597  0.3676
19109TIP3    H178818   5.956   5.816   3.896 -2.5050  0.2966 -1.5769
19109TIP3    H278819   5.919   5.673   3.864  1.3586 -1.5365  1.2721
19110TIP3   OH278820   6.736   3.928  15.544 -0.7717  0.3441  0.3927
19110TIP3    H178821   6.726   3.967  15.457  0.4067 -0.2235 -0.0150
19110TIP3    H278822   6.790   3.991  15.592 -0.4672  0.1287  0.3392
19111TIP3   OH278823   0.160   5.172  17.121  0.2050 -0.4080  0.6060
19111TIP3    H178824   0.079   5.131  17.152 -0.7169  2.1018  1.7372
19111TIP3    H278825   0.214   5.098  17.091 -1.6506 -2.3416  1.7413
19112TIP3   OH278826   5.193   3.721  15.794  0.2451  0.2278 -0.2626
19112TIP3    H178827   5.134   3.662  15.839  0.1834  1.2028  0.9964
19112TIP3    H278828   5.135   3.783  15.749  0.3069 -0.6960 -1.6624
19113TIP3   OH278829   6.432   0.685   4.696 -0.0712 -0.1071  0.4219
19113TIP3    H178830   6.496   0.621   4.666  0.6580  0.6356  0.3576
19113TIP3    H278831   6.476   0.733   4.766 -0.1918  1.0656 -0.2761
19114TIP3   OH278832   0.181   3.817  11.426 -0.2446  0.3318 -0.0550
19114TIP3    H178833   0.219   3.791  11.342  1.4860 -0.1081  0.8017
19114TIP3    H278834   0.229   3.896  11.450 -1.0274  0.6958  0.3260
19115TIP3   OH278835   3.205   4.473   0.256  0.8450  0.1197  0.6474
19115TIP3    H178836   3.279   4.530   0.278  0.8901  0.2212  0.2312
19115TIP3    H278837   3.160   4.460   0.340  1.2524  0.1685  0.8786
19116TIP3   OH278838   5.440   0.073  15.628 -0.1709 -0.1308  0.7720
19116TIP3    H178839   5.534   0.053  15.632  0.1343  1.0827  0.2331
19116TIP3    H278840   5.427   0.140  15.694 -0.4280  0.5189  0.0765
19117TIP3   OH278841   0.891   3.695  12.104 -0.3246 -0.2180 -0.7505
19117TIP3    H178842   0.928   3.770  12.151  1.5261 -0.0733 -2.3128
19117TIP3    H278843   0.796   3.706  12.112 -0.0811  1.3789  0.4142
19118TIP3   OH278844   0.473   0.038  12.423  0.3724  0.3305  0.3037
19118TIP3    H178845   0.546   0.016  12.481 -0.1582  0.5359  1.0687
19118TIP3    H278846   0.425  -0.044  12.413  0.3646  0.3360  0.2951
19119TIP3   OH278847   1.534   3.729   5.589 -0.0314 -0.2504 -0.1102
19119TIP3    H178848   1.509   3.822   5.596 -0.5993 -0.4185  0.1789
19119TIP3    H278849   1.506   3.703   5.502 -2.1828 -0.7920  0.6646
19120TIP3   OH278850   5.870   3.999   0.981 -0.2056  0.3364 -0.3975
19120TIP3    H178851   5.796   3.949   0.946  0.4789 -1.3406  0.4169
19120TIP3    H278852   5.865   3.985   1.076  1.2520  0.0437 -0.3462
19121TIP3   OH278853   1.240   5.328  12.501  0.1674  0.1074  0.3556
19121TIP3    H178854   1.276   5.325  12.590  0.8013  1.5673  0.1640
19121TIP3    H278855   1.292   5.265  12.452  0.6255  0.1852  0.7375
19122TIP3   OH278856   6.410   2.584   0.989 -0.3042  0.3351  0.2817
19122TIP3    H178857   6.359   2.524   1.043 -2.9441  1.3921 -0.8566
19122TIP3    H278858   6.396   2.670   1.027  0.0696  0.7393 -0.4587
19123TIP3   OH278859   5.886   1.906  14.024 -0.1159 -0.2277 -0.2633
19123TIP3    H178860   5.978   1.896  14.047  1.0002  1.7570 -3.2676
19123TIP3    H278861   5.854   1.972  14.087  2.0242  2.8961 -2.1332
19124TIP3   OH278862   0.198   0.291  16.081  0.0174  0.3131 -0.1282
19124TIP3    H178863   0.149   0.271  16.001 -0.6638  1.2750  0.0308
19124TIP3    H278864   0.290   0.287  16.055 -0.1973  0.5410 -0.9438
19125TIP3   OH278865   5.375   1.873  15.062 -0.1628 -0.1789  0.1499
19125TIP3    H178866   5.414   1.960  15.063 -0.7375  0.0876 -0.1005
19125TIP3    H278867   5.281   1.888  15.061 -0.2711 -0.7918 -0.2946
19126TIP3   OH278868   3.261   3.612  16.219  0.4957  0.0097  0.3336
19126TIP3    H178869   3.210   3.531  16.222  0.5651 -0.0461  0.0384
19126TIP3    H278870   3.264   3.635  16.126  2.1655 -0.7351  0.1654
19127TIP3   OH278871   2.677   2.722  11.808  0.1398 -0.0352  0.3712
19127TIP3    H178872   2.680   2.808  11.850  2.1059  0.5053 -0.7702
19127TIP3    H278873   2.714   2.662  11.873  1.0418  0.4126  0.2832
19128TIP3   OH278874   4.515   5.757  16.590 -0.3576  0.5217  0.6081
19128TIP3    H178875   4.558   5.673  16.607 -2.7074 -1.0665 -0.6156
19128TIP3    H278876   4.549   5.816  16.657  1.5334 -1.3372  1.4065
19129TIP3   OH278877   6.117   5.506  14.490  0.0487  0.3271 -0.5279
19129TIP3    H178878   6.144   5.498  14.581  1.8735  1.3619 -0.9433
19129TIP3    H278879   6.051   5.576  14.490  0.3946  0.6534 -0.0685
19130TIP3   OH278880   2.415   4.209  16.164 -0.1690  0.3482 -0.4993
19130TIP3    H178881   2.444   4.123  16.133  0.8607  1.1244 -1.7702
19130TIP3    H278882   2.420   4.203  16.260 -0.4447 -1.1032 -0.5514
19131TIP3   OH278883   0.028   3.883  14.714 -0.0634 -0.1201 -0.3802
19131TIP3    H178884   0.099   3.898  14.652 -0.9210  1.2670 -1.0552
19131TIP3    H278885   0.001   3.793  14.698  0.7082 -0.2560 -0.9696
19132TIP3   OH278886   5.580   1.471  15.757 -0.0529  0.1847 -0.1852
19132TIP3    H178887   5.649   1.496  15.818 -0.6849 -0.8979  1.0128
19132TIP3    H278888   5.499   1.477  15.807 -0.4610 -2.0059 -0.4512
19133TIP3   OH278889   1.844   4.552  16.438  0.4782 -0.2852  0.3532
19133TIP3    H178890   1.818   4.466  16.404  1.3702 -0.2923 -0.3363
19133TIP3    H278891   1.886   4.532  16.522 -0.5798 -0.3772  0.8880
19134TIP3   OH278892   6.206   3.356  12.118 -0.2319 -0.1186 -0.5395
19134TIP3    H178893   6.118   3.339  12.087 -0.4970 -0.7958  0.5080
19134TIP3    H278894   6.218   3.295  12.191  1.2184 -0.2688 -0.8631
19135TIP3   OH278895   6.324   5.681   5.334  0.1312 -0.4895 -0.3679
19135TIP3    H178896   6.374   5.642   5.406  0.0692 -1.2732 -0.7355
19135TIP3    H278897   6.338   5.775   5.343  0.9020 -0.6393  0.0958
19136TIP3   OH278898   3.844   6.165   3.474  0.3529 -0.1512 -0.1376
19136TIP3    H178899   3.825   6.074   3.450 -1.1265  0.9438 -3.8783
19136TIP3    H278900   3.895   6.199   3.400 -1.3994  2.7108 -0.1857
19137TIP3   OH278901   0.173   5.787  16.607 -0.1948 -0.7251  0.1616
19137TIP3    H178902   0.233   5.833  16.665  0.3173 -1.0226 -0.1199
19137TIP3    H278903   0.222   5.710  16.578 -0.6129 -0.8278 -0.2909
19138TIP3   OH278904   1.928   0.141  12.656  0.2757 -0.0757  0.4757
19138TIP3    H178905   1.836   0.168  12.656  0.6874  1.4128  1.2181
19138TIP3    H278906   1.970   0.201  12.594  1.3624  1.6326  2.7434
19139TIP3   OH278907   5.027   3.652  14.886  0.0674  0.1606 -0.2171
19139TIP3    H178908   4.967   3.590  14.844  0.5993  0.9840 -2.3152
19139TIP3    H278909   5.071   3.600  14.954 -0.2389 -1.4858 -1.2286
19140TIP3   OH278910   3.430   2.335  10.805  0.5206  0.2534 -0.3749
19140TIP3    H178911   3.454   2.248  10.838 -0.8317  0.4417  1.2445
19140TIP3    H278912   3.352   2.320  10.752  1.5755  0.2161 -1.9680
19141TIP3   OH278913   4.671   4.146   0.762 -0.1679 -0.2289  0.3652
19141TIP3    H178914   4.621   4.140   0.680 -0.6983 -1.7198  0.7684
19141TIP3    H278915   4.726   4.223   0.750 -1.0830  0.2682 -0.9239
19142TIP3   OH278916   4.909   2.760  13.279 -0.0074 -0.2172 -0.0291
19142TIP3    H178917   4.993   2.727  13.247  0.1830  0.9062 -0.7455
19142TIP3    H278918   4.890   2.835  13.223 -1.8079 -0.8213 -0.2995
19143TIP3   OH278919   0.084   2.581  12.095 -0.0013 -0.4219 -0.0988
19143TIP3    H178920   0.098   2.585  12.189 -0.1770  0.0314 -0.0909
19143TIP3    H278921  -0.007   2.610  12.083  0.2599  0.2687 -0.4701
19144TIP3   OH278922   1.221   0.715   2.301 -0.3387  0.4367 -0.7445
19144TIP3    H178923   1.276   0.690   2.227  1.3770  0.5825  0.4301
19144TIP3    H278924   1.215   0.811   2.294 -0.7451  0.3959 -1.0461
19145TIP3   OH278925   2.866   5.696   3.180 -0.0653 -0.6313 -0.6699
19145TIP3    H178926   2.901   5.714   3.267 -0.8857 -3.3664  0.3163
19145TIP3    H278927   2.905   5.763   3.124  1.2753  0.5941  1.5967
19146TIP3   OH278928   1.843   5.672   1.183  0.4449  0.2431  0.3152
19146TIP3    H178929   1.906   5.623   1.236  0.0158 -1.4380 -0.6516
19146TIP3    H278930   1.774   5.609   1.164  0.0061  1.1357 -1.2208
19147TIP3   OH278931   4.860   0.462  14.322  0.0236 -0.0758 -0.4653
19147TIP3    H178932   4.929   0.513  14.365  0.2919  0.3408 -1.3615
19147TIP3    H278933   4.886   0.371  14.333 -0.5182 -0.0619  1.2605
19148TIP3   OH278934   1.929   6.159   5.837 -0.2416 -0.3643 -0.3400
19148TIP3    H178935   1.953   6.086   5.893  0.4144 -0.5794 -0.8962
19148TIP3    H278936   1.852   6.128   5.789 -0.5643 -0.3226  0.1483
19149TIP3   OH278937   4.434   3.335  13.432  0.4007 -0.0028 -0.0580
19149TIP3    H178938   4.487   3.300  13.360 -0.0080  1.0007 -0.8735
19149TIP3    H278939   4.456   3.428  13.435 -1.8302  0.6317 -0.9381
19150TIP3   OH278940   5.086   3.223   3.712 -0.1634  0.5346  0.0838
19150TIP3    H178941   5.119   3.287   3.650 -1.2537  3.1907  2.0244
19150TIP3    H278942   4.992   3.219   3.695 -0.4203  1.0203  1.2664
19151TIP3   OH278943   4.418   3.739  15.949  0.4592 -0.1936 -0.1702
19151TIP3    H178944   4.361   3.744  15.871  0.3859 -0.2837 -0.1227
19151TIP3    H278945   4.357   3.725  16.022  0.6504 -2.1006 -0.3261
19152TIP3   OH278946   1.155   6.770   1.994  0.5526  0.6051 -0.2343
19152TIP3    H178947   1.130   6.723   1.914  0.2164 -1.3679  0.9620
19152TIP3    H278948   1.102   6.849   1.993 -0.2088  0.1112 -1.4434
19153TIP3   OH278949   2.974   1.572   1.310 -0.4261  0.5881  0.1318
19153TIP3    H178950   2.992   1.505   1.244 -1.2766 -0.7690  1.2182
19153TIP3    H278951   3.057   1.584   1.355 -0.8156 -1.8147  1.7133
19154TIP3   OH278952   5.018   3.048  13.651 -0.0963  0.7493  0.3920
19154TIP3    H178953   4.963   3.064  13.727  0.1858 -0.8875  1.0016
19154TIP3    H278954   5.026   2.952  13.647  0.4258  0.8230 -1.3217
19155TIP3   OH278955   2.635   6.676   2.324 -0.4651 -0.6653  0.0847
19155TIP3    H178956   2.549   6.715   2.341 -0.9009 -1.8186  0.6127
19155TIP3    H278957   2.621   6.582   2.335  0.3789 -1.0723 -1.8744
19156TIP3   OH278958   0.547   2.028   4.965  0.2039 -0.1970 -0.2808
19156TIP3    H178959   0.559   2.107   5.018  1.6408  0.1508 -1.0922
19156TIP3    H278960   0.455   2.032   4.938  0.1585  1.0225 -0.0254
19157TIP3   OH278961   2.454   0.889  11.284 -0.4342  0.1052  0.1289
19157TIP3    H178962   2.405   0.812  11.255 -1.6990  0.7469  0.4869
19157TIP3    H278963   2.455   0.882  11.380  2.9127 -1.5170  0.1055
19158TIP3   OH278964   6.730   3.941   2.281 -0.3173  0.2871 -0.2391
19158TIP3    H178965   6.804   4.002   2.273 -0.2522  0.0168 -2.2514
19158TIP3    H278966   6.757   3.879   2.349  0.6197  1.1246  0.1771
19159TIP3   OH278967   3.861   5.126  16.909  0.0349 -0.2648 -0.2243
19159TIP3    H178968   3.918   5.113  16.834  1.8553  2.7286  0.4802
19159TIP3    H278969   3.914   5.103  16.985  0.6167  2.9378  0.4677
19160TIP3   OH278970   5.371   3.025  16.858  0.7805 -0.5494  0.2321
19160TIP3    H178971   5.358   3.049  16.766 -1.3299  1.3903  0.9403
19160TIP3    H278972   5.374   3.109  16.904  1.8785 -1.4831  1.9600
19161TIP3   OH278973   3.295   3.943  11.789  0.8129 -0.5960 -0.1241
19161TIP3    H178974   3.255   3.937  11.702 -2.4760  0.3566  1.1957
19161TIP3    H278975   3.286   3.855  11.826  0.8806 -0.6319 -0.1914
19162TIP3   OH278976   1.230   1.476  16.369 -0.1497 -0.2549 -0.4918
19162TIP3    H178977   1.136   1.458  16.373 -0.0516 -0.6715  0.0113
19162TIP3    H278978   1.256   1.491  16.460  0.5047 -1.3932 -0.4684
19163TIP3   OH278979   3.150   4.243   1.232 -0.1257 -0.5059 -0.0342
19163TIP3    H178980   3.200   4.267   1.310  0.8249 -3.0874  0.2554
19163TIP3    H278981   3.202   4.278   1.159 -1.2242  2.2764  0.4062
19164TIP3   OH278982   5.762   4.751   6.103 -0.9571 -0.7343 -0.3500
19164TIP3    H178983   5.742   4.845   6.104 -1.1460 -0.7745  0.4574
19164TIP3    H278984   5.852   4.746   6.071 -0.5980 -0.1963  0.5410
19165TIP3   OH278985   1.101   1.006   2.070 -0.3821 -0.3862 -0.5713
19165TIP3    H178986   1.007   1.012   2.086 -0.4054 -1.8014  0.0188
19165TIP3    H278987   1.140   1.066   2.133 -0.8920  0.6558 -1.2096
19166TIP3   OH278988   4.276   4.054  12.511  0.5093 -0.4962  0.0053
19166TIP3    H178989   4.284   4.049  12.416 -0.1946  1.8317 -0.2490
19166TIP3    H278990   4.240   3.969  12.537  1.7256 -1.5721 -1.6462
19167TIP3   OH278991   5.126   5.663   3.101  0.1781 -0.1051  0.9505
19167TIP3    H178992   5.113   5.699   3.013  3.2494  0.6541  0.6985
19167TIP3    H278993   5.063   5.591   3.106 -1.0914  0.7234 -1.2991
19168TIP3   OH278994   3.069   1.414  16.410 -0.4501  0.7340  0.0293
19168TIP3    H178995   3.063   1.361  16.331  1.8183 -1.1236  0.9856
19168TIP3    H278996   2.985   1.403  16.453 -0.5076 -1.0727 -0.4658
19169TIP3   OH278997   0.864   3.418  12.100  0.9083 -0.0554 -0.0222
19169TIP3    H178998   0.887   3.511  12.104  1.0476 -0.0259 -1.1367
19169TIP3    H278999   0.856   3.400  12.006  0.1313 -0.9855  0.2085
19170TIP3   OH279000   0.784   5.673   0.608  0.1811 -0.2608  0.5884
19170TIP3    H179001   0.720   5.611   0.573  0.3236 -0.0467 -0.0644
19170TIP3    H279002   0.774   5.666   0.703  0.0350 -1.1123  0.5221
19171TIP3   OH279003   6.337   4.565  11.219 -0.6253  0.2856 -0.0353
19171TIP3    H179004   6.314   4.645  11.267  0.7890  0.8600 -0.2645
19171TIP3    H279005   6.267   4.504  11.240 -1.4051  1.3733  0.6653
19172TIP3   OH279006   4.755   0.996  10.771 -0.0409  0.0586  0.8382
19172TIP3    H179007   4.708   0.989  10.688 -0.2753  1.0984  0.8673
19172TIP3    H279008   4.793   1.083  10.770 -1.2196  0.6583  2.4198
19173TIP3   OH279009   3.644   3.478   4.828 -0.3247  0.5931 -0.6553
19173TIP3    H179010   3.734   3.449   4.846 -0.3301  1.0059  0.0960
19173TIP3    H279011   3.649   3.573   4.831 -0.4754  0.6661 -2.2574
19174TIP3   OH279012   5.879   0.878   2.847  0.1309  0.6281 -0.2615
19174TIP3    H179013   5.902   0.968   2.825  0.8509  0.7141  0.7844
19174TIP3    H279014   5.858   0.881   2.940 -0.1578 -0.2319 -0.2936
19175TIP3   OH279015   1.307   4.952  15.084 -0.1883 -0.4577 -0.3008
19175TIP3    H179016   1.254   5.009  15.139 -0.5452 -0.3986 -0.6954
19175TIP3    H279017   1.375   5.009  15.048  0.3809 -0.6136  0.5052
19176TIP3   OH279018   6.735   1.148  15.587  0.4934 -0.2276 -0.2511
19176TIP3    H179019   6.761   1.198  15.664  4.0404 -2.9231  0.5131
19176TIP3    H279020   6.751   1.207  15.514  0.4693  1.1717  0.8309
19177TIP3   OH279021   3.495   5.962  14.621  0.1502  0.2092 -0.0023
19177TIP3    H179022   3.400   5.965  14.632 -0.0151 -0.9320 -0.9803
19177TIP3    H279023   3.529   6.018  14.691 -1.3199  2.3559 -0.9016
19178TIP3   OH279024   3.679   5.254  12.538 -0.5470 -0.4871 -0.0262
19178TIP3    H179025   3.645   5.344  12.543 -1.4084 -0.7656 -0.6364
19178TIP3    H279026   3.683   5.224  12.628 -0.5009  0.0794  0.1632
19179TIP3   OH279027   1.952   2.478  16.418 -0.5932  0.3411  0.4105
19179TIP3    H179028   2.031   2.523  16.388  0.3089  0.2037  2.4198
19179TIP3    H279029   1.882   2.512  16.362  0.6915  1.2943 -0.6853
19180TIP3   OH279030   1.410   1.292  12.715 -0.6410 -0.3059  0.2333
19180TIP3    H179031   1.462   1.344  12.654 -0.3863 -1.7283 -0.8238
19180TIP3    H279032   1.423   1.334  12.800 -1.0628  1.7751 -0.6755
19181TIP3   OH279033   4.026   5.815   6.027  0.2574 -0.2579  0.2551
19181TIP3    H179034   3.978   5.898   6.036 -0.4072 -0.4913 -0.9753
19181TIP3    H279035   4.095   5.833   5.964  0.5885 -0.4483  0.5576
19182TIP3   OH279036   0.454   4.985  11.309  0.0254  0.0960 -0.1717
19182TIP3    H179037   0.464   4.891  11.293  1.2290  0.2777 -0.5431
19182TIP3    H279038   0.515   5.004  11.379  1.9130  1.0938 -1.9681
19183TIP3   OH279039   4.723   1.350  15.885 -0.0181  0.3538 -0.2254
19183TIP3    H179040   4.748   1.270  15.839 -2.7274 -1.3711  1.0224
19183TIP3    H279041   4.773   1.348  15.966  0.0347  0.0039 -0.2651
19184TIP3   OH279042   0.928   1.317   0.676 -0.0735 -0.6078 -0.8918
19184TIP3    H179043   0.960   1.240   0.628  2.9548  1.0324 -1.7609
19184TIP3    H279044   0.920   1.385   0.609 -1.3637  0.2478  0.0784
19185TIP3   OH279045   0.087   1.703   1.831 -0.6121  0.2822  0.0392
19185TIP3    H179046   0.087   1.607   1.824  1.0794  0.3211 -1.3325
19185TIP3    H279047   0.008   1.730   1.785 -0.8243 -0.4338 -0.0415
19186TIP3   OH279048   6.180   1.594   5.452 -0.5342  0.4587 -0.5766
19186TIP3    H179049   6.143   1.668   5.405  0.0012  1.5622  0.6763
19186TIP3    H279050   6.203   1.531   5.383 -0.1159  1.8530 -1.7650
19187TIP3   OH279051   6.773   5.965   1.942  0.0761 -0.0509  0.2214
19187TIP3    H179052   6.683   5.956   1.911 -0.6284  0.5980  1.9362
19187TIP3    H279053   6.802   6.048   1.905 -0.1403 -0.1217 -0.1101
19188TIP3   OH279054   3.942   3.822  14.751 -0.0705  0.5896 -0.1783
19188TIP3    H179055   4.031   3.786  14.760  0.3153  1.7997  1.4697
19188TIP3    H279056   3.952   3.899  14.695  0.0370  1.0252  0.4261
19189TIP3   OH279057   0.952   3.252  15.447 -0.0018 -0.1412  0.4772
19189TIP3    H179058   1.011   3.316  15.488  0.3810 -0.9032  1.1327
19189TIP3    H279059   1.010   3.186  15.411 -0.3951 -0.0617 -0.3184
19190TIP3   OH279060   5.867   1.517   2.592  0.6865  0.0453  0.2430
19190TIP3    H179061   5.824   1.523   2.678 -0.4777 -2.3745 -0.0859
19190TIP3    H279062   5.803   1.552   2.531  0.9233  0.3818  0.1826
19191TIP3   OH279063   5.037   5.879  16.103  0.4026 -0.7926  0.2079
19191TIP3    H179064   5.108   5.884  16.168 -0.1282 -1.5450  0.8817
19191TIP3    H279065   4.967   5.832  16.149 -0.7646  0.4579 -0.2405
19192TIP3   OH279066   6.255   0.156   6.127  0.2409 -0.7368 -0.8738
19192TIP3    H179067   6.313   0.080   6.127  1.0213 -0.2368  1.4056
19192TIP3    H279068   6.288   0.210   6.199 -1.9224  0.4646 -0.7165
19193TIP3   OH279069   6.771   4.552  11.575  0.0369 -0.1536  0.0440
19193TIP3    H179070   6.698   4.540  11.514  1.0373 -2.3578 -0.8198
19193TIP3    H279071   6.747   4.629  11.627 -2.4228 -0.2359 -0.8658
19194TIP3   OH279072   4.342   0.839  15.585  0.2800 -0.1167  0.3227
19194TIP3    H179073   4.335   0.861  15.678  1.0109  2.2773 -0.1250
19194TIP3    H279074   4.286   0.902  15.541 -0.5144 -1.5904 -0.8634
19195TIP3   OH279075   1.377   1.513   1.679 -0.0058  0.5069 -0.3513
19195TIP3    H179076   1.455   1.482   1.725 -0.1953 -1.1336 -1.0584
19195TIP3    H279077   1.411   1.558   1.602  0.2586  1.0680  0.0867
19196TIP3   OH279078   3.788   5.674   0.428 -0.0777  0.1240  0.3608
19196TIP3    H179079   3.730   5.624   0.370 -0.1779 -0.5690  1.0465
19196TIP3    H279080   3.827   5.740   0.371 -0.6226 -0.1704 -0.3720
19197TIP3   OH279081   5.908   5.784  15.858  0.1198  0.0710  0.0174
19197TIP3    H179082   5.949   5.869  15.847  1.1613 -0.6295 -2.1251
19197TIP3    H279083   5.888   5.755  15.768 -2.1423 -1.0367  0.7972
19198TIP3   OH279084   3.808   6.029   5.672  0.3159  0.1558  0.1545
19198TIP3    H179085   3.790   6.081   5.750  0.7774 -1.0806  1.1308
19198TIP3    H279086   3.815   5.939   5.705 -2.0483 -0.7906 -1.6821
19199TIP3   OH279087   5.372   1.831   6.706  0.5621 -0.4177  0.1801
19199TIP3    H179088   5.289   1.840   6.752  1.2916  1.6188  1.2171
19199TIP3    H279089   5.403   1.743   6.730  0.3347  0.1075  2.6798
19200TIP3   OH279090   3.007   1.364   5.269  0.5909  0.0652  0.2084
19200TIP3    H179091   3.067   1.312   5.322  0.2953 -0.3600  0.1301
19200TIP3    H279092   2.966   1.301   5.209 -0.2299  0.2713  0.5304
19201TIP3   OH279093   6.033   6.708   0.225  0.6173 -0.1583  0.0345
19201TIP3    H179094   5.947   6.666   0.231  1.4095 -1.6858  1.8370
19201TIP3    H279095   6.019   6.796   0.259 -0.5905  0.2975 -1.5214
19202TIP3   OH279096   6.258   2.671   3.165 -0.7412 -0.0617 -0.1156
19202TIP3    H179097   6.332   2.622   3.129  0.3822 -0.7886  2.8316
19202TIP3    H279098   6.189   2.606   3.176 -0.3163 -0.3592  0.9565
19203TIP3   OH279099   4.374   3.468  10.831 -0.1027 -0.1563  0.4169
19203TIP3    H179100   4.305   3.461  10.896  1.5916  0.7177  2.4420
19203TIP3    H279101   4.438   3.401  10.855  0.0681 -0.5564 -1.0342
19204TIP3   OH279102   2.965   1.979  16.231  0.3356  0.5584  0.8261
19204TIP3    H179103   2.881   1.946  16.201 -0.2148  0.7941  2.0256
19204TIP3    H279104   2.981   2.056  16.177 -0.9022  1.3066  1.4688
19205TIP3   OH279105   5.089   6.266   6.239 -0.0918 -0.4705 -0.1517
19205TIP3    H179106   5.155   6.324   6.201 -0.5492 -0.2514 -0.6198
19205TIP3    H279107   5.115   6.178   6.210  0.3955 -0.4690  0.2593
19206TIP3   OH279108   4.478   4.809  13.782 -0.2322  0.1414 -0.6952
19206TIP3    H179109   4.438   4.737  13.830 -0.9811  0.2405 -1.1578
19206TIP3    H279110   4.572   4.794  13.790 -0.3214  0.4227  1.1824
19207TIP3   OH279111   5.488   2.943   5.138 -0.2914  0.3088  0.1079
19207TIP3    H179112   5.482   2.861   5.089  1.8576  0.3564 -0.3462
19207TIP3    H279113   5.474   2.918   5.229 -1.2356 -0.2872 -0.1878
19208TIP3   OH279114   1.988   3.026   3.232 -0.8532  0.2280  0.0751
19208TIP3    H179115   2.064   2.969   3.235 -0.9652  0.1207  1.2649
19208TIP3    H279116   2.022   3.113   3.252 -1.0590  0.1569  0.7494
19209TIP3   OH279117   1.814   0.276  15.238  0.0620  0.2536 -0.2494
19209TIP3    H179118   1.903   0.304  15.214  0.1859 -0.6159 -0.8413
19209TIP3    H279119   1.804   0.305  15.328  1.0598  0.0976 -0.0721
19210TIP3   OH279120   2.909   1.400   4.522 -0.1350 -0.1800 -0.5978
19210TIP3    H179121   2.855   1.457   4.576 -1.0032 -0.5214 -1.0753
19210TIP3    H279122   2.952   1.341   4.584 -0.6875 -0.2067 -0.2325
19211TIP3   OH279123   5.227   3.889  16.773  0.2706 -0.4781 -0.6204
19211TIP3    H179124   5.277   3.846  16.843  0.3352  0.9805  0.2797
19211TIP3    H279125   5.237   3.983  16.791 -2.0648 -0.1238 -0.9303
19212TIP3   OH279126   4.797   3.588   0.732 -0.2555 -0.2100 -0.3413
19212TIP3    H179127   4.796   3.617   0.823  0.6403  0.1518 -0.4408
19212TIP3    H279128   4.716   3.624   0.695 -1.1561 -1.2508  0.5706
19213TIP3   OH279129   4.950   2.371   6.339 -0.3731 -0.1163 -0.6915
19213TIP3    H179130   4.914   2.445   6.387 -0.9217 -0.9149  0.1775
19213TIP3    H279131   5.025   2.407   6.292 -0.9950  1.1107 -0.7887
19214TIP3   OH279132   0.794   1.373  13.724 -0.4549  0.5517  0.2606
19214TIP3    H179133   0.856   1.321  13.673 -0.0344 -1.0112  2.2233
19214TIP3    H279134   0.838   1.457  13.737  1.4990 -0.6626  1.9493
19215TIP3   OH279135   5.298   5.430   1.728 -0.2930  0.6847 -0.2384
19215TIP3    H179136   5.338   5.456   1.812 -0.9051 -2.1371  1.0220
19215TIP3    H279137   5.372   5.397   1.676 -0.0363  1.7041 -0.5528
19216TIP3   OH279138   5.021   6.227  14.660  0.3057  0.8176 -0.0198
19216TIP3    H179139   4.994   6.136  14.648  0.1395  1.0192 -1.3160
19216TIP3    H279140   4.943   6.279  14.638  0.6559  1.2949 -0.1577
19217TIP3   OH279141   0.358   0.805  12.594 -0.4318 -0.2578 -0.0430
19217TIP3    H179142   0.444   0.761  12.590 -0.1405  0.0483  1.9271
19217TIP3    H279143   0.379   0.898  12.587 -0.7004 -0.2337 -0.5239
19218TIP3   OH279144   4.454   2.387  16.022 -0.6097 -0.4564 -0.4281
19218TIP3    H179145   4.517   2.316  16.008  0.5214  0.5473 -0.5880
19218TIP3    H279146   4.383   2.369  15.960 -1.0115 -2.1575  0.4475
19219TIP3   OH279147   6.616   0.663  14.764 -0.0500 -0.3048 -0.2432
19219TIP3    H179148   6.695   0.700  14.804 -0.6358  0.2929  0.3635
19219TIP3    H279149   6.623   0.569  14.780 -0.3254 -0.0669  1.3652
19220TIP3   OH279150   3.271   4.742   6.321 -0.2106 -0.2689 -0.9483
19220TIP3    H179151   3.285   4.719   6.229 -0.4664 -1.2352 -0.7540
19220TIP3    H279152   3.276   4.838   6.322  2.6710 -0.3152 -1.4895
19221TIP3   OH279153   3.276   3.443  14.670  0.9132 -0.3514 -0.2870
19221TIP3    H179154   3.230   3.485  14.597 -0.8398  0.2898  1.1063
19221TIP3    H279155   3.213   3.379  14.703  2.1893 -1.5535 -0.1253
19222TIP3   OH279156   1.268   3.511   1.907  0.0294  0.9336  0.0183
19222TIP3    H179157   1.208   3.483   1.977 -0.3522  0.3093 -0.5478
19222TIP3    H279158   1.327   3.572   1.950  0.3880 -0.1425  1.1129
19223TIP3   OH279159   5.318   2.390   1.160  0.4289  0.0304  0.1441
19223TIP3    H179160   5.315   2.297   1.182  1.4636 -0.2869 -0.9338
19223TIP3    H279161   5.356   2.432   1.238  1.1079 -0.6338  0.1844
19224TIP3   OH279162   4.177   5.533   0.476  0.6656  0.4429  0.4940
19224TIP3    H179163   4.100   5.488   0.441  0.4529  0.0085  1.4689
19224TIP3    H279164   4.160   5.626   0.460 -0.2088  0.3782  0.9318
19225TIP3   OH279165   2.663   0.278   6.631  0.5871  0.3345  0.5032
19225TIP3    H179166   2.706   0.232   6.704  0.3622 -1.9624 -0.7187
19225TIP3    H279167   2.731   0.288   6.565  0.3911  0.9120  0.3875
19226TIP3   OH279168   0.532   0.985   3.055  0.1619  0.1301  0.1568
19226TIP3    H179169   0.450   0.985   3.005  1.4736 -0.7684 -2.1104
19226TIP3    H279170   0.509   1.028   3.138 -2.4412  0.4267 -0.6291
19227TIP3   OH279171   5.358   4.314  11.853 -0.0993  0.4356 -0.3895
19227TIP3    H179172   5.414   4.296  11.777  0.6384  1.8127 -0.2105
19227TIP3    H279173   5.291   4.373  11.820  0.5608  1.5049  0.1221
19228TIP3   OH279174   3.856   2.028  10.661  0.2340 -0.2593  0.2481
19228TIP3    H179175   3.835   2.101  10.720  0.5802  1.9753 -2.2053
19228TIP3    H279176   3.780   1.970  10.666 -0.9473  1.2798  0.8253
19229TIP3   OH279177   6.018   2.646   3.658  0.2672 -0.7423 -0.0609
19229TIP3    H179178   6.063   2.563   3.642 -0.4417 -0.9987 -0.7705
19229TIP3    H279179   5.931   2.620   3.687  0.4857 -0.2468  1.0902
19230TIP3   OH279180   4.767   3.416  16.958 -0.3265 -0.1392 -0.3159
19230TIP3    H179181   4.778   3.483  17.025 -0.3128  0.3113 -0.7659
19230TIP3    H279182   4.785   3.461  16.875  0.7377 -0.9463 -0.5401
19231TIP3   OH279183   2.586   5.932   3.603 -0.1378 -0.3399  0.0479
19231TIP3    H179184   2.511   5.878   3.577 -0.9989  0.5206  0.6789
19231TIP3    H279185   2.638   5.941   3.523 -1.7656  0.7259 -0.9628
19232TIP3   OH279186   2.179   1.951   2.333 -0.1807  0.0496 -0.2540
19232TIP3    H179187   2.264   1.991   2.316 -0.1581  0.2420  0.2908
19232TIP3    H279188   2.177   1.939   2.428 -1.3464  1.3843 -0.0796
19233TIP3   OH279189   5.461   5.274  15.522  0.0053  0.3491  0.1941
19233TIP3    H179190   5.547   5.238  15.543  0.8108  1.7076 -0.5774
19233TIP3    H279191   5.481   5.357  15.478 -1.7093  1.7988  1.9368
19234TIP3   OH279192   3.178   3.532  14.426  0.1293 -0.0031 -0.3568
19234TIP3    H179193   3.171   3.586  14.347  0.0952 -1.5048 -1.4217
19234TIP3    H279194   3.098   3.481  14.427 -0.1068  0.3630  0.9596
19235TIP3   OH279195   4.984   1.682  13.318  0.2485 -0.8680 -0.0629
19235TIP3    H179196   4.916   1.734  13.360 -0.1422 -1.0662 -0.4505
19235TIP3    H279197   5.066   1.725  13.344  0.0577 -1.3225  1.3685
19236TIP3   OH279198   0.736   2.503   2.637 -0.0033 -0.3286 -0.2204
19236TIP3    H179199   0.666   2.554   2.596  1.4433 -0.3740 -3.0038
19236TIP3    H279200   0.776   2.564   2.699 -0.1690  0.9717 -1.3394
19237TIP3   OH279201   0.747   1.513  14.075  0.2705  0.3133  0.2977
19237TIP3    H179202   0.789   1.599  14.063  1.2217 -0.4761 -2.9950
19237TIP3    H279203   0.655   1.533  14.088  0.2543  1.8563 -1.7456
19238TIP3   OH279204   5.176   4.069  13.007 -0.2859  0.2263  0.6478
19238TIP3    H179205   5.268   4.061  13.033  0.3498  0.8340 -1.2393
19238TIP3    H279206   5.161   4.163  13.000 -0.8216  0.1114  0.1899
19239TIP3   OH279207   0.014   3.227   0.040  0.1410  0.6597  0.1058
19239TIP3    H179208  -0.004   3.140   0.076  2.8972 -0.4558 -0.8671
19239TIP3    H279209  -0.038   3.231  -0.040  0.0348 -0.1239  0.1260
19240TIP3   OH279210   3.846   5.507   1.495  0.6526  0.0016 -0.0545
19240TIP3    H179211   3.857   5.542   1.583 -1.3759  2.7379 -0.7390
19240TIP3    H279212   3.815   5.418   1.508  1.0716  0.1154  1.9780
19241TIP3   OH279213   2.897   2.162   2.057  0.2711  0.1492 -0.0033
19241TIP3    H179214   2.862   2.219   1.989  0.0817 -0.6422 -0.5876
19241TIP3    H279215   2.919   2.081   2.011  0.1208 -0.4053  0.8832
19242TIP3   OH279216   1.844   3.098  14.711 -0.0891  0.1904  0.0722
19242TIP3    H179217   1.844   3.155  14.788 -0.1899  1.0866 -0.5711
19242TIP3    H279218   1.834   3.010  14.746 -0.8860  0.6508  1.0490
19243TIP3   OH279219   1.906   0.122  14.173  0.6052 -0.0068  0.5905
19243TIP3    H179220   1.895   0.216  14.185 -1.1003 -0.4234  3.4929
19243TIP3    H279221   1.957   0.113  14.093  0.0867  3.3274 -0.2617
19244TIP3   OH279222   3.021   2.173   5.132  0.0264  0.4550 -0.5039
19244TIP3    H179223   2.950   2.237   5.129 -0.0368  0.4693  0.7318
19244TIP3    H279224   2.978   2.090   5.111 -0.4246  0.4349  0.4052
19245TIP3   OH279225   6.365   1.524   3.986  0.4743  0.0833 -0.1462
19245TIP3    H179226   6.350   1.431   3.969  1.4595 -0.1899  0.4261
19245TIP3    H279227   6.277   1.560   3.998  0.0704 -0.7302 -0.5352
19246TIP3   OH279228   2.923   0.558  16.715 -0.4587 -0.6568 -0.3280
19246TIP3    H179229   2.958   0.607  16.789  0.5589 -0.7201 -0.7585
19246TIP3    H279230   2.881   0.624  16.660  0.7815 -0.2816 -0.8354
19247TIP3   OH279231   6.063   5.097   5.216 -0.5485  0.4149 -0.3375
19247TIP3    H179232   5.980   5.136   5.241 -0.8588 -1.1520  1.2750
19247TIP3    H279233   6.067   5.107   5.121 -2.0845  1.4257 -0.3188
19248TIP3   OH279234   2.787   2.969   4.697  0.0228  0.5563 -0.0248
19248TIP3    H179235   2.795   2.985   4.791 -0.5154  1.1100 -0.0645
19248TIP3    H279236   2.821   2.881   4.685 -0.3880  0.2724  0.7705
19249TIP3   OH279237   1.692   5.899  11.135  0.3389  0.0823 -0.1996
19249TIP3    H179238   1.781   5.865  11.141  0.4179  0.3228  0.0028
19249TIP3    H279239   1.696   5.966  11.068 -0.0779 -1.1158 -1.4770
19250TIP3   OH279240   3.892   3.287  15.340  0.6575  0.5131 -0.2063
19250TIP3    H179241   3.903   3.371  15.296  0.7850 -0.0700 -1.3427
19250TIP3    H279242   3.832   3.239  15.283  0.5552 -0.1500  0.4490
19251TIP3   OH279243   6.553   5.385   2.701  0.0676  0.4920  0.3450
19251TIP3    H179244   6.621   5.321   2.683  0.1352  0.2922  1.2509
19251TIP3    H279245   6.475   5.332   2.717 -0.4221  0.7287 -1.0677
19252TIP3   OH279246   1.407   0.932  16.589  0.2375  0.0528 -0.7284
19252TIP3    H179247   1.353   0.934  16.669  0.6218  0.5245 -0.4751
19252TIP3    H279248   1.370   1.002  16.535  2.0625  2.0361  0.4330
19253TIP3   OH279249   5.580   3.674  16.773 -0.1055 -0.0015  0.5559
19253TIP3    H179250   5.624   3.755  16.801 -1.1877  1.1581 -0.9800
19253TIP3    H279251   5.604   3.664  16.681  1.2701 -2.3269  1.0983
19254TIP3   OH279252   3.675   0.594   2.257 -0.2948 -0.3278  0.3853
19254TIP3    H179253   3.590   0.614   2.297 -0.2454 -0.2393  0.4435
19254TIP3    H279254   3.678   0.498   2.256 -0.9511 -0.3543 -0.7671
19255TIP3   OH279255   2.207   1.659   1.237  0.4936  0.2736  0.3811
19255TIP3    H179256   2.270   1.626   1.300 -0.7481  0.5096  1.7975
19255TIP3    H279257   2.255   1.725   1.187  1.9094 -0.9380  0.0684
19256TIP3   OH279258   4.471   6.804  12.455 -0.3697  0.3804 -0.1294
19256TIP3    H179259   4.510   6.746  12.390  0.9034  0.7539  0.2763
19256TIP3    H279260   4.378   6.783  12.453 -0.2550 -0.0950 -1.5724
19257TIP3   OH279261   2.569   3.331   4.117 -1.2884  0.6917  0.3545
19257TIP3    H179262   2.589   3.380   4.037  0.4046 -1.3657 -0.6051
19257TIP3    H279263   2.643   3.348   4.175 -0.1233 -1.3875 -0.4020
19258TIP3   OH279264   1.712   5.606   5.677  0.2469 -0.0142  0.6377
19258TIP3    H179265   1.725   5.639   5.766 -0.2175  2.0283  0.0161
19258TIP3    H279266   1.765   5.527   5.672  1.1107  0.4158  2.4141
19259TIP3   OH279267   0.660   1.777   0.495  0.1843 -0.4346  0.2477
19259TIP3    H179268   0.698   1.808   0.413 -1.2380 -0.9098 -0.6367
19259TIP3    H279269   0.727   1.795   0.561  1.7308 -0.8296 -1.1385
19260TIP3   OH279270   1.450   1.645   5.585  0.1326  0.2052 -0.4592
19260TIP3    H179271   1.393   1.634   5.510  0.0266  0.4639 -0.4181
19260TIP3    H279272   1.410   1.716   5.636  0.0181 -0.1982  0.0154
19261TIP3   OH279273   5.401   3.053  11.915  0.2878 -0.0387 -0.2397
19261TIP3    H179274   5.320   3.034  11.962  0.3795 -0.3710 -0.2076
19261TIP3    H279275   5.470   3.012  11.968  0.6164  1.1913  0.3247
19262TIP3   OH279276   0.747   5.486  13.760 -0.6007  1.1556  0.6104
19262TIP3    H179277   0.768   5.425  13.689 -0.8622  0.8300  0.8070
19262TIP3    H279278   0.781   5.444  13.839 -1.5556  0.8259  0.8712
19263TIP3   OH279279   4.765   4.764  13.469  0.1660 -0.1347  0.1951
19263TIP3    H179280   4.778   4.859  13.475 -0.5070  0.1181 -1.7970
19263TIP3    H279281   4.837   4.727  13.521  1.7621  1.4217 -0.7864
19264TIP3   OH279282   0.564   5.363  11.551  0.4838  0.8373  0.0769
19264TIP3    H179283   0.620   5.440  11.544  0.6826  1.2849  4.2326
19264TIP3    H279284   0.489   5.392  11.603 -0.1735 -1.3707  0.4883
19265TIP3   OH279285   6.536   5.316   2.200 -0.1940  0.3009 -0.2530
19265TIP3    H179286   6.527   5.411   2.189 -2.3265  0.2114  0.1633
19265TIP3    H279287   6.449   5.288   2.229  1.0241 -1.4724  1.9808
19266TIP3   OH279288   3.871   0.440  13.129  0.3918 -0.1979  0.7906
19266TIP3    H179289   3.903   0.526  13.103 -2.0378  0.5309 -0.1487
19266TIP3    H279290   3.925   0.415  13.203  2.6078  1.1285 -0.2786
19267TIP3   OH279291   0.755   3.200  14.486  0.4064 -0.2077 -0.2311
19267TIP3    H179292   0.702   3.169  14.412 -1.9302 -1.1685  1.6975
19267TIP3    H279293   0.692   3.243  14.544  2.2493  1.0106  0.9773
19268TIP3   OH279294   3.906   3.756  17.066 -0.5454  0.3759  0.1759
19268TIP3    H179295   3.865   3.714  17.141 -0.6891 -0.5832 -0.4186
19268TIP3    H279296   3.994   3.780  17.096 -0.6688  0.1751  0.7022
19269TIP3   OH279297   6.273   0.133  15.637  0.7011  0.2877 -0.2889
19269TIP3    H179298   6.275   0.043  15.671  0.2435  0.7988  1.1637
19269TIP3    H279299   6.211   0.130  15.565 -0.0051 -0.3838  0.3226
19270TIP3   OH279300   5.042   5.259  12.535  0.0304 -0.2581 -0.2740
19270TIP3    H179301   5.052   5.348  12.500  0.8684 -0.6945 -1.1888
19270TIP3    H279302   4.971   5.221  12.484 -1.0831  0.2303  0.8673
19271TIP3   OH279303   0.515   6.056   3.856  0.3921  0.0419  0.3023
19271TIP3    H179304   0.572   6.031   3.783 -0.8942  0.3572 -0.8450
19271TIP3    H279305   0.465   5.976   3.875  0.2352  0.1599  0.3795
19272TIP3   OH279306   0.434   1.201   0.915 -0.2709 -0.8762 -0.1250
19272TIP3    H179307   0.519   1.220   0.876 -0.4289  0.0918 -0.0183
19272TIP3    H279308   0.410   1.116   0.879  1.4667 -1.9588  1.0900
19273TIP3   OH279309   4.037   5.093   1.422 -0.7733 -0.5134 -0.5869
19273TIP3    H179310   4.094   5.017   1.436  0.7958  0.6361 -0.4323
19273TIP3    H279311   4.096   5.162   1.391 -1.6884  1.3954  1.6415
19274TIP3   OH279312   5.547   4.900   3.786 -0.1918 -0.0992  0.3481
19274TIP3    H179313   5.493   4.830   3.749  0.2175  0.4941 -1.5203
19274TIP3    H279314   5.537   4.891   3.881 -1.1523 -1.8717  0.1279
19275TIP3   OH279315   5.797   6.275   0.727  0.1156  0.3263 -0.0613
19275TIP3    H179316   5.754   6.350   0.686 -1.3707  0.2480  1.2609
19275TIP3    H279317   5.781   6.286   0.821  2.4582 -0.0848  0.4496
19276TIP3   OH279318   4.651   4.796  16.621 -0.1449  0.4818  0.5217
19276TIP3    H179319   4.637   4.783  16.715 -0.3221 -1.3518  0.2823
19276TIP3    H279320   4.740   4.765  16.605  1.1306  3.7399  0.5428
19277TIP3   OH279321   3.692   1.405   0.854  0.1141  0.0090 -0.6746
19277TIP3    H179322   3.762   1.381   0.793 -0.3825 -0.2794 -1.1349
19277TIP3    H279323   3.725   1.482   0.900  0.5242  0.1737 -1.2482
19278TIP3   OH279324   3.516   1.262  14.105  0.2935 -0.2870 -0.2059
19278TIP3    H179325   3.595   1.225  14.146  0.6595 -0.5613 -1.1112
19278TIP3    H279326   3.550   1.321  14.038 -0.2822 -0.2171 -0.4404
19279TIP3   OH279327   5.549   4.099   3.200  0.0619  0.6384  0.3302
19279TIP3    H179328   5.642   4.118   3.217 -0.0711 -0.2244  2.3759
19279TIP3    H279329   5.514   4.074   3.286 -2.0104  0.6628 -0.4517
19280TIP3   OH279330   5.002   2.625   4.254  0.0776  0.0513 -0.4248
19280TIP3    H179331   4.922   2.573   4.251  0.4191 -0.4836 -0.3904
19280TIP3    H279332   4.972   2.716   4.250 -0.8524  0.1159  3.4093
19281TIP3   OH279333   0.836   4.622  16.301 -0.1611  0.0394 -0.1628
19281TIP3    H179334   0.902   4.580  16.246 -0.6899  1.1137 -1.6867
19281TIP3    H279335   0.885   4.658  16.375  0.4292 -2.3262  0.6821
19282TIP3   OH279336   0.223   0.810   1.068 -0.3141 -0.2211  0.8613
19282TIP3    H179337   0.213   0.883   1.129  0.8486  0.9393 -0.2536
19282TIP3    H279338   0.305   0.768   1.094  0.7893  0.9657 -0.4941
19283TIP3   OH279339   2.541   1.188  15.855 -0.5119  0.1876 -0.0133
19283TIP3    H179340   2.467   1.248  15.847 -0.0636  0.7115 -0.4139
19283TIP3    H279341   2.575   1.204  15.943 -1.0092 -0.2195  0.2546
19284TIP3   OH279342   4.270   5.505  15.188 -0.1067 -0.5822  0.2613
19284TIP3    H179343   4.301   5.530  15.101 -2.8362 -1.6678 -1.1547
19284TIP3    H279344   4.310   5.420  15.204  1.3245  0.1355  0.6363
19285TIP3   OH279345   1.711   1.093  16.954 -0.7883 -0.5863 -0.3157
19285TIP3    H179346   1.698   1.074  16.861 -0.5699 -0.9118 -0.2820
19285TIP3    H279347   1.758   1.016  16.988 -0.9342 -0.5049  0.0797
19286TIP3   OH279348   1.863   3.635  12.596  0.2784 -0.0613  0.3917
19286TIP3    H179349   1.834   3.674  12.678  2.0492  1.1969  0.4610
19286TIP3    H279350   1.956   3.656  12.590  0.0839  0.3653 -2.2060
19287TIP3   OH279351   1.606   4.108  12.241 -0.0766  0.1553  0.0602
19287TIP3    H179352   1.673   4.056  12.285 -0.3269  0.2883  0.6061
19287TIP3    H279353   1.629   4.198  12.260  0.4940  0.2661 -1.0870
19288TIP3   OH279354   0.991   5.200  12.777 -0.4190  0.3776 -0.3652
19288TIP3    H179355   1.065   5.258  12.795 -0.8735  0.9974 -0.4688
19288TIP3    H279356   0.919   5.237  12.828 -0.4046 -0.8264  0.5921
19289TIP3   OH279357   1.485   1.993   1.671  0.7307 -0.4511  0.4611
19289TIP3    H179358   1.504   1.943   1.750  1.4375 -0.1674  0.4777
19289TIP3    H279359   1.534   2.075   1.682 -1.9203  1.1710  1.3725
19290TIP3   OH279360   2.283   6.256   3.697 -0.1611  0.2856 -0.2000
19290TIP3    H179361   2.210   6.269   3.757 -0.3099 -2.0320  0.2400
19290TIP3    H279362   2.358   6.238   3.755 -0.2417 -1.6964 -0.6404
19291TIP3   OH279363   2.096   6.763  12.600  0.4026  0.5906  1.2763
19291TIP3    H179364   2.163   6.807  12.652 -0.6014  0.9979  2.2828
19291TIP3    H279365   2.019   6.820  12.608 -0.4896 -0.5835  1.3654
19292TIP3   OH279366   0.133   5.624  15.642  0.6544 -0.0546 -0.3297
19292TIP3    H179367   0.146   5.704  15.693 -2.5956  0.9623 -0.8671
19292TIP3    H279368   0.140   5.553  15.707  0.5222  0.9021  0.7581
19293TIP3   OH279369   3.049   3.183  13.273  0.2869 -0.0648 -0.1493
19293TIP3    H179370   2.969   3.162  13.322  0.0253 -0.1630 -0.6132
19293TIP3    H279371   3.031   3.151  13.185  1.0679 -0.6360 -0.1144
19294TIP3   OH279372   3.922   0.674  11.109  0.4192 -0.5787  0.3209
19294TIP3    H179373   3.893   0.653  11.020 -1.8601 -1.6418  1.2260
19294TIP3    H279374   3.864   0.745  11.137  0.3818 -0.9758  1.3030
19295TIP3   OH279375   2.758   0.706   2.318  0.0542 -0.5498 -0.3825
19295TIP3    H179376   2.790   0.725   2.406  1.6974  0.7728 -1.2032
19295TIP3    H279377   2.663   0.707   2.326  0.1766 -0.5658  1.3954
19296TIP3   OH279378   2.077   5.810   1.103  0.2747 -0.0545 -0.7525
19296TIP3    H179379   1.995   5.764   1.122 -0.2749  1.4694  0.7897
19296TIP3    H279380   2.141   5.771   1.161 -0.3516  1.4866  1.0767
19297TIP3   OH279381   1.029   3.838   2.464  0.4461 -0.7268  0.1195
19297TIP3    H179382   1.001   3.829   2.373 -0.1632 -1.2886  0.3617
19297TIP3    H279383   0.979   3.772   2.512  1.3072 -0.9358  0.7506
19298TIP3   OH279384   1.318   0.417   0.391 -0.5043 -0.6734 -0.6449
19298TIP3    H179385   1.330   0.323   0.399  2.6653 -0.3346  0.0676
19298TIP3    H279386   1.260   0.441   0.463 -2.0776 -2.1364 -1.3751
19299TIP3   OH279387   0.087   0.354   2.326  0.0457  0.5103 -0.5974
19299TIP3    H179388   0.022   0.420   2.303 -0.3891  0.3963  0.2940
19299TIP3    H279389   0.134   0.391   2.401 -1.3902 -0.9208  1.0886
19300TIP3   OH279390   4.520   0.722   6.763  0.3453 -0.5708 -0.4380
19300TIP3    H179391   4.580   0.648   6.762  0.0224 -0.8352 -0.8422
19300TIP3    H279392   4.577   0.799   6.760  0.8736 -0.6192  3.5266
19301TIP3   OH279393   3.945   3.205   3.411 -0.3944  0.0030  0.0337
19301TIP3    H179394   3.880   3.253   3.463 -0.0923  2.0524 -1.3777
19301TIP3    H279395   3.910   3.204   3.322  1.2934  0.8088 -0.6783
19302TIP3   OH279396   4.742   3.174   5.893  0.6692  0.2119  0.3342
19302TIP3    H179397   4.802   3.206   5.825  1.3320  0.4054  0.9871
19302TIP3    H279398   4.683   3.115   5.847 -1.4484  3.2680 -1.1971
19303TIP3   OH279399   3.221   4.608  13.573 -0.0052 -0.7099  0.8829
19303TIP3    H179400   3.179   4.660  13.642  1.6873  2.1440 -0.0620
19303TIP3    H279401   3.291   4.561  13.618 -0.7156 -1.1564  1.5448
19304TIP3   OH279402   5.021   1.629  14.462  0.4304 -0.5895 -0.2068
19304TIP3    H179403   5.095   1.568  14.466 -0.3865 -1.5151  1.4295
19304TIP3    H279404   4.999   1.647  14.553 -0.6993  0.5061 -0.6708
19305TIP3   OH279405   0.386   2.758   5.888  0.1756  0.1923 -0.1732
19305TIP3    H179406   0.422   2.739   5.802 -0.6796  0.5252 -0.6164
19305TIP3    H279407   0.298   2.720   5.886 -0.3224  1.2846  0.1013
19306TIP3   OH279408   0.718   6.232   2.382 -0.4300 -0.2605  0.1566
19306TIP3    H179409   0.664   6.307   2.405  0.4755  0.4488  0.0169
19306TIP3    H279410   0.655   6.161   2.367 -1.2876  0.4251  0.4176
19307TIP3   OH279411   1.272   6.802   0.717 -0.4688 -0.3402 -0.4326
19307TIP3    H179412   1.335   6.747   0.671  0.3012 -0.0524  0.2409
19307TIP3    H279413   1.277   6.773   0.808 -0.9674  0.0085 -0.2880
19308TIP3   OH279414   6.362   3.397   2.181 -0.2792 -0.0680  0.0078
19308TIP3    H179415   6.370   3.361   2.093  0.6886  0.6522 -0.2138
19308TIP3    H279416   6.405   3.332   2.237 -1.1952 -0.6933  0.0162
19309TIP3   OH279417   2.868   1.006  16.682  0.1950 -0.6388 -0.6561
19309TIP3    H179418   2.825   0.955  16.750  1.4204 -3.7846 -2.0632
19309TIP3    H279419   2.906   1.081  16.728  0.5925 -2.3731  2.0531
19310TIP3   OH279420   0.726   0.733   3.879  0.7337  0.3346  0.5624
19310TIP3    H179421   0.719   0.775   3.794  2.1651  0.7053  0.6151
19310TIP3    H279422   0.742   0.805   3.940 -0.2701  0.0713  1.1702
19311TIP3   OH279423   3.505   3.229  13.710 -0.6099  0.3757 -0.5687
19311TIP3    H179424   3.434   3.177  13.748  0.0335 -1.1725 -1.3995
19311TIP3    H279425   3.580   3.209  13.766 -0.6780  1.5884 -0.0173
19312TIP3   OH279426   4.188   4.337   2.737  0.2953 -0.2955 -0.4093
19312TIP3    H179427   4.159   4.370   2.822  0.2364  0.1520 -0.6047
19312TIP3    H279428   4.281   4.316   2.750  0.6632  1.1337 -0.6322
19313TIP3   OH279429   3.226   5.581  14.893 -0.5352 -0.0258  0.1173
19313TIP3    H179430   3.261   5.511  14.948  0.8240 -0.5675 -1.3698
19313TIP3    H279431   3.254   5.662  14.937  0.1076 -0.4354  0.4746
19314TIP3   OH279432   4.504   4.992  14.404 -0.0792  0.1752  0.2026
19314TIP3    H179433   4.507   4.909  14.453 -1.1305  1.2074  2.1531
19314TIP3    H279434   4.595   5.006  14.376 -0.0422 -2.0677 -1.0135
19315TIP3   OH279435   5.933   0.199   1.428  0.5722  0.0548 -0.2765
19315TIP3    H179436   5.936   0.282   1.380 -0.4926 -0.5080 -1.3803
19315TIP3    H279437   5.955   0.133   1.363  0.2777 -0.6229  0.3041
19316TIP3   OH279438   1.762   2.074   2.153 -0.0083 -0.4374 -0.1906
19316TIP3    H179439   1.747   2.145   2.091 -0.4808 -0.1053  0.2933
19316TIP3    H279440   1.696   2.087   2.221 -0.3542 -1.5596 -0.2851
19317TIP3   OH279441   6.650   3.620   2.337  0.4792  0.5435  0.4138
19317TIP3    H179442   6.588   3.616   2.410 -0.3263  0.6997 -0.2556
19317TIP3    H279443   6.596   3.637   2.260  1.2399 -0.3219 -0.3366
19318TIP3   OH279444   1.111   3.681  12.510 -0.2161 -0.0770  0.1638
19318TIP3    H179445   1.156   3.764  12.497  0.3013 -0.1419  1.4080
19318TIP3    H279446   1.095   3.676  12.604 -0.6187 -1.1905  0.0565
19319TIP3   OH279447   0.320   3.010   2.223 -0.5983 -0.1830 -0.5930
19319TIP3    H179448   0.283   2.981   2.306 -0.3370  1.3318  0.0944
19319TIP3    H279449   0.256   3.072   2.189  0.4450  1.1274 -0.2547
19320TIP3   OH279450   1.309   2.466  13.410 -0.2940 -0.1458 -0.2267
19320TIP3    H179451   1.324   2.539  13.470 -0.1268  0.1227 -0.5883
19320TIP3    H279452   1.324   2.387  13.463 -2.2773  0.0309  0.6593
19321TIP3   OH279453   4.324   6.596  15.947 -0.0128 -0.0668 -0.3778
19321TIP3    H179454   4.259   6.664  15.964  1.0721  1.1941 -1.0812
19321TIP3    H279455   4.365   6.579  16.032  0.9208  1.4881 -0.4711
19322TIP3   OH279456   6.312   4.385  11.554  0.1128 -0.0909 -0.0327
19322TIP3    H179457   6.325   4.388  11.649 -1.1243  0.4610  0.1394
19322TIP3    H279458   6.387   4.433  11.518  1.9394 -2.3560  0.4690
19323TIP3   OH279459   0.031   4.918  13.257 -0.2510  0.3537  0.5653
19323TIP3    H179460   0.085   4.891  13.331 -0.1271  0.8437  0.6534
19323TIP3    H279461   0.018   4.838  13.207  1.8157  0.4909 -0.2845
19324TIP3   OH279462   4.955   6.240  16.889  1.1467 -0.5374  0.3435
19324TIP3    H179463   4.982   6.323  16.928  0.8481 -0.3777  0.2149
19324TIP3    H279464   4.931   6.184  16.964  0.0313 -0.0422  0.3813
19325TIP3   OH279465   6.477   1.301   6.736 -0.4210 -0.1080  0.4488
19325TIP3    H179466   6.447   1.243   6.806 -1.4240 -0.3579 -0.1755
19325TIP3    H279467   6.398   1.345   6.705  0.2937  1.5473  0.8390
19326TIP3   OH279468   2.368   3.843  15.519 -0.0247 -0.0090  0.2100
19326TIP3    H179469   2.314   3.905  15.568 -0.3252 -0.1600  0.0708
19326TIP3    H279470   2.377   3.767  15.577  1.9958  0.9129  1.2257
19327TIP3   OH279471   0.669   0.476   1.570 -0.1744 -0.4419  0.6276
19327TIP3    H179472   0.738   0.497   1.633  1.9678 -0.4789 -1.5141
19327TIP3    H279473   0.684   0.537   1.498 -1.6374 -1.2697 -0.4348
19328TIP3   OH279474   5.565   4.466  15.904  0.1227 -0.2131 -0.3643
19328TIP3    H179475   5.567   4.381  15.949  0.3113  0.2512  0.5337
19328TIP3    H279476   5.532   4.526  15.971 -1.2399  0.1975 -1.3723
19329TIP3   OH279477   0.259   4.944  15.801 -0.0738 -1.1180 -0.3067
19329TIP3    H179478   0.176   4.967  15.842 -0.4899 -1.8911 -0.6857
19329TIP3    H279479   0.242   4.949  15.707  1.0499  1.2910 -0.4615
19330TIP3   OH279480   3.622   0.687  15.459  0.0996  0.2866 -1.0868
19330TIP3    H179481   3.599   0.648  15.542  0.1468  0.2669 -1.0828
19330TIP3    H279482   3.541   0.687  15.408  0.4376 -1.2368 -1.6683
19331TIP3   OH279483   6.153   2.666   2.691 -0.5710  0.4201  0.5586
19331TIP3    H179484   6.118   2.611   2.760 -0.6542 -1.8935 -1.2055
19331TIP3    H279485   6.094   2.653   2.617  0.3381  1.6107 -0.4322
19332TIP3   OH279486   3.430   4.586   1.462 -0.0978  0.3617 -0.4169
19332TIP3    H179487   3.482   4.610   1.385  1.1850  0.2488  0.3801
19332TIP3    H279488   3.441   4.660   1.522 -0.0830 -0.0891  0.1370
19333TIP3   OH279489   0.943   2.637  11.857 -0.3387 -0.4674  0.1644
19333TIP3    H179490   0.885   2.703  11.896  0.4889  0.8108 -0.6927
19333TIP3    H279491   0.921   2.556  11.902  0.0372  0.7716  2.7315
19334TIP3   OH279492   2.749   2.515   2.244  0.2321 -0.0833  0.8703
19334TIP3    H179493   2.811   2.499   2.173 -0.6090 -0.9884  0.3129
19334TIP3    H279494   2.664   2.516   2.202 -0.1850  0.6334  1.6977
19335TIP3   OH279495   0.219   6.087   2.411  0.2506 -0.4985 -0.1025
19335TIP3    H179496   0.173   6.060   2.332  0.3768  1.5538 -0.9339
19335TIP3    H279497   0.159   6.147   2.455 -0.1908 -2.2911  1.8873
19336TIP3   OH279498   1.068   1.879   1.460  0.4034  0.3782  0.0939
19336TIP3    H179499   1.105   1.837   1.538  2.5265 -0.7992 -1.4526
19336TIP3    H279500   1.011   1.813   1.422  0.1737  0.5730  0.1022
19337TIP3   OH279501   2.263   3.682   5.736  0.2133  0.8370  0.0635
19337TIP3    H179502   2.252   3.776   5.723 -0.4467  0.5673 -1.4669
19337TIP3    H279503   2.191   3.642   5.688  0.6564 -0.4809  0.4476
19338TIP3   OH279504   1.516   2.405  16.011  0.1174 -0.1324 -0.1591
19338TIP3    H179505   1.459   2.403  15.935  0.8949  0.4787 -0.7786
19338TIP3    H279506   1.572   2.482  15.997  0.5381 -0.2457  0.8265
19339TIP3   OH279507   1.056   1.155   5.795 -0.1065  0.1786 -0.1464
19339TIP3    H179508   1.080   1.133   5.885 -0.7404 -1.4929 -0.3587
19339TIP3    H279509   1.083   1.079   5.743  1.1627  1.5158 -1.5565
19340TIP3   OH279510   5.772   2.364  16.964 -0.0467 -0.2457 -0.3765
19340TIP3    H179511   5.719   2.434  16.926  0.3865  0.0979 -0.3626
19340TIP3    H279512   5.834   2.410  17.021  0.9090 -0.5354 -1.1525
19341TIP3   OH279513   6.587   2.522  13.050 -0.2586 -0.5026 -0.1551
19341TIP3    H179514   6.632   2.444  13.083 -1.3502 -1.1515 -0.1837
19341TIP3    H279515   6.520   2.488  12.990  0.5682  0.5622 -1.7666
19342TIP3   OH279516   6.097   4.077   0.430 -0.9626 -0.4361  0.2910
19342TIP3    H179517   6.026   4.016   0.450 -1.4236  0.5499  1.7933
19342TIP3    H279518   6.110   4.068   0.335 -0.2184 -3.6726  0.5946
19343TIP3   OH279519   0.162   4.501   1.476  0.2812  0.2253 -0.0983
19343TIP3    H179520   0.143   4.566   1.409 -2.1663 -0.1415  0.1425
19343TIP3    H279521   0.084   4.500   1.531  0.7158 -2.0952  0.5774
19344TIP3   OH279522   1.454   6.362   5.959 -0.4908 -0.5297 -0.6112
19344TIP3    H179523   1.398   6.357   6.036 -0.7926  0.1626 -0.7833
19344TIP3    H279524   1.513   6.286   5.967 -0.2392 -0.2288  0.5122
19345TIP3   OH279525   4.474   2.546   5.491  0.0517  0.4097  0.9180
19345TIP3    H179526   4.497   2.465   5.537  1.1179  0.3774  0.3517
19345TIP3    H279527   4.556   2.573   5.449 -0.8548  0.5354 -0.8162
19346TIP3   OH279528   1.204   2.832   4.437  0.0754  0.0684 -0.2553
19346TIP3    H179529   1.271   2.833   4.369 -0.5122 -0.4070 -0.8564
19346TIP3    H279530   1.211   2.746   4.477  0.4012  0.3370  0.2732
19347TIP3   OH279531   0.850   3.707  13.159  0.2426 -0.1708 -0.6213
19347TIP3    H179532   0.793   3.634  13.138  1.1130 -0.7224 -1.1310
19347TIP3    H279533   0.882   3.689  13.248 -2.5859  1.6113  0.8982
19348TIP3   OH279534   1.603   3.908   5.090 -0.1140 -0.2360 -0.4847
19348TIP3    H179535   1.594   3.824   5.044  3.2100 -0.7199 -0.5188
19348TIP3    H279536   1.588   3.887   5.182 -2.7685 -0.0818 -0.8218
19349TIP3   OH279537   3.631   3.058  15.767 -0.0051 -0.2160 -0.5560
19349TIP3    H179538   3.612   3.105  15.848  2.2004 -0.8718  0.4191
19349TIP3    H279539   3.652   3.127  15.704 -0.4954  0.2426 -0.2314
19350TIP3   OH279540   6.779   0.754  14.538  0.6154  0.3385  0.4234
19350TIP3    H179541   6.703   0.710  14.501  0.6233  0.8643 -0.2356
19350TIP3    H279542   6.746   0.795  14.618  0.8003 -1.5441  1.5321
19351TIP3   OH279543   1.018   1.849  13.231  0.2849  0.1895  0.5126
19351TIP3    H179544   1.011   1.798  13.312 -0.3152 -1.3093 -0.4532
19351TIP3    H279545   1.038   1.785  13.163  0.3418  1.3563 -0.6252
19352TIP3   OH279546   6.772   1.516  12.605 -0.0488  0.2045  0.3757
19352TIP3    H179547   6.707   1.448  12.585 -0.8561  0.7221  1.1366
19352TIP3    H279548   6.740   1.556  12.686  1.7329 -0.1467  1.2982
19353TIP3   OH279549   0.640   5.452   0.506 -0.3395 -0.0444 -0.4033
19353TIP3    H179550   0.582   5.513   0.459 -0.3136 -0.3421 -0.8279
19353TIP3    H279551   0.607   5.365   0.482 -0.9358 -0.2025  0.8971
19354TIP3   OH279552   4.139   5.818  14.038 -0.2690 -0.7270  0.3486
19354TIP3    H179553   4.087   5.887  14.079 -0.9161  0.2593 -1.9922
19354TIP3    H279554   4.224   5.858  14.020  0.2555 -1.3699  1.2938
19355TIP3   OH279555   3.139   0.200  13.318 -0.0565 -0.0605 -0.3758
19355TIP3    H179556   3.235   0.203  13.313  0.0622 -1.0743  0.9711
19355TIP3    H279557   3.114   0.135  13.252  0.2711 -0.5886  0.0115
19356TIP3   OH279558   3.844   6.629  16.000 -0.5096 -0.6508  0.3534
19356TIP3    H179559   3.907   6.623  15.929  1.4762  1.5832  1.7750
19356TIP3    H279560   3.771   6.680  15.963  1.2167  1.9160  0.2784
19357TIP3   OH279561   2.323   4.371   4.451  0.1799 -0.3038 -0.4783
19357TIP3    H179562   2.231   4.343   4.451  0.1726 -0.3063  0.5484
19357TIP3    H279563   2.325   4.444   4.513  0.9529 -0.5468 -0.2151
19358TIP3   OH279564   4.288   1.153   2.252 -0.4983  0.8245  0.3563
19358TIP3    H179565   4.344   1.131   2.177 -1.4214 -0.2113 -0.0434
19358TIP3    H279566   4.220   1.086   2.253 -0.8711  1.1794  1.7591
19359TIP3   OH279567   2.131   2.568  14.739  0.7730  0.4644  0.3803
19359TIP3    H179568   2.109   2.637  14.676 -0.7707 -0.5302 -0.2405
19359TIP3    H279569   2.159   2.494  14.685  1.1753  0.1873  0.9634
19360TIP3   OH279570   2.237   3.972  12.223 -0.2658  0.2386 -0.9885
19360TIP3    H179571   2.294   4.044  12.252 -0.4070  0.5164 -1.3988
19360TIP3    H279572   2.274   3.894  12.265  0.2623  0.4556 -1.0428
19361TIP3   OH279573   1.335   3.929   5.371 -0.0090 -0.3564  0.1917
19361TIP3    H179574   1.421   3.970   5.373 -0.6385  1.0978 -0.3951
19361TIP3    H279575   1.300   3.951   5.284 -2.2642  1.9918  1.5474
19362TIP3   OH279576   3.164   4.836  11.927  0.1189 -0.0139 -0.5184
19362TIP3    H179577   3.124   4.923  11.935 -2.6154 -1.1291 -1.1583
19362TIP3    H279578   3.090   4.776  11.920  1.9067 -2.5776  1.1320
19363TIP3   OH279579   5.716   4.285  11.001  0.3084 -0.0044 -0.3859
19363TIP3    H179580   5.727   4.330  10.917  0.9111 -0.2032 -0.4140
19363TIP3    H279581   5.667   4.347  11.055 -2.8676 -1.0027 -1.8513
19364TIP3   OH279582   3.333   4.108  16.875  0.2299  0.6740  0.1971
19364TIP3    H179583   3.393   4.036  16.856 -0.6431  0.1976 -0.8694
19364TIP3    H279584   3.274   4.073  16.942  0.4836  0.7816  0.4796
19365TIP3   OH279585   2.807   3.778  15.506  0.0031  0.3920  0.3499
19365TIP3    H179586   2.884   3.816  15.549  0.4671 -0.3024  0.1657
19365TIP3    H279587   2.766   3.851  15.460  1.3394  0.5234 -0.6844
19366TIP3   OH279588   3.879   3.988  10.702  0.2773  0.4930 -0.0100
19366TIP3    H179589   3.823   3.916  10.731  0.7481  0.2086  0.2037
19366TIP3    H279590   3.941   4.000  10.774  1.2789 -0.0256 -0.7671
19367TIP3   OH279591   1.601   5.675  17.150 -0.6079 -0.2762  0.6117
19367TIP3    H179592   1.589   5.732  17.226 -0.3184  0.1643  0.3290
19367TIP3    H279593   1.659   5.605  17.180  0.4585  0.5360  0.4763
19368TIP3   OH279594   1.009   1.875  11.902  0.1241 -0.1406  0.0760
19368TIP3    H179595   1.100   1.885  11.931 -0.0376 -0.0315  0.5553
19368TIP3    H279596   1.015   1.827  11.819  0.5910 -0.5856  0.3612
19369TIP3   OH279597   0.997   1.281  13.284 -0.3788  0.6719 -0.1351
19369TIP3    H179598   1.005   1.215  13.216 -0.3273 -0.0221  0.5263
19369TIP3    H279599   0.956   1.356  13.241  1.2567  0.9054 -1.3600
19370TIP3   OH279600   1.132   1.914   3.494 -0.2023 -0.0261  0.0635
19370TIP3    H179601   1.097   1.931   3.407 -1.2759 -1.7457  0.1059
19370TIP3    H279602   1.224   1.940   3.489 -0.3319  0.2240 -1.4736
19371TIP3   OH279603   5.019   4.112   5.203 -0.2149 -0.1717 -0.1299
19371TIP3    H179604   5.044   4.020   5.199  0.2839 -0.0203 -0.8948
19371TIP3    H279605   5.001   4.136   5.112  0.5177  0.6979 -0.0707
19372TIP3   OH279606   4.513   4.657  15.263 -0.5975  0.4343 -0.4001
19372TIP3    H179607   4.528   4.592  15.331  0.2533 -1.6731 -2.4844
19372TIP3    H279608   4.423   4.642  15.236 -0.1526 -0.4680 -1.4297
19373TIP3   OH279609   4.261   0.489   4.583  0.0792 -0.1065  0.2919
19373TIP3    H179610   4.297   0.571   4.616 -1.2808  0.7906 -0.3492
19373TIP3    H279611   4.309   0.421   4.629  1.5267  1.0399  0.5347
19374TIP3   OH279612   5.732   1.922   3.670 -0.8247 -0.8686 -0.3526
19374TIP3    H179613   5.718   1.998   3.614  0.7917 -0.0956  0.2171
19374TIP3    H279614   5.654   1.868   3.658 -1.5589  0.3947 -1.5323
19375TIP3   OH279615   0.129   5.307   1.633  0.2107  0.0977 -0.2354
19375TIP3    H179616   0.089   5.388   1.602  1.6541  0.4838 -1.1438
19375TIP3    H279617   0.069   5.238   1.605 -1.7049  0.8797  1.6583
19376TIP3   OH279618   0.838   0.604  12.413  0.0885  0.4071  0.5367
19376TIP3    H179619   0.884   0.545  12.352  0.6103  0.8303  0.5151
19376TIP3    H279620   0.873   0.691  12.393 -2.1812  1.0622 -0.8737
19377TIP3   OH279621   6.241   4.652  14.819 -0.2150  0.3537  0.6402
19377TIP3    H179622   6.308   4.628  14.755 -0.1612 -1.2413  1.2323
19377TIP3    H279623   6.184   4.713  14.773  1.6949  1.8660  0.1532
19378TIP3   OH279624   3.268   3.137   4.167 -0.6762 -0.3459  0.1768
19378TIP3    H179625   3.278   3.064   4.105 -2.1740  0.6360 -1.3002
19378TIP3    H279626   3.224   3.205   4.117 -0.1007  1.2712  1.7831
19379TIP3   OH279627   5.079   0.325   2.414  0.6715  0.5882 -0.5349
19379TIP3    H179628   5.087   0.262   2.485  0.0576  0.5491 -0.4930
19379TIP3    H279629   4.993   0.365   2.427  1.0977  1.5194 -0.4930
19380TIP3   OH279630   0.515   2.712  15.863  0.2149 -0.1193 -0.6041
19380TIP3    H179631   0.527   2.730  15.770  1.0956 -2.2976 -0.9551
19380TIP3    H279632   0.584   2.650  15.885 -1.2189 -1.2206  1.0053
19381TIP3   OH279633   2.396   0.911  11.814 -0.5707 -0.6149  0.1327
19381TIP3    H179634   2.319   0.855  11.812  0.8092 -2.8592  2.8343
19381TIP3    H279635   2.390   0.958  11.897  0.2157  0.4111 -0.3567
19382TIP3   OH279636   5.960   2.435  15.329 -0.1847  0.4835 -0.4217
19382TIP3    H179637   6.039   2.443  15.276  0.1040  1.0129  0.0831
19382TIP3    H279638   5.980   2.482  15.410  0.6109 -2.9633  1.6010
19383TIP3   OH279639   5.706   5.389  10.630  0.0225 -0.4072 -1.0753
19383TIP3    H179640   5.765   5.435  10.690 -0.8435  0.0822 -0.5770
19383TIP3    H279641   5.679   5.457  10.567  0.0943 -0.6628 -1.3833
19384TIP3   OH279642   2.749   0.888   5.953 -0.4792  0.2638 -0.3654
19384TIP3    H179643   2.828   0.943   5.946  0.1371 -0.4598  0.5496
19384TIP3    H279644   2.689   0.924   5.888  1.0694  0.0585 -2.0176
19385TIP3   OH279645   0.528   3.807   0.624 -0.1661  0.2999 -0.1255
19385TIP3    H179646   0.502   3.800   0.715 -0.7205  0.4993 -0.2654
19385TIP3    H279647   0.608   3.860   0.626 -0.8847  1.4198  0.1375
19386TIP3   OH279648   5.165   5.294  12.908  0.7005  0.1621  0.2642
19386TIP3    H179649   5.070   5.296  12.896  0.4991  1.2579  1.6790
19386TIP3    H279650   5.196   5.226  12.849 -1.1008 -1.0801  0.6832
19387TIP3   OH279651   3.711   0.816  10.547  0.4168 -0.1007  0.0934
19387TIP3    H179652   3.621   0.847  10.549 -0.2265 -1.7197 -1.1983
19387TIP3    H279653   3.706   0.725  10.576  1.3776 -0.6530 -1.3369
19388TIP3   OH279654   4.273   1.048  15.110  0.2309 -0.4126  0.2144
19388TIP3    H179655   4.180   1.045  15.087  0.0354  2.6923  0.1708
19388TIP3    H279656   4.318   1.060  15.027  0.2564  2.0781  0.5099
19389TIP3   OH279657   2.402   2.256  15.558 -0.2594 -0.1075 -0.0180
19389TIP3    H179658   2.316   2.260  15.599 -0.8364  1.0512 -1.2672
19389TIP3    H279659   2.429   2.347  15.548  1.2355 -0.4529  0.5487
19390TIP3   OH279660   4.585   4.470  15.504 -0.1015  0.4922 -0.0813
19390TIP3    H179661   4.617   4.381  15.494 -1.8487 -0.2357  0.4353
19390TIP3    H279662   4.524   4.466  15.577 -1.5746  1.7161 -1.1683
19391TIP3   OH279663   0.248   0.590  14.320  0.0164  0.3530 -0.3966
19391TIP3    H179664   0.212   0.678  14.331 -0.9901  0.0811 -1.2718
19391TIP3    H279665   0.314   0.582  14.388 -1.4610  0.9607  1.1862
19392TIP3   OH279666   2.215   0.909   6.304 -0.3359 -0.1377 -0.2745
19392TIP3    H179667   2.167   0.830   6.280 -1.1407  0.2089  0.1632
19392TIP3    H279668   2.148   0.978   6.307  0.1831  0.3473  0.3920
19393TIP3   OH279669   6.076   0.269  11.780 -0.1520 -0.5413 -0.2969
19393TIP3    H179670   6.061   0.290  11.688 -0.9855  0.6462  0.0870
19393TIP3    H279671   6.169   0.285  11.794 -0.3001  0.6533 -0.6055
19394TIP3   OH279672   2.513   0.316  12.065 -0.4459  0.0035 -0.0692
19394TIP3    H179673   2.502   0.245  12.128 -0.8803 -0.6157 -0.8356
19394TIP3    H279674   2.477   0.282  11.983  1.9711  0.0425 -1.2204
19395TIP3   OH279675   6.177   6.074  11.711  0.5060  0.0824  0.0434
19395TIP3    H179676   6.132   6.049  11.630  0.5733  2.1447 -0.6802
19395TIP3    H279677   6.267   6.044  11.698  0.0032 -1.7376  0.4144
19396TIP3   OH279678   0.007   4.389  11.833  0.4506 -0.7916  0.0346
19396TIP3    H179679  -0.014   4.444  11.909 -1.2375 -1.2127 -0.0848
19396TIP3    H279680  -0.017   4.443  11.758  1.2852 -0.7154 -0.1908
19397TIP3   OH279681   1.258   0.584   3.931  0.6528  0.1478 -0.0883
19397TIP3    H179682   1.253   0.489   3.939  0.4220  0.2753  1.7301
19397TIP3    H279683   1.321   0.599   3.859 -0.2512 -1.3395 -1.2396
19398TIP3   OH279684   5.177   6.442   0.914 -0.5417  0.3758 -0.7902
19398TIP3    H179685   5.212   6.530   0.926  0.7417 -0.2969  0.8821
19398TIP3    H279686   5.099   6.440   0.969 -0.1601  0.2657 -0.2432
19399TIP3   OH279687   1.948   3.733   4.063 -0.6937  0.2389 -0.3422
19399TIP3    H179688   1.930   3.808   4.119  1.3796 -2.0358  3.7786
19399TIP3    H279689   2.009   3.767   3.997 -2.8159  2.9040 -1.1240
19400TIP3   OH279690   4.532   5.017  16.874  0.2000  0.6222 -0.4772
19400TIP3    H179691   4.577   4.935  16.892 -0.4161  0.1001 -1.2398
19400TIP3    H279692   4.528   5.061  16.959  1.9460  0.6036 -0.3446
19401TIP3   OH279693   1.107   1.609   5.956 -0.0538 -0.1145  0.1390
19401TIP3    H179694   1.168   1.544   5.990  0.2734  1.6440  3.3225
19401TIP3    H279695   1.021   1.580   5.987 -0.2306 -0.2667 -0.4887
19402TIP3   OH279696   6.781   0.513   1.660 -0.0035 -0.2168  0.0444
19402TIP3    H179697   6.793   0.476   1.572 -1.0652 -0.5599  0.0260
19402TIP3    H279698   6.814   0.445   1.719  3.6733  1.2103 -0.0813
19403TIP3   OH279699   2.554   2.886  12.532  0.3599 -0.5193 -0.3358
19403TIP3    H179700   2.499   2.907  12.607  1.4799  0.2769  0.2925
19403TIP3    H279701   2.641   2.873  12.569  0.4979 -2.4162 -1.2152
19404TIP3   OH279702   4.902   6.059  13.548  0.2736  0.0675 -0.8044
19404TIP3    H179703   4.934   6.095  13.631 -0.5437  2.8879 -1.6097
19404TIP3    H279704   4.961   6.096  13.482 -0.3789 -0.4145 -1.6709
19405TIP3   OH279705   6.399   2.957   5.199 -0.3723 -0.0780 -0.1886
19405TIP3    H179706   6.464   3.011   5.154  0.2772 -0.8669 -0.2082
19405TIP3    H279707   6.382   2.885   5.140 -1.0304 -0.0497 -0.0389
19406TIP3   OH279708   3.831   4.704   1.097 -0.1459 -0.7318 -0.0762
19406TIP3    H179709   3.859   4.753   1.175 -0.7836 -1.3214  0.5447
19406TIP3    H279710   3.912   4.664   1.065  0.3062  0.3515 -0.3391
19407TIP3   OH279711   4.487   6.123  13.123  0.0457 -1.0387  0.2091
19407TIP3    H179712   4.425   6.158  13.187  1.0655  0.1084  0.6068
19407TIP3    H279713   4.439   6.120  13.041 -1.1392 -2.0667  0.9008
19408TIP3   OH279714   1.692   5.947  13.925  0.1513  0.1451  0.1923
19408TIP3    H179715   1.636   5.890  13.873  2.6564 -2.1153 -0.2731
19408TIP3    H279716   1.720   6.015  13.864 -1.1401  0.6373  0.1259
19409TIP3   OH279717   4.831   5.279  10.425 -0.2568 -0.1695  0.4280
19409TIP3    H179718   4.900   5.255  10.487  1.3838  3.1932  0.1032
19409TIP3    H279719   4.857   5.237  10.343  0.5868 -0.1313  0.6682
19410TIP3   OH279720   4.544   5.108  14.078  0.1595  0.4555  0.2587
19410TIP3    H179721   4.590   5.027  14.061  0.2022 -0.2616  3.2634
19410TIP3    H279722   4.451   5.086  14.067  0.1165 -0.2785  1.8494
19411TIP3   OH279723   1.831   4.005   0.142 -0.5572 -0.1432  0.5420
19411TIP3    H179724   1.854   4.044   0.226 -0.6124 -0.0897  0.5323
19411TIP3    H279725   1.780   3.927   0.164 -1.1730  0.2561  0.5432
19412TIP3   OH279726   0.295   6.192   1.084  0.0691 -0.1311 -0.6135
19412TIP3    H179727   0.349   6.268   1.064  0.3519 -0.1857 -0.0896
19412TIP3    H279728   0.206   6.226   1.086  0.3992  0.9309  2.7433
19413TIP3   OH279729   1.646   4.324   0.190 -0.5478 -0.2395 -0.3336
19413TIP3    H179730   1.672   4.307   0.100  1.4732  3.2020 -0.5682
19413TIP3    H279731   1.565   4.373   0.183 -1.6516 -1.9591 -0.0937
19414TIP3   OH279732   4.085   4.716   4.691  0.4877  0.4034 -0.0309
19414TIP3    H179733   4.018   4.701   4.758  0.6703 -0.9497 -0.1434
19414TIP3    H279734   4.155   4.655   4.711  1.5699  1.5639 -0.1234
19415TIP3   OH279735   1.270   4.224   4.354  0.1398  0.0050 -0.2039
19415TIP3    H179736   1.189   4.216   4.304 -0.1382  0.0899  0.2259
19415TIP3    H279737   1.294   4.134   4.375  0.2390 -0.0290 -0.4601
19416TIP3   OH279738   3.141   6.482   1.461  0.0213 -0.2397 -0.0636
19416TIP3    H179739   3.088   6.472   1.540 -0.4865 -0.7650 -0.4576
19416TIP3    H279740   3.214   6.421   1.472 -0.0517 -0.3148  0.0045
19417TIP3   OH279741   3.211   1.101   2.718 -0.4606 -0.4942 -0.0206
19417TIP3    H179742   3.143   1.165   2.738 -0.6625 -0.4370 -0.8423
19417TIP3    H279743   3.234   1.119   2.627 -1.7529 -2.6876 -0.8560
19418TIP3   OH279744   5.937   0.354  17.194  0.0408  0.1088  0.8037
19418TIP3    H179745   5.899   0.289  17.134  1.3821 -1.0124  1.1301
19418TIP3    H279746   5.996   0.405  17.139 -0.0890  0.2611  0.8050
19419TIP3   OH279747   3.105   1.106  15.979  0.0606 -0.0531  0.1244
19419TIP3    H179748   3.107   1.089  15.885 -1.6038 -2.3982  0.4387
19419TIP3    H279749   3.197   1.100  16.006  0.2875 -2.8792 -0.8889
19420TIP3   OH279750   3.717   3.596  13.277 -0.0761  0.2327 -0.0244
19420TIP3    H179751   3.756   3.530  13.334  1.0824 -0.3407 -1.4409
19420TIP3    H279752   3.623   3.577  13.280 -0.1112  0.4538  1.9459
19421TIP3   OH279753   2.623   3.124  11.254  0.3981 -0.0786 -0.0977
19421TIP3    H179754   2.569   3.046  11.260  1.5808 -1.0125 -1.0424
19421TIP3    H279755   2.586   3.173  11.181  0.0456 -0.0635  0.0881
19422TIP3   OH279756   0.771   6.241   2.786 -0.0989 -0.1233  0.4173
19422TIP3    H179757   0.686   6.286   2.789 -0.3334 -0.6115  1.7677
19422TIP3    H279758   0.789   6.219   2.877  2.1171  1.1317  0.3469
19423TIP3   OH279759   0.596   2.869  13.276 -0.0094  0.1786  0.0576
19423TIP3    H179760   0.607   2.774  13.285  1.2785  0.3805  0.8857
19423TIP3    H279761   0.635   2.905  13.355  0.8816  1.4800 -0.9337
19424TIP3   OH279762   5.271   6.070   0.351  0.4220  0.0721 -0.2096
19424TIP3    H179763   5.298   5.999   0.293 -0.3348 -0.7097  0.3600
19424TIP3    H279764   5.200   6.114   0.305  0.1425 -0.2491 -0.0928
19425TIP3   OH279765   4.622   1.099   3.408 -0.0853 -0.3593  0.0274
19425TIP3    H179766   4.625   1.017   3.457  2.0969 -1.2417 -1.3920
19425TIP3    H279767   4.631   1.167   3.474  0.0336 -1.3566  1.0805
19426TIP3   OH279768   3.069   4.561  15.042 -0.4300 -0.0379  0.0330
19426TIP3    H179769   3.090   4.469  15.058 -1.0069 -0.4965 -1.6107
19426TIP3    H279770   3.017   4.587  15.117 -1.7679 -1.5997 -0.2727
19427TIP3   OH279771   6.337   3.102   5.516 -0.0088 -0.0836 -0.2574
19427TIP3    H179772   6.249   3.077   5.489 -0.1481  0.0032  0.1200
19427TIP3    H279773   6.337   3.197   5.513  0.5165 -0.1091 -1.6776
19428TIP3   OH279774   6.222   6.412  12.262 -0.3269 -0.3112 -0.5896
19428TIP3    H179775   6.255   6.326  12.237 -0.8069 -0.3248 -1.1998
19428TIP3    H279776   6.289   6.473  12.232  0.6871 -0.5493  1.0887
19429TIP3   OH279777   2.656   1.051  15.054 -0.2981  0.0328 -0.0866
19429TIP3    H179778   2.736   1.084  15.012 -1.1932 -0.1191 -2.0241
19429TIP3    H279779   2.650   1.100  15.136  1.5598  0.3295 -0.0736
19430TIP3   OH279780   3.778   6.484   1.634  0.2275  0.3519 -0.3424
19430TIP3    H179781   3.725   6.472   1.555 -0.9534 -1.1735  0.6128
19430TIP3    H279782   3.756   6.572   1.664 -0.5629  0.3284 -0.8146
19431TIP3   OH279783   1.675   4.643   1.671  0.1209  0.3507 -0.2643
19431TIP3    H179784   1.769   4.657   1.661 -0.0045  0.4565 -1.4865
19431TIP3    H279785   1.639   4.731   1.686  0.1870  0.3305  0.0308
19432TIP3   OH279786   0.520   4.090   0.528  0.0015 -0.5428  0.1449
19432TIP3    H179787   0.460   4.108   0.600  0.9207  0.8309  0.6132
19432TIP3    H279788   0.562   4.007   0.551  1.3618  0.5636  2.0135
19433TIP3   OH279789   0.913   3.168   0.541  0.6603 -0.4702  0.1124
19433TIP3    H179790   0.958   3.148   0.624 -0.9623 -1.3691  0.8219
19433TIP3    H279791   0.908   3.264   0.539  1.2825 -0.4156  0.7310
19434TIP3   OH279792   4.950   3.309  14.968  0.2476  0.0977  0.0397
19434TIP3    H179793   4.944   3.356  15.051  1.6972 -0.2186  0.3597
19434TIP3    H279794   4.904   3.365  14.906 -1.0953  0.2076  1.0901
19435TIP3   OH279795   4.314   1.903  13.767  0.1109 -0.1260  0.5886
19435TIP3    H179796   4.358   1.971  13.819  0.8611 -0.4122  0.3417
19435TIP3    H279797   4.384   1.841  13.745 -0.0633  0.2359 -1.1760
19436TIP3   OH279798   3.251   6.736  11.639  0.0116 -0.0400 -0.0312
19436TIP3    H179799   3.324   6.701  11.690  0.8582 -0.1788 -1.3159
19436TIP3    H279800   3.284   6.817  11.602 -0.4635 -0.1407 -0.6881
19437TIP3   OH279801   3.542   5.829   0.370  0.5736  0.1730  0.4124
19437TIP3    H179802   3.582   5.850   0.286 -1.3529  0.2885 -0.5308
19437TIP3    H279803   3.616   5.808   0.427  2.0151  1.3234 -0.9379
19438TIP3   OH279804   1.316   6.007  12.243  0.2759 -0.9063  0.1561
19438TIP3    H179805   1.361   6.075  12.192 -0.5842 -0.3376  0.1394
19438TIP3    H279806   1.261   5.962  12.179 -0.1644 -0.7425  0.4165
19439TIP3   OH279807   1.464   4.163  16.987 -0.4053  0.3639  0.1108
19439TIP3    H179808   1.407   4.184  16.912 -0.5564 -1.8968 -0.4844
19439TIP3    H279809   1.553   4.175  16.954 -0.4757  1.4642  0.2728
19440TIP3   OH279810   3.982   5.787  11.509  0.2309  0.2963  0.2421
19440TIP3    H179811   3.967   5.694  11.530  0.3315  0.0432 -0.7488
19440TIP3    H279812   3.967   5.833  11.591 -1.2487 -0.4435  0.4145
19441TIP3   OH279813   4.251   2.940  15.576  0.2839  0.2781 -0.1308
19441TIP3    H179814   4.252   2.928  15.671  0.2823  2.1288  0.1427
19441TIP3    H279815   4.177   2.886  15.546  0.5020 -0.6040  0.8596
19442TIP3   OH279816   4.973   6.308   1.913 -0.1644  0.2783  0.1841
19442TIP3    H179817   4.892   6.266   1.885 -0.3489  0.2261  0.7739
19442TIP3    H279818   4.977   6.292   2.008  1.3142 -1.1010 -0.0633
19443TIP3   OH279819   0.956   3.561  13.704 -0.6724 -0.1351  0.0250
19443TIP3    H179820   0.868   3.577  13.737 -0.8039  0.0416 -0.4026
19443TIP3    H279821   0.972   3.469  13.721 -1.0068 -0.2076 -0.0522
19444TIP3   OH279822   6.079   2.955   2.547 -0.3900  0.1917  0.1065
19444TIP3    H179823   6.081   2.872   2.500  1.4267  0.4039 -0.2663
19444TIP3    H279824   6.051   2.932   2.635  2.2702 -1.2590  0.6973
19445TIP3   OH279825   3.277   1.457  10.454 -0.1984  0.5364 -0.0843
19445TIP3    H179826   3.306   1.545  10.477  0.2934  0.1319  0.9000
19445TIP3    H279827   3.190   1.470  10.416  0.3469  1.5518 -1.0402
19446TIP3   OH279828   1.518   4.974  15.557 -0.6910 -0.6113 -0.3319
19446TIP3    H179829   1.525   5.027  15.637 -0.3610  0.5238 -1.0788
19446TIP3    H279830   1.605   4.936  15.545  0.0468  1.2753 -1.4770
19447TIP3   OH279831   6.459   0.869   6.834 -0.3317  0.0494 -0.2686
19447TIP3    H179832   6.420   0.918   6.761  0.9861  1.2421 -0.2279
19447TIP3    H279833   6.393   0.804   6.857 -1.7624  1.1666 -0.9880
19448TIP3   OH279834   6.642   0.728  15.108 -0.5817 -0.7364  0.2139
19448TIP3    H179835   6.576   0.670  15.147 -0.1745 -0.2810  1.6461
19448TIP3    H279836   6.602   0.815  15.112 -0.7540 -0.7459 -0.9342
19449TIP3   OH279837   0.131   2.656   5.902 -0.5317  0.2488  0.0114
19449TIP3    H179838   0.095   2.574   5.870 -0.8085  0.6462 -0.7206
19449TIP3    H279839   0.100   2.663   5.992 -1.6369  0.2034 -0.3524
19450TIP3   OH279840   6.370   6.635   2.820 -0.5787  0.1170 -0.1199
19450TIP3    H179841   6.406   6.592   2.743 -3.8203 -1.1689 -1.0741
19450TIP3    H279842   6.385   6.729   2.804  0.7102 -0.2497 -1.2255
19451TIP3   OH279843   6.035   3.826   3.469  0.2115 -0.4539  0.2514
19451TIP3    H179844   6.089   3.764   3.517  1.0753  1.4237  1.8410
19451TIP3    H279845   6.092   3.861   3.400  0.3277 -0.0703  0.5403
19452TIP3   OH279846   5.401   4.536  12.759  0.1398  0.4832 -0.1838
19452TIP3    H179847   5.356   4.615  12.787 -0.2792  1.0293 -2.2507
19452TIP3    H279848   5.352   4.505  12.683 -0.6389 -2.6892  1.4576
19453TIP3   OH279849   1.098   1.837  14.227  0.4815  0.4546 -0.0144
19453TIP3    H179850   1.161   1.844  14.155  0.6812  1.2795  0.2365
19453TIP3    H279851   1.132   1.766  14.282  1.2542  0.9674  0.1786
19454TIP3   OH279852   2.333   3.554  15.631 -0.4562  0.1031  0.7258
19454TIP3    H179853   2.353   3.540  15.539 -0.4909  1.1345  0.5494
19454TIP3    H279854   2.418   3.556  15.675 -0.4343 -0.2703  0.7007
19455TIP3   OH279855   4.839   5.573   4.739  0.1098 -0.0971 -0.6288
19455TIP3    H179856   4.878   5.656   4.764  0.5430 -0.4725 -0.0321
19455TIP3    H279857   4.796   5.541   4.818  0.0209 -0.4774 -0.8257
19456TIP3   OH279858   4.076   0.133   5.797 -0.0132  0.5167 -0.3565
19456TIP3    H179859   3.991   0.170   5.822 -0.3921  1.4401 -2.7073
19456TIP3    H279860   4.081   0.148   5.702  2.9221  0.7522 -0.2449
19457TIP3   OH279861   6.367   3.125   0.900 -0.2531 -0.0966 -0.0590
19457TIP3    H179862   6.385   3.034   0.924  2.3472  0.1203 -0.8649
19457TIP3    H279863   6.406   3.177   0.970 -2.4398  0.4314  0.8177
19458TIP3   OH279864   1.366   4.136  12.074  0.1804 -0.1109 -0.1261
19458TIP3    H179865   1.376   4.214  12.128 -0.1132 -0.0591 -0.1468
19458TIP3    H279866   1.440   4.080  12.099  0.3672  0.1550 -0.0860
19459TIP3   OH279867   0.992   4.132  16.619  0.1851 -0.1198  0.2850
19459TIP3    H179868   1.022   4.204  16.675  3.6956 -1.7133  0.7118
19459TIP3    H279869   0.921   4.091  16.669 -0.1477  1.4933  1.1967
19460TIP3   OH279870   1.006   5.770   4.549  0.1901 -0.6629  0.3440
19460TIP3    H179871   1.070   5.700   4.555  0.2312 -0.5933  0.6948
19460TIP3    H279872   1.058   5.848   4.527  0.1236 -0.7728 -0.2321
19461TIP3   OH279873   3.987   2.908   2.454 -0.0196 -0.6950 -0.3411
19461TIP3    H179874   3.918   2.855   2.414 -0.4222 -1.6797  1.5379
19461TIP3    H279875   3.940   2.968   2.512  0.5380  0.7441 -1.3298
19462TIP3   OH279876   4.559   5.276   5.770 -0.5753  0.2586  0.0653
19462TIP3    H179877   4.513   5.308   5.848 -0.2000 -2.4658  1.5304
19462TIP3    H279878   4.645   5.317   5.773 -0.3667 -0.2389  1.4394
19463TIP3   OH279879   4.684   4.650   2.565 -0.1327  0.0330 -0.2256
19463TIP3    H179880   4.676   4.676   2.473 -0.2701  0.5412 -0.0734
19463TIP3    H279881   4.615   4.585   2.578 -1.0724  1.0237 -0.1137
19464TIP3   OH279882   3.108   5.806   5.426  0.2679  0.0171  0.0061
19464TIP3    H179883   3.111   5.846   5.338 -2.6824  0.5792  0.0464
19464TIP3    H279884   3.014   5.803   5.447  0.8425 -0.9556  2.7798
19465TIP3   OH279885   1.795   5.560  11.938  0.2444 -0.3311 -0.2857
19465TIP3    H179886   1.721   5.574  11.998  0.3525 -0.3120 -0.1568
19465TIP3    H279887   1.873   5.578  11.991  0.3240  0.2135 -0.5799
19466TIP3   OH279888   4.628   2.506   2.415 -0.0714 -0.2346 -0.0823
19466TIP3    H179889   4.591   2.454   2.486 -2.0943 -0.1371 -1.0139
19466TIP3    H279890   4.649   2.442   2.347  0.2085 -0.1276 -0.1010
19467TIP3   OH279891   4.495   5.492  12.800  0.1866  0.0845 -0.0582
19467TIP3    H179892   4.461   5.509  12.887  1.0813 -1.8404  0.7301
19467TIP3    H279893   4.487   5.575  12.754  0.2369  1.3159  2.0374
19468TIP3   OH279894   5.157   4.797  17.149  0.6875  0.5304  0.0556
19468TIP3    H179895   5.093   4.726  17.142 -0.7909  1.8383 -0.1549
19468TIP3    H279896   5.213   4.771  17.223  0.6009 -1.1542 -0.4315
19469TIP3   OH279897   3.187   4.115   3.443 -0.2871  0.2233 -0.2635
19469TIP3    H179898   3.140   4.181   3.392  2.6195  0.6550 -2.7371
19469TIP3    H279899   3.241   4.165   3.504 -0.7932 -0.0862  0.4465
19470TIP3   OH279900   4.601   4.679   2.977 -0.2143 -0.2068 -0.2192
19470TIP3    H179901   4.655   4.625   2.920 -1.9411 -0.8623 -1.3137
19470TIP3    H279902   4.575   4.753   2.922  2.1246  1.8714  1.2596
19471TIP3   OH279903   2.718   6.724  11.773 -0.5238  0.2177 -0.2715
19471TIP3    H179904   2.653   6.780  11.732  1.1203  1.9888 -0.6322
19471TIP3    H279905   2.699   6.729  11.867 -0.7995  0.8514 -0.3613
19472TIP3   OH279906   1.384   0.881   2.150  0.7414  0.5120 -0.8142
19472TIP3    H179907   1.414   0.938   2.079 -3.1558  0.3287 -2.8461
19472TIP3    H279908   1.362   0.942   2.221 -0.9172  1.4016 -2.0210
19473TIP3   OH279909   0.167   3.710   0.027  0.9414 -0.5965 -0.6139
19473TIP3    H179910   0.261   3.693   0.016  0.7097 -0.7407 -2.8011
19473TIP3    H279911   0.126   3.624   0.022  0.7024 -0.5983  0.9334
19474TIP3   OH279912   6.280   4.940   0.081  0.0633  0.2931  0.7428
19474TIP3    H179913   6.230   4.962   0.159 -1.2642 -0.4452  0.1214
19474TIP3    H279914   6.245   4.996   0.013  0.7054  0.4095  0.5041
19475TIP3   OH279915   0.304   2.514  13.128 -0.1768 -0.2526 -0.0689
19475TIP3    H179916   0.393   2.542  13.147 -0.5583  1.0348 -0.0755
19475TIP3    H279917   0.249   2.584  13.162 -1.2479 -1.4054  0.6707
19476TIP3   OH279918   0.090   5.425  11.940  0.1159  0.2952 -0.2649
19476TIP3    H179919   0.141   5.382  12.008 -3.2247 -1.5535  1.3226
19476TIP3    H279920   0.079   5.358  11.872  0.4616  0.9491 -0.9851
19477TIP3   OH279921   0.555   3.695   5.154  0.4572  0.2423  0.4013
19477TIP3    H179922   0.544   3.752   5.078 -1.7837 -1.7641 -0.9353
19477TIP3    H279923   0.518   3.745   5.227 -1.1681  0.6974 -0.6729
19478TIP3   OH279924   1.986   4.316  15.353  0.1131  0.3242 -0.2413
19478TIP3    H179925   2.041   4.392  15.337 -1.0392  1.4122  0.7846
19478TIP3    H279926   2.043   4.241  15.335  1.7431  1.3985  0.2418
19479TIP3   OH279927   2.327   2.896   4.011 -0.1091  0.5560  0.7571
19479TIP3    H179928   2.395   2.962   4.003  1.0791 -0.6873  0.1074
19479TIP3    H279929   2.249   2.937   3.975  0.1703  2.1485  1.8646
19480TIP3   OH279930   3.449   6.633  11.802  0.5158 -0.1072 -0.3008
19480TIP3    H179931   3.532   6.622  11.848  0.0604  0.0383  0.5655
19480TIP3    H279932   3.412   6.545  11.799  0.7273 -0.1847 -0.7522
19481TIP3   OH279933   4.069   3.570  14.044  0.2113 -0.2534  0.5368
19481TIP3    H179934   3.999   3.570  13.979  1.1575  0.1122 -0.5176
19481TIP3    H279935   4.119   3.491  14.026  1.0459  0.3402  0.1622
19482TIP3   OH279936   3.052   0.334  16.718 -0.6424 -0.0828 -0.1763
19482TIP3    H179937   3.001   0.415  16.717  2.4707  2.1538  1.5004
19482TIP3    H279938   3.095   0.331  16.633  0.0303  0.6284  0.1315
19483TIP3   OH279939   5.747   1.907  12.519  0.0233  0.2753  0.0413
19483TIP3    H179940   5.699   1.826  12.501  0.2479  0.1379  0.0631
19483TIP3    H279941   5.688   1.958  12.575 -0.3288  0.3461 -0.3958
19484TIP3   OH279942   1.177   4.603  12.695  0.2790  0.6221  0.0346
19484TIP3    H179943   1.092   4.619  12.736 -1.3491 -3.3974 -1.3178
19484TIP3    H279944   1.195   4.511  12.712  2.7092  0.4652 -2.6006
19485TIP3   OH279945   2.407   2.183  11.863  0.4787 -0.2405  0.2946
19485TIP3    H179946   2.402   2.273  11.896  2.0423  0.1912 -0.5386
19485TIP3    H279947   2.394   2.192  11.769  0.3144 -0.9275  0.2522
19486TIP3   OH279948   2.236   5.958  12.724 -0.0159 -0.1385 -0.7442
19486TIP3    H179949   2.240   5.863  12.734  0.0630  0.0006  0.9629
19486TIP3    H279950   2.322   5.989  12.755 -0.9087  0.6051  1.1651
19487TIP3   OH279951   0.183   4.234  16.445 -0.8516  0.6243  0.0321
19487TIP3    H179952   0.197   4.237  16.350  0.1972 -1.3084  0.0751
19487TIP3    H279953   0.142   4.149  16.461  1.3360 -0.2491  1.5183
19488TIP3   OH279954   0.813   0.761   1.895  0.1621 -0.1985  1.1980
19488TIP3    H179955   0.725   0.770   1.858  0.0458 -0.9307  1.2854
19488TIP3    H279956   0.871   0.790   1.825 -0.0768 -1.1668  0.5720
19489TIP3   OH279957   1.885   2.742  12.546  0.3932 -0.3553  0.3872
19489TIP3    H179958   1.956   2.758  12.483 -0.1839 -0.9737 -0.4427
19489TIP3    H279959   1.820   2.809  12.525  1.2897  1.1317  2.0813
19490TIP3   OH279960   4.803   3.876   0.489 -0.3049  0.6056  0.1868
19490TIP3    H179961   4.724   3.909   0.530 -0.8315  0.6180 -0.8205
19490TIP3    H279962   4.875   3.918   0.538 -0.9269  1.6519  0.2236
19491TIP3   OH279963   3.746   2.328  16.401  0.3893  0.4787  0.1873
19491TIP3    H179964   3.673   2.332  16.463 -0.2007 -2.5073 -0.1663
19491TIP3    H279965   3.743   2.239  16.365  1.8054  1.5064 -2.8292
19492TIP3   OH279966   6.075   4.065   3.102 -0.8878 -0.4125 -0.0432
19492TIP3    H179967   6.073   4.135   3.036  2.6023 -0.0332  0.0645
19492TIP3    H279968   6.049   3.986   3.054  0.4492  0.0536 -1.6585
19493TIP3   OH279969   2.352   2.835  12.719  0.2814  0.2554  0.3162
19493TIP3    H179970   2.276   2.868  12.767  0.1151  1.2193 -0.5923
19493TIP3    H279971   2.427   2.872  12.766  0.1653  0.1546  0.5872
19494TIP3   OH279972   6.393   0.489   0.459  0.0841  0.1472 -0.3903
19494TIP3    H179973   6.443   0.543   0.520 -0.2290  1.5066 -1.2940
19494TIP3    H279974   6.322   0.546   0.429 -0.9965 -1.1716 -0.4608
19495TIP3   OH279975   1.059   3.935  11.633  0.2550 -0.5722 -0.2093
19495TIP3    H179976   1.150   3.965  11.623  0.0792 -0.4374 -1.5432
19495TIP3    H279977   1.060   3.886  11.716  1.4453 -0.2385  0.0073
19496TIP3   OH279978   5.204   4.810  15.526 -0.5190 -0.5953 -0.4153
19496TIP3    H179979   5.245   4.763  15.599 -0.1138  0.9464  0.3783
19496TIP3    H279980   5.110   4.790  15.534 -0.1927 -2.7305 -1.2142
19497TIP3   OH279981   3.779   4.796  17.287 -0.3897 -0.1132  0.6860
19497TIP3    H179982   3.696   4.834  17.317  0.3159  1.0476  1.2349
19497TIP3    H279983   3.794   4.836  17.201  0.7067  1.4763  1.5685
19498TIP3   OH279984   3.837   3.724  15.068 -0.0297 -0.4545  0.5283
19498TIP3    H179985   3.830   3.763  14.980 -1.8911 -1.4572  0.1829
19498TIP3    H279986   3.876   3.793  15.121  0.1799  0.5486 -0.8627
19499TIP3   OH279987   6.718   3.711   1.026 -0.0728  0.2065  0.0077
19499TIP3    H179988   6.712   3.702   1.121  0.7726 -0.7821 -0.0153
19499TIP3    H279989   6.797   3.763   1.012 -0.1285  0.2470 -0.1551
19500TIP3   OH279990   0.801   6.016   5.054 -0.6642 -0.0165 -0.9354
19500TIP3    H179991   0.722   5.966   5.032 -0.9302 -0.0738  0.0853
19500TIP3    H279992   0.768   6.097   5.093 -0.2345 -0.2616 -0.0237
19501TIP3   OH279993   6.725   6.516  13.278 -0.1829  0.0788 -0.0732
19501TIP3    H179994   6.783   6.468  13.220  0.6394  1.9727 -0.8928
19501TIP3    H279995   6.754   6.493  13.366  1.5931  0.6916 -0.4640
19502TIP3   OH279996   4.896   1.225  16.902 -0.3201  0.0722 -1.4074
19502TIP3    H179997   4.833   1.260  16.839 -0.7119 -2.0395 -2.2738
19502TIP3    H279998   4.849   1.224  16.985 -0.7601  0.3240 -1.6526
19503TIP3   OH279999   5.108   1.773  13.863 -0.3938 -0.5788  0.3635
19503TIP3    H180000   5.020   1.802  13.839  0.9172  1.5974 -2.3528
19503TIP3    H280001   5.120   1.691  13.816 -0.6777 -0.4556  0.0722
19504TIP3   OH280002   5.548   2.341   1.507 -0.4182 -0.5614  0.2679
19504TIP3    H180003   5.600   2.369   1.433 -1.7267 -1.0242 -0.8680
19504TIP3    H280004   5.606   2.351   1.583  0.5899  0.9364 -0.6521
19505TIP3   OH280005   6.266   2.189   1.716 -0.1821 -0.5533 -0.0687
19505TIP3    H180006   6.269   2.194   1.811 -0.8617 -0.6592 -0.0414
19505TIP3    H280007   6.192   2.244   1.690 -0.9929 -1.7705 -0.4271
19506TIP3   OH280008   6.204   5.957  12.866 -0.3546 -0.1209 -0.0930
19506TIP3    H180009   6.276   5.896  12.847 -1.4497 -1.2676 -0.6909
19506TIP3    H280010   6.149   5.911  12.928 -1.0305  0.3952 -0.2995
19507TIP3   OH280011   2.804   1.559   3.195  0.0996  0.4886  0.7302
19507TIP3    H180012   2.827   1.543   3.104 -0.5051 -1.2822  0.8645
19507TIP3    H280013   2.858   1.634   3.220  0.2092  1.0626 -1.0923
19508TIP3   OH280014   5.570   4.352   1.299 -0.4791 -0.0194 -0.5971
19508TIP3    H180015   5.513   4.326   1.371  1.8103  0.0725  1.3446
19508TIP3    H280016   5.524   4.426   1.258 -2.5903 -1.0922 -0.3242
19509TIP3   OH280017   5.915   2.280   4.222  0.6060 -0.3325 -0.5799
19509TIP3    H180018   5.882   2.198   4.186 -1.6048  0.9010 -1.5119
19509TIP3    H280019   5.881   2.348   4.164  0.6868  1.4025  1.2805
19510TIP3   OH280020   1.227   3.438   1.362 -0.4320  0.3122 -0.2406
19510TIP3    H180021   1.196   3.425   1.451  1.1562  2.2718  0.6876
19510TIP3    H280022   1.279   3.360   1.343 -2.1238 -0.8927 -0.1338
19511TIP3   OH280023   3.731   6.750   4.893 -0.7495  0.1023 -0.4274
19511TIP3    H180024   3.665   6.751   4.962 -2.1991  0.8163 -1.7665
19511TIP3    H280025   3.810   6.786   4.934 -2.0160  2.0136  0.4308
19512TIP3   OH280026   5.766   2.185   0.532 -0.3916 -0.3883 -0.2830
19512TIP3    H180027   5.679   2.185   0.491  0.0329 -0.0326 -1.2045
19512TIP3    H280028   5.753   2.228   0.617 -1.0292  0.0755 -0.6090
19513TIP3   OH280029   3.985   5.904  13.407 -0.3768 -0.0460  0.4354
19513TIP3    H180030   4.014   5.913  13.498  0.3869  1.3172  0.0940
19513TIP3    H280031   4.061   5.932  13.355 -1.1575  0.2280 -0.5840
19514TIP3   OH280032   2.957   1.592  15.336 -0.0859 -0.0040 -0.4887
19514TIP3    H180033   2.877   1.555  15.372  0.1254  0.0233  0.0052
19514TIP3    H280034   2.959   1.561  15.245 -0.4485 -0.3327 -0.3852
19515TIP3   OH280035   5.036   3.868   2.189  0.4285 -0.0339  0.2318
19515TIP3    H180036   5.106   3.846   2.251  0.3485 -0.6502  0.1021
19515TIP3    H280037   5.078   3.929   2.128  0.2618  1.3352  1.4170
19516TIP3   OH280038   3.041   1.213  16.827 -0.6365 -0.3800 -0.4188
19516TIP3    H180039   3.105   1.152  16.863 -1.9567 -1.3473  0.4175
19516TIP3    H280040   2.970   1.213  16.892 -0.8400  1.7645 -0.5933
19517TIP3   OH280041   4.102   3.814   0.688 -0.0208  0.1487 -0.0183
19517TIP3    H180042   4.164   3.837   0.618 -1.7979 -0.2313 -1.7765
19517TIP3    H280043   4.071   3.899   0.721 -0.4127  0.3354 -0.8463
19518TIP3   OH280044   0.441   1.928   2.263 -0.1772 -0.7686 -0.1107
19518TIP3    H180045   0.354   1.901   2.293 -0.9467  1.0516 -0.5435
19518TIP3    H280046   0.491   1.940   2.343 -0.0534 -2.5381  0.1241
19519TIP3   OH280047   2.569   0.064   2.619  0.9095  0.3011 -0.1818
19519TIP3    H180048   2.605   0.114   2.545  0.4840  1.0376  0.0943
19519TIP3    H280049   2.641   0.058   2.681  0.3476  2.7068  0.8464
19520TIP3   OH280050   6.058   6.571  16.644 -0.3224  0.2093 -0.4097
19520TIP3    H180051   6.093   6.591  16.557  0.0453 -0.4912 -0.4284
19520TIP3    H280052   6.112   6.499  16.675 -0.7198  0.1863  0.2356
19521TIP3   OH280053   5.008   5.028  16.799  0.3893  0.2510 -0.6554
19521TIP3    H180054   4.938   5.085  16.766 -1.2333 -1.8813 -1.1255
19521TIP3    H280055   5.069   5.020  16.725 -0.4241 -0.1999 -1.3001
19522TIP3   OH280056   3.299   4.991  13.756 -0.7505  0.2205  0.8012
19522TIP3    H180057   3.340   5.064  13.802  0.4238  0.9621 -1.2928
19522TIP3    H280058   3.221   4.972  13.807 -1.4840  3.3904  1.0731
19523TIP3   OH280059   0.427   0.385  14.728 -0.5139 -0.2734  0.6620
19523TIP3    H180060   0.500   0.329  14.705 -0.7941 -1.0337  1.5460
19523TIP3    H280061   0.462   0.446  14.793 -0.0046  1.1449 -0.8788
19524TIP3   OH280062   1.274   3.696   0.347  0.4262  0.0106 -0.1818
19524TIP3    H180063   1.272   3.603   0.325  2.7051  0.1065 -1.1175
19524TIP3    H280064   1.305   3.699   0.438 -1.5322 -0.1565  0.5315
19525TIP3   OH280065   3.915   3.398   4.886  0.4337 -0.3057 -0.4745
19525TIP3    H180066   3.940   3.482   4.925 -0.4133 -0.6706  0.9125
19525TIP3    H280067   3.993   3.343   4.896  0.9690  0.2679 -1.3250
19526TIP3   OH280068   1.007   1.283   3.010 -0.4503 -0.3634  0.3653
19526TIP3    H180069   1.086   1.337   3.021  0.3344 -0.9169 -1.9517
19526TIP3    H280070   0.980   1.299   2.920 -1.1310 -2.6118  0.1284
19527TIP3   OH280071   2.722   2.979   5.744 -0.0384  0.6174  0.3317
19527TIP3    H180072   2.702   3.067   5.775 -0.4034  0.8579 -0.5409
19527TIP3    H280073   2.784   2.944   5.808 -1.3299  0.7914  1.7101
19528TIP3   OH280074   6.401   2.334   3.431  0.0438 -0.4241 -0.3306
19528TIP3    H180075   6.392   2.429   3.418  1.0196 -0.4388 -1.2796
19528TIP3    H280076   6.483   2.325   3.479 -0.2217 -0.7675  0.0561
19529TIP3   OH280077   1.618   1.529   0.747  0.5364  0.3033  0.2272
19529TIP3    H180078   1.633   1.532   0.841  1.2998  0.7578  0.0920
19529TIP3    H280079   1.524   1.512   0.739  0.7688 -1.7997  1.0730
19530TIP3   OH280080   0.913   1.507  16.105 -0.1297 -0.3729  0.0161
19530TIP3    H180081   0.923   1.475  16.194  0.8542  0.8113  0.3701
19530TIP3    H280082   1.003   1.517  16.073 -0.3836  1.3334 -0.2857
19531TIP3   OH280083   0.154   3.617   1.438 -0.6432 -0.6603  0.1603
19531TIP3    H180084   0.193   3.581   1.518 -2.0015 -0.0695  1.1354
19531TIP3    H280085   0.221   3.677   1.404 -0.1536 -0.6899  1.0363
19532TIP3   OH280086   3.183   3.202   2.505  0.2202 -0.3272  1.0257
19532TIP3    H180087   3.171   3.118   2.550 -1.3986 -0.6872  0.0233
19532TIP3    H280088   3.182   3.178   2.412  2.1091  0.5485  0.7497
19533TIP3   OH280089   2.710   5.155   0.590 -0.0154 -0.6732 -0.0823
19533TIP3    H180090   2.776   5.085   0.584 -0.5254 -1.2309  0.5976
19533TIP3    H280091   2.648   5.123   0.656  0.6123  1.1292  1.4695
19534TIP3   OH280092   4.344   2.943  15.019  0.7252  0.0432 -0.2405
19534TIP3    H180093   4.427   2.907  15.048  0.5990 -0.1985 -0.1742
19534TIP3    H280094   4.354   3.038  15.027  1.0235  0.0180 -0.3161
19535TIP3   OH280095   1.950   2.709  12.914 -0.0785  0.6959  0.3315
19535TIP3    H180096   1.917   2.736  13.000 -0.9701  1.7816 -0.3169
19535TIP3    H280097   1.873   2.714  12.857  0.1391 -1.5726 -0.2285
19536TIP3   OH280098   5.306   1.272  11.544 -0.0095  0.0355  0.9536
19536TIP3    H180099   5.334   1.213  11.614  0.0028  2.0332  2.7191
19536TIP3    H280100   5.266   1.346  11.590  0.7433  1.8163 -1.1291
19537TIP3   OH280101   3.271   0.075  16.100  0.3034 -0.2109 -0.2257
19537TIP3    H180102   3.296   0.102  16.188  0.6394 -1.8274  0.2171
19537TIP3    H280103   3.175   0.072  16.102  0.1973  1.6490 -0.5540
19538TIP3   OH280104   0.888   3.335   0.205  0.0495  0.1138 -0.5644
19538TIP3    H180105   0.793   3.345   0.193 -0.1167  0.2182  0.7041
19538TIP3    H280106   0.897   3.261   0.265  0.7671  0.1034 -0.6735
19539TIP3   OH280107   0.282   2.588   1.505  0.2829 -0.3734 -0.1046
19539TIP3    H180108   0.334   2.664   1.533 -0.1011 -0.4276  0.7783
19539TIP3    H280109   0.202   2.593   1.556  1.7430 -3.3907  2.8724
19540TIP3   OH280110   4.401   0.850   3.217 -0.0474  0.2235 -0.0973
19540TIP3    H180111   4.338   0.899   3.271  1.3838  2.8354 -0.6163
19540TIP3    H280112   4.431   0.914   3.153  1.9680 -1.3982 -0.8605
19541TIP3   OH280113   3.942   1.448   2.246  0.0804 -0.3140  0.0128
19541TIP3    H180114   4.013   1.416   2.190  0.1190 -0.3514  0.0817
19541TIP3    H280115   3.908   1.370   2.289  0.2594 -0.2510  0.2790
19542TIP3   OH280116   2.825   6.175   3.526 -0.2711  0.5463 -0.4103
19542TIP3    H180117   2.753   6.237   3.532  0.0050  1.0002 -1.5165
19542TIP3    H280118   2.794   6.107   3.466 -0.0862  0.2969 -0.2286
19543TIP3   OH280119   5.585   6.438   0.240 -0.0636 -0.4884  0.3341
19543TIP3    H180120   5.537   6.519   0.253 -0.4075 -0.4876 -0.8674
19543TIP3    H280121   5.651   6.459   0.175 -0.0903 -1.1495  0.0852
19544TIP3   OH280122   4.869   1.823  13.712 -0.8233  0.3446 -0.6650
19544TIP3    H180123   4.931   1.844  13.642  0.3578  4.1425  1.2690
19544TIP3    H280124   4.824   1.906  13.730  0.5575  0.2908  4.5225
19545TIP3   OH280125   5.024   2.151  15.582  0.5562 -0.0851  0.6397
19545TIP3    H180126   5.020   2.208  15.505 -0.6288  2.0071  2.1246
19545TIP3    H280127   5.085   2.195  15.641  1.7665 -1.8678  0.7851
19546TIP3   OH280128   0.094   1.377  16.276  0.0249  0.7451 -0.2553
19546TIP3    H180129   0.034   1.349  16.345  0.2312  1.5981  0.2919
19546TIP3    H280130   0.172   1.406  16.323  1.0348 -0.6991 -0.9738
19547TIP3   OH280131   5.326   6.736  10.956  0.0613  0.2659 -0.2323
19547TIP3    H180132   5.266   6.663  10.968  1.0009 -0.6699 -1.0158
19547TIP3    H280133   5.400   6.699  10.907  1.2542  1.3815  0.6410
19548TIP3   OH280134   6.694   3.728   5.665 -0.4282 -0.3873 -0.5111
19548TIP3    H180135   6.742   3.647   5.650 -0.5721 -0.2762 -1.6601
19548TIP3    H280136   6.626   3.704   5.729 -0.7183 -1.2776 -1.1261
19549TIP3   OH280137   4.986   5.999  15.436  0.2919  0.2742 -0.5298
19549TIP3    H180138   5.001   6.000  15.342  1.3941  0.0201 -0.3809
19549TIP3    H280139   4.995   6.090  15.464 -0.1889  0.3713 -0.6884
19550TIP3   OH280140   0.713   6.186   3.358  0.3128  0.5905  0.2365
19550TIP3    H180141   0.793   6.157   3.401 -0.1387  0.2513  0.8548
19550TIP3    H280142   0.654   6.210   3.429 -0.4086  0.1229 -0.1847
19551TIP3   OH280143   2.306   6.616  15.488  0.7640  0.3191  0.2885
19551TIP3    H180144   2.397   6.595  15.511  1.2220  1.6570 -0.2063
19551TIP3    H280145   2.307   6.628  15.393 -0.0640 -0.2542  0.2042
19552TIP3   OH280146   1.403   0.966   4.258  0.2716 -0.0239  0.2150
19552TIP3    H180147   1.475   0.903   4.263 -0.0751 -0.3467  1.9115
19552TIP3    H280148   1.368   0.956   4.169  0.9169 -1.4368  0.0879
19553TIP3   OH280149   0.456   2.569  15.240 -0.4689  0.4031 -0.5257
19553TIP3    H180150   0.504   2.581  15.321 -1.2929  1.1988 -0.1308
19553TIP3    H280151   0.523   2.553  15.174  0.3143  1.2570  0.0413
19554TIP3   OH280152   6.633   2.041  15.490  0.1622  0.5111 -0.0579
19554TIP3    H180153   6.692   2.006  15.424  1.0071  2.5615 -0.4622
19554TIP3    H280154   6.632   2.135  15.474 -0.1352  0.9982  2.4269
19555TIP3   OH280155   6.397   1.702  17.127  0.4952 -0.0554  0.7055
19555TIP3    H180156   6.440   1.735  17.206 -0.2176  0.4788  0.8897
19555TIP3    H280157   6.308   1.681  17.156  0.0855  0.5856 -0.0356
19556TIP3   OH280158   3.579   3.102  12.533  0.6475  0.2850  0.0120
19556TIP3    H180159   3.494   3.142  12.551 -0.3566 -1.1299 -1.3105
19556TIP3    H280160   3.621   3.094  12.619 -1.6968 -1.4268  1.0895
19557TIP3   OH280161   5.491   4.785  11.702 -0.0455 -0.1289  0.0324
19557TIP3    H180162   5.406   4.779  11.658 -0.9220 -0.5062  1.7014
19557TIP3    H280163   5.533   4.862  11.663 -1.4062  0.4166 -0.3955
19558TIP3   OH280164   2.974   3.624   6.319 -0.7895 -0.2394 -0.4984
19558TIP3    H180165   3.025   3.594   6.243 -0.7438  0.5188 -0.7715
19558TIP3    H280166   2.964   3.718   6.306 -0.7183 -0.0911  0.4868
19559TIP3   OH280167   6.175   6.783   6.326  0.5965  0.0098 -0.0259
19559TIP3    H180168   6.263   6.746   6.318  0.4716 -0.3165  0.1132
19559TIP3    H280169   6.122   6.712   6.361  0.1874  0.0767 -0.4990
19560TIP3   OH280170   5.682   3.379   2.293 -0.8189 -0.1664  0.1217
19560TIP3    H180171   5.743   3.426   2.350 -1.0999  2.0367 -1.3138
19560TIP3    H280172   5.686   3.425   2.210 -3.6934 -0.5908 -0.3279
19561TIP3   OH280173   0.354   3.116   3.976  0.2352  0.1271 -0.0919
19561TIP3    H180174   0.317   3.063   4.046 -1.3774 -1.4604 -2.0152
19561TIP3    H280175   0.295   3.103   3.902  2.4880  0.7645 -2.1313
19562TIP3   OH280176   2.873   5.984   1.664  0.0511  0.0110  0.2555
19562TIP3    H180177   2.889   6.004   1.757  0.8628 -1.6527  0.4966
19562TIP3    H280178   2.941   6.033   1.618  0.6870 -0.4807  0.6644
19563TIP3   OH280179   2.553   3.661   5.792  0.5683  0.3083 -0.5606
19563TIP3    H180180   2.595   3.736   5.751  0.1461 -0.6238 -2.8615
19563TIP3    H280181   2.460   3.670   5.770  0.0349  0.6381  1.6767
19564TIP3   OH280182   0.554   1.042  12.728  0.0753 -0.6555  0.7568
19564TIP3    H180183   0.626   0.988  12.694 -0.4421 -0.1086 -1.2775
19564TIP3    H280184   0.510   0.985  12.792 -0.0989 -2.4661 -0.8839
19565TIP3   OH280185   0.538   6.781  14.256 -0.4294  0.4817 -0.2112
19565TIP3    H180186   0.633   6.781  14.243 -0.5689 -0.2311 -1.3304
19565TIP3    H280187   0.506   6.845  14.192 -0.9254 -1.3717 -1.9211
19566TIP3   OH280188   0.071   1.691  12.367 -0.2420  0.9861 -0.3364
19566TIP3    H180189   0.066   1.779  12.403 -0.0912  0.5241  0.8909
19566TIP3    H280190   0.165   1.672  12.363 -0.2668  0.9436 -0.7556
19567TIP3   OH280191   6.677   3.277   4.029  0.4146 -0.4212 -0.2684
19567TIP3    H180192   6.745   3.340   4.053  1.0666 -1.4704  0.7695
19567TIP3    H280193   6.686   3.267   3.934  0.1415  1.1894 -0.4916
19568TIP3   OH280194   2.579   4.643   5.107 -0.1033  0.0736  0.3231
19568TIP3    H180195   2.517   4.640   5.180 -0.6341  0.5786 -0.0941
19568TIP3    H280196   2.549   4.573   5.048  0.1115 -0.1020  0.4220
19569TIP3   OH280197   6.071   5.952  11.929  0.2167  0.0829  0.1273
19569TIP3    H180198   6.073   5.998  11.845  0.3620 -0.4389 -0.1600
19569TIP3    H280199   5.982   5.965  11.963 -1.1243 -2.7998 -1.8648
19570TIP3   OH280200   2.976   2.800  17.069 -0.0705  0.4075  0.4387
19570TIP3    H180201   3.004   2.772  16.982 -0.4767  0.7210  0.2019
19570TIP3    H280202   2.894   2.752  17.085 -0.7936  1.4677  0.0125
19571TIP3   OH280203   2.425   2.410  14.434  0.1149 -0.0919 -0.2611
19571TIP3    H180204   2.391   2.450  14.354  1.1263  0.3086 -0.5128
19571TIP3    H280205   2.516   2.441  14.439  0.9341 -2.2882 -0.4198
19572TIP3   OH280206   2.772   1.608  14.879 -0.4584 -0.3594  0.1945
19572TIP3    H180207   2.688   1.592  14.920  0.5851 -1.3340  2.0958
19572TIP3    H280208   2.818   1.666  14.939  1.0804 -1.7206  0.4048
19573TIP3   OH280209   3.351   1.405   5.717  0.2385  0.0265  0.0347
19573TIP3    H180210   3.408   1.341   5.674  0.8843 -0.1635  1.1378
19573TIP3    H280211   3.389   1.416   5.805 -0.1872  1.5019  0.0601
19574TIP3   OH280212   6.024   1.304  13.598  0.2538  0.1935  0.3225
19574TIP3    H180213   6.069   1.285  13.516  0.0370  1.8089 -0.2062
19574TIP3    H280214   5.942   1.254  13.593  0.4612 -0.0998 -0.2094
19575TIP3   OH280215   3.743   1.644  11.480 -0.1018 -0.1357  0.4877
19575TIP3    H180216   3.735   1.734  11.450  0.4948 -0.9095 -2.2820
19575TIP3    H280217   3.831   1.617  11.453  0.0715 -1.2960  2.0822
19576TIP3   OH280218   1.361   5.076  12.454 -0.5930  0.2297 -0.4603
19576TIP3    H180219   1.345   5.063  12.548 -1.1336  0.2249 -0.5530
19576TIP3    H280220   1.448   5.039  12.440 -0.1979  0.8805  0.1808
19577TIP3   OH280221   4.202   3.291   0.913 -0.1125 -0.0593  0.5838
19577TIP3    H180222   4.151   3.364   0.877 -0.2843  0.9239  2.6827
19577TIP3    H280223   4.218   3.316   1.004  2.6290 -1.1539  0.4827
19578TIP3   OH280224   4.892   0.621  13.597 -0.0495  0.1424 -0.3238
19578TIP3    H180225   4.838   0.623  13.517 -2.3933 -0.9332  1.1092
19578TIP3    H280226   4.869   0.702  13.642  1.6509  0.9930 -0.9007
19579TIP3   OH280227   5.034   4.326  14.842  0.0915  0.3418  0.2391
19579TIP3    H180228   4.943   4.344  14.866  0.5467  1.2101  1.4385
19579TIP3    H280229   5.042   4.231  14.846 -0.9197  0.2161 -0.5116
19580TIP3   OH280230   5.498   4.555  16.471 -0.0446 -0.1982  0.4433
19580TIP3    H180231   5.457   4.548  16.558 -0.4259  0.0597  0.2909
19580TIP3    H280232   5.521   4.465  16.448  1.7655 -0.0848  1.6034
19581TIP3   OH280233   0.455   0.447   6.219 -0.0976 -0.4495  0.1288
19581TIP3    H180234   0.447   0.406   6.133 -2.7298 -2.3939  1.1751
19581TIP3    H280235   0.425   0.537   6.205 -4.3054 -1.7059 -0.4722
19582TIP3   OH280236   6.165   5.093   4.959 -0.3477 -0.4956 -0.0992
19582TIP3    H180237   6.184   5.187   4.969 -0.6889 -0.6027  1.8991
19582TIP3    H280238   6.242   5.058   4.915  0.0829  0.6045 -0.2636
19583TIP3   OH280239   3.071   5.587  15.406  0.0806 -0.1279 -0.0390
19583TIP3    H180240   3.048   5.679  15.394 -0.9225 -0.6044 -2.3193
19583TIP3    H280241   3.004   5.553  15.465 -0.1157  0.3712  0.0315
19584TIP3   OH280242   6.726   2.891   1.115  0.2637 -0.1894  0.6632
19584TIP3    H180243   6.652   2.894   1.055 -1.8942 -1.3382  3.0643
19584TIP3    H280244   6.761   2.802   1.106  0.5036 -0.0838  0.5214
19585TIP3   OH280245   1.343   1.960   2.311  0.1500 -0.5268 -0.3170
19585TIP3    H180246   1.291   1.935   2.387  2.1220 -0.0230  1.3104
19585TIP3    H280247   1.292   2.028   2.268 -1.2453 -1.1762  0.2524
19586TIP3   OH280248   1.369   4.432   0.143 -0.2013 -0.2822  0.5142
19586TIP3    H180249   1.340   4.456   0.055  0.8254 -1.1427 -0.0960
19586TIP3    H280250   1.320   4.353   0.164  0.2095 -0.6013  0.3098
19587TIP3   OH280251   2.200   5.585   1.552  0.1291  0.9525 -0.4853
19587TIP3    H180252   2.241   5.618   1.632  0.5556 -0.4154 -0.1208
19587TIP3    H280253   2.109   5.566   1.577  0.1973  0.7495 -0.3968
19588TIP3   OH280254   2.905   0.497  15.402 -0.1668 -1.0084  0.0975
19588TIP3    H180255   2.928   0.530  15.316 -1.7196 -0.8920 -0.2959
19588TIP3    H280256   2.812   0.517  15.412  0.3437  0.5540  2.5084
19589TIP3   OH280257   3.314   5.756  11.995  0.4497 -0.3074 -0.2569
19589TIP3    H180258   3.222   5.749  11.968 -0.7623  5.1000  1.3010
19589TIP3    H280259   3.313   5.729  12.087  0.2216  0.3889 -0.0478
19590TIP3   OH280260   0.500   5.799   1.964 -0.3393  0.2326  0.4261
19590TIP3    H180261   0.517   5.758   2.049  1.5299  0.3354  0.1456
19590TIP3    H280262   0.550   5.880   1.966 -1.3246  0.8893 -0.3051
19591TIP3   OH280263   5.744   2.919  15.558  0.1601  0.1670  0.0119
19591TIP3    H180264   5.750   2.892  15.467  0.3336  2.2622 -0.6581
19591TIP3    H280265   5.686   2.855  15.598  0.2894 -0.9513 -1.4975
19592TIP3   OH280266   5.788   0.459  12.508  0.9296  0.2104  0.2794
19592TIP3    H180267   5.720   0.502  12.558  0.5351  0.6886 -0.6368
19592TIP3    H280268   5.803   0.376  12.553 -0.7190 -0.1982  0.1329
19593TIP3   OH280269   2.569   6.063  13.665  0.0703 -0.4279  0.4631
19593TIP3    H180270   2.479   6.095  13.666  0.6925  1.4515  0.1077
19593TIP3    H280271   2.561   5.968  13.656 -1.8724 -0.1725 -1.2305
19594TIP3   OH280272   0.157   3.297  12.262 -0.4826  0.2511  0.4438
19594TIP3    H180273   0.224   3.231  12.246 -2.5095 -1.5399 -1.1389
19594TIP3    H280274   0.200   3.360  12.321  2.3911 -1.0286 -0.0963
19595TIP3   OH280275   1.718   6.522   1.263  0.5226  0.4815 -0.1537
19595TIP3    H180276   1.657   6.585   1.226  0.4415  0.8846  0.6492
19595TIP3    H280277   1.670   6.439   1.263  0.1448  0.6957  0.0212
19596TIP3   OH280278   1.654   3.452   4.737 -1.0218 -0.1428 -0.3295
19596TIP3    H180279   1.669   3.470   4.644 -1.7271 -1.2285 -0.6774
19596TIP3    H280280   1.732   3.403   4.765 -0.3635  1.0110 -0.0802
19597TIP3   OH280281   5.372   6.330  15.182 -0.2133  0.2446  0.4205
19597TIP3    H180282   5.434   6.389  15.224  0.9980  0.0131 -0.9675
19597TIP3    H280283   5.353   6.371  15.098 -0.3859 -0.6758 -0.0072
19598TIP3   OH280284   1.296   2.555  14.299  0.4107 -0.0913 -0.4849
19598TIP3    H180285   1.335   2.491  14.359  0.6876 -2.3431 -2.8688
19598TIP3    H280286   1.206   2.524  14.287  0.4719  0.0955 -1.4953
19599TIP3   OH280287   1.963   2.991   1.490  0.0529 -0.1401 -0.4315
19599TIP3    H180288   1.996   2.978   1.579  0.0004 -0.5441 -0.4693
19599TIP3    H280289   2.042   2.995   1.436  0.1306  1.0000 -0.2635
19600TIP3   OH280290   0.611   3.958   1.076 -0.5739  0.4490 -0.0692
19600TIP3    H180291   0.612   4.053   1.061  1.0488  0.4540 -0.0742
19600TIP3    H280292   0.552   3.946   1.150  0.1439  1.5920  0.7032
19601TIP3   OH280293   3.077   2.736  15.597 -0.1107  0.0240 -0.0110
19601TIP3    H180294   3.146   2.779  15.648 -0.3171 -0.5569  0.7978
19601TIP3    H280295   3.109   2.646  15.586 -0.6898 -0.2282  0.3030
19602TIP3   OH280296   5.130   4.305   4.344 -0.1283  0.0147 -0.5305
19602TIP3    H180297   5.057   4.353   4.303 -0.2546  0.3276  0.0500
19602TIP3    H280298   5.100   4.215   4.349 -0.9559  0.3367  0.7450
19603TIP3   OH280299   3.972   2.438   3.502 -0.1777 -0.3881  0.0936
19603TIP3    H180300   3.915   2.365   3.526  0.5672 -1.2228 -0.5680
19603TIP3    H280301   3.929   2.478   3.427 -0.2845 -0.5447  0.0707
19604TIP3   OH280302   5.186   4.036   3.494 -0.1805 -0.3159  0.2012
19604TIP3    H180303   5.274   4.001   3.479 -0.9159 -3.1525  1.6661
19604TIP3    H280304   5.180   4.113   3.438  3.1196 -0.1663 -0.1425
19605TIP3   OH280305   6.002   1.665   5.960  0.0851  0.2309  0.1197
19605TIP3    H180306   5.945   1.727   6.005 -0.5955 -1.2460  1.3731
19605TIP3    H280307   5.992   1.686   5.867 -0.9455  1.2855  0.4445
19606TIP3   OH280308   4.806   2.106  15.742  0.1728  0.0300  0.6046
19606TIP3    H180309   4.809   2.018  15.706  0.0426  0.1691  0.2526
19606TIP3    H280310   4.879   2.152  15.701 -0.5758  0.4814 -0.2666
19607TIP3   OH280311   4.617   3.720  11.159 -0.5682  1.0181  0.1883
19607TIP3    H180312   4.570   3.747  11.238 -1.1160  2.1113 -0.4879
19607TIP3    H280313   4.680   3.790  11.143  1.4770 -0.5128  1.1836
19608TIP3   OH280314   4.463   1.555   2.164 -0.3158  0.2025 -0.1138
19608TIP3    H180315   4.374   1.519   2.170 -1.0766  1.5794 -2.0339
19608TIP3    H280316   4.487   1.575   2.254 -1.6831 -0.7918  0.5117
19609TIP3   OH280317   6.400   3.023  15.830  0.0388  0.2251  0.0198
19609TIP3    H180318   6.398   3.033  15.735 -0.3738  1.8614  0.1724
19609TIP3    H280319   6.325   2.967  15.851 -2.3105  2.9962 -0.3473
19610TIP3   OH280320   6.329   0.826  11.777 -0.5590  0.3704  0.4400
19610TIP3    H180321   6.268   0.872  11.833  1.0734 -1.0110  3.6346
19610TIP3    H280322   6.401   0.888  11.763 -1.2220  0.9134 -0.6894
19611TIP3   OH280323   3.859   3.997  11.972  0.7899  0.3603 -0.4152
19611TIP3    H180324   3.798   3.936  11.932 -0.5892  1.4703 -0.0910
19611TIP3    H280325   3.909   3.943  12.034 -0.8354 -0.3572  0.3560
19612TIP3   OH280326   2.982   4.695  17.004 -0.0861 -0.6745 -0.0251
19612TIP3    H180327   3.039   4.729  17.073 -0.7411 -2.6502  1.5787
19612TIP3    H280328   3.028   4.715  16.922  0.6325  1.8725  0.9205
19613TIP3   OH280329   3.296   6.499   5.775  0.0895  0.5171 -0.4482
19613TIP3    H180330   3.358   6.570   5.758  2.6082 -1.6335 -0.8581
19613TIP3    H280331   3.269   6.469   5.689 -3.6646  2.9296 -0.3722
19614TIP3   OH280332   4.373   0.171   6.216  0.0306  0.3759  0.2192
19614TIP3    H180333   4.311   0.208   6.152 -1.3931 -2.2680 -0.0752
19614TIP3    H280334   4.455   0.164   6.168 -0.4870  0.3355 -0.6876
19615TIP3   OH280335   2.146   3.872   4.378 -0.2527  0.2615  0.5227
19615TIP3    H180336   2.168   3.882   4.471 -1.4397  1.0742  0.7400
19615TIP3    H280337   2.110   3.957   4.353  2.0973  0.8378 -1.3162
19616TIP3   OH280338   6.561   5.366   5.327  0.0235  0.0569  0.2157
19616TIP3    H180339   6.577   5.433   5.261  1.6808 -1.6035 -1.2107
19616TIP3    H280340   6.516   5.296   5.279 -2.4619  0.4025  1.8608
19617TIP3   OH280341   4.819   3.331  17.284 -0.1082 -0.0708 -0.3038
19617TIP3    H180342   4.726   3.310  17.276 -0.4257  0.8237  0.8263
19617TIP3    H280343   4.860   3.286  17.210 -1.3401 -1.0105 -0.4466
19618TIP3   OH280344   1.952   1.927   1.199  0.4686 -0.5553  0.7157
19618TIP3    H180345   2.000   1.957   1.122  0.9433  0.4401  1.3809
19618TIP3    H280346   1.860   1.943   1.177  0.5370 -0.9729  0.0787
19619TIP3   OH280347   3.625   5.173  11.564  0.3457 -0.3032  0.6389
19619TIP3    H180348   3.548   5.137  11.520 -0.9511  0.2323  2.3761
19619TIP3    H280349   3.698   5.148  11.508 -1.0544 -0.9972 -0.9676
19620TIP3   OH280350   1.788   6.355  15.596  0.1810  0.1398 -0.2485
19620TIP3    H180351   1.795   6.383  15.504  2.3373  0.0112 -0.1836
19620TIP3    H280352   1.876   6.324  15.618  0.1237  1.5311  2.2974
19621TIP3   OH280353   4.958   5.989  15.009 -0.2331  0.5169  0.3728
19621TIP3    H180354   5.034   6.046  15.019  0.1145  0.8587 -3.1257
19621TIP3    H280355   4.889   6.045  14.975 -0.4151 -0.7221 -1.4607
19622TIP3   OH280356   4.203   2.261   4.497  0.5209  0.5326 -0.5360
19622TIP3    H180357   4.219   2.218   4.581  0.2928  2.0719  0.3317
19622TIP3    H280358   4.239   2.201   4.432  2.5301  0.2277  0.7817
19623TIP3   OH280359   3.400   1.616   2.580 -0.1341 -0.4256 -0.0700
19623TIP3    H180360   3.365   1.652   2.662  1.8243 -0.2022  0.7236
19623TIP3    H280361   3.446   1.537   2.607 -0.2010 -0.8199 -1.0927
19624TIP3   OH280362   0.634   5.421   1.474 -0.4447 -0.1611  0.3346
19624TIP3    H180363   0.659   5.499   1.525  0.0876  0.2447 -0.5154
19624TIP3    H280364   0.715   5.371   1.467 -0.5553 -0.2969  0.0404
19625TIP3   OH280365   4.865   4.199  13.177  0.0148  0.4971 -0.0803
19625TIP3    H180366   4.842   4.221  13.086  0.6796 -1.7134 -0.8487
19625TIP3    H280367   4.862   4.282  13.223  1.6766  2.0688 -2.5567
19626TIP3   OH280368   0.790   4.410   5.148 -0.0784  0.4225  0.3599
19626TIP3    H180369   0.764   4.376   5.233 -1.7228 -0.4007 -0.4213
19626TIP3    H280370   0.751   4.497   5.143 -0.2503  0.3450  0.3343
19627TIP3   OH280371   2.022   3.710  13.038  0.4545  0.8515  0.1952
19627TIP3    H180372   2.046   3.780  13.098  0.9066  0.7519  0.1335
19627TIP3    H280373   1.972   3.753  12.968  1.6185  1.2853 -0.3933
19628TIP3   OH280374   4.232   2.018  12.746  0.0827  0.2016  0.0162
19628TIP3    H180375   4.325   2.031  12.765  0.8526 -1.1618 -2.3966
19628TIP3    H280376   4.193   2.105  12.759  1.8209  0.9697  0.4341
19629TIP3   OH280377   2.694   5.551   3.494 -0.0504 -0.3744 -0.4355
19629TIP3    H180378   2.651   5.467   3.480  0.4743 -0.5929 -0.7617
19629TIP3    H280379   2.729   5.574   3.408  0.3461 -0.1196 -0.2064
19630TIP3   OH280380   5.876   6.169   1.941  0.2559 -0.4869 -0.0489
19630TIP3    H180381   5.964   6.205   1.953  0.6754 -1.3808 -0.3492
19630TIP3    H280382   5.872   6.096   2.003 -0.4167 -0.2170  0.2287
19631TIP3   OH280383   0.810   6.592  17.166  0.0285 -0.5767  0.0484
19631TIP3    H180384   0.798   6.499  17.189 -2.6434 -0.6690 -1.4111
19631TIP3    H280385   0.903   6.598  17.143  0.0795 -3.1584 -0.8100
19632TIP3   OH280386   6.183   4.896   2.360  0.5682  0.7864  0.1529
19632TIP3    H180387   6.121   4.922   2.292  1.7026 -0.0097 -1.2740
19632TIP3    H280388   6.240   4.972   2.371  0.4288  0.8914  0.1510
19633TIP3   OH280389   6.106   5.639   1.151  0.2720  0.2219  0.1800
19633TIP3    H180390   6.130   5.636   1.058 -1.1814 -1.7608 -0.2066
19633TIP3    H280391   6.184   5.611   1.198  0.4251 -0.6968 -0.6044
19634TIP3   OH280392   6.723   2.328  11.144  0.3767  0.3804  0.1088
19634TIP3    H180393   6.646   2.277  11.168  0.3354 -0.4457 -1.6472
19634TIP3    H280394   6.700   2.371  11.062  1.0485  1.8549  0.6417
19635TIP3   OH280395   6.390   1.561   2.247  0.3780 -0.0569 -0.3913
19635TIP3    H180396   6.394   1.466   2.260 -1.4783  0.0458  1.3341
19635TIP3    H280397   6.408   1.598   2.333 -0.4178  1.1108 -0.7124
19636TIP3   OH280398   4.615   6.600  11.617 -0.1137  0.7814  0.4644
19636TIP3    H180399   4.649   6.513  11.638  0.2274  0.6511 -0.5776
19636TIP3    H280400   4.527   6.601  11.654 -0.2173 -0.1088  0.2675
19637TIP3   OH280401   3.715   5.483   2.330 -0.0769  0.2120 -0.2558
19637TIP3    H180402   3.636   5.521   2.292  0.1315  0.4148 -0.4901
19637TIP3    H280403   3.684   5.435   2.408 -0.3575  0.7447 -0.0382
19638TIP3   OH280404   5.393   4.953  16.595  0.5477 -0.1567 -0.3016
19638TIP3    H180405   5.485   4.977  16.584 -0.0875  1.6204 -2.3638
19638TIP3    H280406   5.359   5.017  16.657  0.3085  0.2614 -0.8652
19639TIP3   OH280407   1.430   0.097  15.947 -0.3238 -0.1602  0.4079
19639TIP3    H180408   1.519   0.082  15.914 -0.3859 -0.1348  0.2233
19639TIP3    H280409   1.389   0.151  15.879 -0.1720  0.6676  0.9623
19640TIP3   OH280410   6.267   2.201   0.604  0.7040  0.6376 -0.4577
19640TIP3    H180411   6.192   2.189   0.662  0.6141 -0.1822 -0.7285
19640TIP3    H280412   6.250   2.284   0.558 -0.1193  0.3763 -0.6343
19641TIP3   OH280413   1.647   3.103   3.612  0.2758  0.2509  0.6173
19641TIP3    H180414   1.682   3.025   3.568  2.1143  1.3045  0.1078
19641TIP3    H280415   1.719   3.166   3.611 -1.1041  1.9304  1.1421
19642TIP3   OH280416   2.353   2.945   2.189 -0.8101 -0.4508  0.0836
19642TIP3    H180417   2.342   2.874   2.126 -0.5947 -0.0049 -0.4713
19642TIP3    H280418   2.288   3.011   2.163 -0.0308  0.1797 -0.3246
19643TIP3   OH280419   5.779   5.889  16.087  0.2047 -0.5138 -0.0574
19643TIP3    H180420   5.700   5.847  16.120 -1.0961  1.8307  0.0401
19643TIP3    H280421   5.801   5.839  16.008 -2.4680 -0.1663 -1.1418
19644TIP3   OH280422   5.053   5.297   5.589  0.3526 -0.6060  0.8854
19644TIP3    H180423   5.142   5.332   5.590  0.8583 -1.7715 -0.1494
19644TIP3    H280424   5.064   5.205   5.614 -0.4623 -0.9211  0.1306
19645TIP3   OH280425   5.600   5.676   3.249 -0.3061  0.4217  0.3238
19645TIP3    H180426   5.681   5.705   3.206 -1.3158  2.5607 -0.3027
19645TIP3    H280427   5.579   5.747   3.310 -0.8822 -0.8582  1.6551
19646TIP3   OH280428   5.001   6.298   5.128  0.1722 -0.0483 -0.1152
19646TIP3    H180429   4.943   6.238   5.176 -0.0914  0.0710 -0.2796
19646TIP3    H280430   5.079   6.304   5.182 -1.1906  2.3433  1.8213
19647TIP3   OH280431   0.867   0.069  11.151 -0.1528 -0.9110  0.5454
19647TIP3    H180432   0.809   0.134  11.190 -0.5601 -1.8984  1.6549
19647TIP3    H280433   0.915   0.117  11.083 -1.3879  0.2147  0.4273
19648TIP3   OH280434   6.779   4.195   1.575 -0.4360  0.3957  0.5320
19648TIP3    H180435   6.732   4.276   1.557  0.4481  0.6953 -0.5087
19648TIP3    H280436   6.870   4.222   1.589 -0.2984 -0.3232  1.0888
19649TIP3   OH280437   0.736   4.866  14.012 -0.4002  0.5821  0.6811
19649TIP3    H180438   0.813   4.886  14.066  0.8547  0.3647 -0.9354
19649TIP3    H280439   0.770   4.807  13.944 -1.8082  1.2139 -0.6192
19650TIP3   OH280440   0.876   5.876  14.127  0.3134 -0.3669  0.1441
19650TIP3    H180441   0.930   5.883  14.047 -0.4564  2.2416 -0.2640
19650TIP3    H280442   0.876   5.965  14.162 -1.7666 -0.8369  1.4572
19651TIP3   OH280443   4.376   5.138   0.470  0.3975  0.2623  0.4779
19651TIP3    H180444   4.439   5.099   0.532  1.4846  0.3072 -0.5528
19651TIP3    H280445   4.326   5.200   0.523  0.7412 -0.2827  1.4822
19652TIP3   OH280446   6.737   4.281   1.190  0.7231  0.3906 -0.2552
19652TIP3    H180447   6.697   4.305   1.274  1.5792 -0.5950  0.4713
19652TIP3    H280448   6.788   4.202   1.210  3.4757  1.8866 -0.9712
19653TIP3   OH280449   1.250   1.116   2.902  1.0638 -0.4082 -0.5103
19653TIP3    H180450   1.180   1.101   2.838  1.4896 -2.0561 -0.6235
19653TIP3    H280451   1.223   1.195   2.949 -0.0641 -0.1036 -1.6310
19654TIP3   OH280452   1.271   2.046   2.799  0.4008 -0.4151  0.1004
19654TIP3    H180453   1.223   2.053   2.882  1.1112 -0.5832  0.5357
19654TIP3    H280454   1.204   2.058   2.732  0.0780  1.4619  0.7013
19655TIP3   OH280455   2.370   0.583   3.698  0.0831  0.2631  0.1620
19655TIP3    H180456   2.334   0.669   3.675 -0.7243 -0.3354 -0.9235
19655TIP3    H280457   2.294   0.525   3.701  0.7021 -0.5714  0.1229
19656TIP3   OH280458   4.565   2.526  12.596 -0.0572 -0.4563  0.1408
19656TIP3    H180459   4.543   2.610  12.638  1.9987  0.3289 -0.2355
19656TIP3    H280460   4.537   2.460  12.660  0.4698  0.6085  1.5409
19657TIP3   OH280461   2.792   3.927   2.017 -0.2840  0.2883 -0.2706
19657TIP3    H180462   2.869   3.942   1.962  0.3708 -1.5877  0.0601
19657TIP3    H280463   2.815   3.965   2.102 -0.0179  0.3675 -0.3776
19658TIP3   OH280464   5.010   1.487  10.261  0.8027 -0.1010 -0.8624
19658TIP3    H180465   4.987   1.488  10.354  3.1680 -0.5963 -0.2175
19658TIP3    H280466   4.960   1.560  10.224 -0.2283  0.0855  0.7684
19659TIP3   OH280467   5.049   6.151  15.871 -0.0748  0.0476 -0.2454
19659TIP3    H180468   4.988   6.147  15.945 -1.5136  1.8131 -1.2600
19659TIP3    H280469   5.017   6.085  15.810 -0.6368  0.5635 -0.5182
19660TIP3   OH280470   5.842   3.563  13.276 -0.2490  0.0981 -0.4504
19660TIP3    H180471   5.779   3.496  13.304  0.4618 -0.9367 -1.2151
19660TIP3    H280472   5.919   3.548  13.333  0.2982 -0.4458 -1.3040
19661TIP3   OH280473   3.202   5.818   1.920 -0.0168  0.6126  0.1780
19661TIP3    H180474   3.118   5.800   1.964 -1.0452  0.2720 -1.8062
19661TIP3    H280475   3.262   5.753   1.955 -1.1836 -0.5924  0.0176
19662TIP3   OH280476   4.293   3.846   5.932 -0.3643  0.2253  0.0333
19662TIP3    H180477   4.366   3.804   5.978 -0.2363  1.7200  1.2931
19662TIP3    H280478   4.220   3.784   5.941 -0.2131  0.2583  1.8957
19663TIP3   OH280479   1.591   2.340   5.218 -0.0015  0.3590 -0.0006
19663TIP3    H180480   1.548   2.265   5.260  0.1127 -0.9086 -2.0285
19663TIP3    H280481   1.531   2.413   5.233 -0.9843 -0.5194  0.5188
19664TIP3   OH280482   4.342   1.506   0.210  0.0308 -0.1653  0.2771
19664TIP3    H180483   4.327   1.540   0.122 -0.7547  0.0379  0.4802
19664TIP3    H280484   4.407   1.566   0.248  0.5066 -0.3602 -0.2198
19665TIP3   OH280485   2.602   6.533   0.803  0.0927 -0.1981  0.0299
19665TIP3    H180486   2.543   6.587   0.856 -0.6425  1.3028 -2.1542
19665TIP3    H280487   2.683   6.530   0.853 -0.4347  1.4395  1.0682
19666TIP3   OH280488   6.195   3.053  12.657  0.4646  0.0581  0.5314
19666TIP3    H180489   6.148   3.134  12.677 -0.9913 -0.5060 -0.4376
19666TIP3    H280490   6.187   3.001  12.737  0.2165  0.3262  0.6846
19667TIP3   OH280491   5.926   5.374  16.148 -0.6577  0.3441 -0.1767
19667TIP3    H180492   5.949   5.466  16.156  1.3545 -0.1115 -0.0048
19667TIP3    H280493   5.860   5.359  16.216 -0.2162  1.4245  0.5063
19668TIP3   OH280494   5.834   4.332  14.019  0.4183  0.2817  0.0101
19668TIP3    H180495   5.828   4.301  13.929  0.4832 -0.2182  0.1731
19668TIP3    H280496   5.919   4.299  14.049  0.0602 -0.2090  0.4959
19669TIP3   OH280497   2.900   2.471  15.450  0.7522  0.2265  0.0933
19669TIP3    H180498   2.938   2.559  15.448  0.2088  0.5093  1.5715
19669TIP3    H280499   2.961   2.418  15.399  2.2773  1.0018  1.0394
19670TIP3   OH280500   3.734   5.863  16.641  0.4936  0.2027  0.2997
19670TIP3    H180501   3.783   5.802  16.586  0.1484 -0.3977  0.6505
19670TIP3    H280502   3.775   5.856  16.727 -0.0040 -0.0890  0.5241
19671TIP3   OH280503   5.454   2.370  16.435 -0.6457 -0.2323 -0.4216
19671TIP3    H180504   5.376   2.409  16.473 -0.1051  1.2635 -0.7873
19671TIP3    H280505   5.421   2.316  16.364 -1.3329  0.7234 -0.8547
19672TIP3   OH280506   4.915   5.030  13.030 -0.4691  0.2440  0.4786
19672TIP3    H180507   4.875   5.052  12.946 -0.2607  2.3769  0.8870
19672TIP3    H280508   4.844   5.038  13.093 -0.6230 -1.3404  0.5510
19673TIP3   OH280509   2.750   6.059  13.901 -0.1391  0.0954 -0.6953
19673TIP3    H180510   2.674   6.086  13.849 -0.3782  1.5842  0.3577
19673TIP3    H280511   2.763   5.967  13.879 -1.6114  0.0859 -1.6617
19674TIP3   OH280512   2.502   4.089   1.753 -0.5616  0.0510  0.0100
19674TIP3    H180513   2.593   4.119   1.755  0.3521 -2.4724 -0.0649
19674TIP3    H280514   2.499   4.018   1.816 -1.8876 -1.4334 -1.6443
19675TIP3   OH280515   3.764   3.614  14.710  0.2782 -0.0620  0.4313
19675TIP3    H180516   3.830   3.556  14.749  0.5759  0.1244  0.2149
19675TIP3    H280517   3.805   3.701  14.711  0.3165 -0.0606 -0.3254
19676TIP3   OH280518   5.732   3.014  14.934 -0.3959  0.0504  0.2385
19676TIP3    H180519   5.675   2.952  14.889 -0.5467  0.5417 -0.2593
19676TIP3    H280520   5.749   3.082  14.869 -0.3854  0.6246  0.8348
19677TIP3   OH280521   5.348   2.062  14.389  0.4306 -0.0432 -0.2428
19677TIP3    H180522   5.271   2.082  14.442 -1.0455 -2.2046 -1.3878
19677TIP3    H280523   5.359   2.138  14.333 -1.4210  0.0169 -0.6006
19678TIP3   OH280524   4.900   4.448  16.813 -0.2726 -0.0442 -0.2808
19678TIP3    H180525   4.811   4.444  16.847  0.6086 -1.1873  2.1202
19678TIP3    H280526   4.911   4.367  16.763 -0.2314 -0.5069  0.4586
19679TIP3   OH280527   4.143   5.046  12.893  0.2865  0.0263  0.1564
19679TIP3    H180528   4.145   5.140  12.875  1.3933 -0.1303 -0.6838
19679TIP3    H280529   4.210   5.033  12.960  1.9340 -0.4574 -1.5005
19680TIP3   OH280530   6.681   6.673   3.201 -0.1561  0.2545 -0.0130
19680TIP3    H180531   6.722   6.620   3.133 -1.2084  0.6465 -0.9984
19680TIP3    H280532   6.621   6.612   3.246  2.2152 -0.6223  2.1961
19681TIP3   OH280533   3.650   1.722   6.268  0.0439  0.2959 -0.3350
19681TIP3    H180534   3.671   1.629   6.269 -1.1384 -0.0011 -0.9895
19681TIP3    H280535   3.672   1.752   6.357  0.1384 -0.6732 -0.0154
19682TIP3   OH280536   4.963   4.801  12.677 -0.0069 -0.3969 -0.4008
19682TIP3    H180537   4.955   4.757  12.761  0.5046 -1.5401 -0.9334
19682TIP3    H280538   4.876   4.791  12.637 -0.0362 -0.5075 -0.3118
19683TIP3   OH280539   5.807   5.817  14.375  0.3776  0.3977  0.2538
19683TIP3    H180540   5.769   5.768  14.448  1.4884  1.9572  1.9767
19683TIP3    H280541   5.879   5.761  14.345 -0.7830 -0.7787 -0.4550
19684TIP3   OH280542   2.329   1.916   4.095 -0.4667 -0.0456 -0.3036
19684TIP3    H180543   2.237   1.938   4.107 -1.0841 -2.8324  0.9753
19684TIP3    H280544   2.361   1.899   4.183  0.3215 -2.2300 -0.9504
19685TIP3   OH280545   3.823   1.901  12.678 -0.0721  0.1893  0.3582
19685TIP3    H180546   3.903   1.850  12.681 -0.8784 -1.0970  0.6456
19685TIP3    H280547   3.843   1.980  12.729  1.3303  0.4056 -0.4626
19686TIP3   OH280548   1.479   5.122  15.813  0.0585  0.0952 -0.8728
19686TIP3    H180549   1.472   5.177  15.890  1.1359 -0.5134 -0.3105
19686TIP3    H280550   1.421   5.048  15.830  1.7060 -0.9954  0.2385
19687TIP3   OH280551   1.992   5.237   0.671 -0.1492 -0.1194 -0.2958
19687TIP3    H180552   2.040   5.288   0.735  0.3659 -2.5130  1.3715
19687TIP3    H280553   2.057   5.178   0.632 -0.9951 -0.6594 -0.9477
19688TIP3   OH280554   0.402   6.605  11.356  0.0681 -0.0351 -0.3407
19688TIP3    H180555   0.372   6.666  11.288 -0.1890 -0.7585 -0.8982
19688TIP3    H280556   0.461   6.656  11.411  0.3617  0.5469 -1.1767
19689TIP3   OH280557   4.019   2.452  14.286  0.7494 -0.4386  0.2697
19689TIP3    H180558   4.113   2.445  14.301  0.9710 -0.0155 -0.8328
19689TIP3    H280559   4.004   2.402  14.205  0.4229  1.4092 -0.8760
19690TIP3   OH280560   5.805   0.937   6.035 -0.0389  0.2554 -0.4437
19690TIP3    H180561   5.899   0.919   6.039  0.2128  1.6315  1.1060
19690TIP3    H280562   5.769   0.899   6.114 -0.4433  1.3980 -0.0505
19691TIP3   OH280563   3.941   5.046  14.703  0.0421 -0.1621  0.6675
19691TIP3    H180564   3.961   5.138  14.685  1.3991 -0.3014  1.3399
19691TIP3    H280565   3.977   4.999  14.628  0.9944 -0.2858  1.1855
19692TIP3   OH280566   5.427   0.457   1.218 -0.5629  0.1965  0.6534
19692TIP3    H180567   5.409   0.363   1.217 -0.9522  0.2546 -1.7448
19692TIP3    H280568   5.364   0.492   1.281 -1.7260 -0.9237  0.1640
19693TIP3   OH280569   0.592   2.750  14.937  0.2704 -0.1837  0.1316
19693TIP3    H180570   0.585   2.816  14.867  1.6750 -0.7471 -0.5846
19693TIP3    H280571   0.556   2.670  14.898 -0.0689 -0.2095  0.4897
19694TIP3   OH280572   4.837   5.889  16.564 -0.1968 -0.0469  0.5678
19694TIP3    H180573   4.765   5.855  16.618  0.8463 -1.6200  1.0264
19694TIP3    H280574   4.861   5.971  16.606 -1.1142  0.0423  0.9523
19695TIP3   OH280575   5.513   0.329   1.637  0.7739 -0.0483  0.2922
19695TIP3    H180576   5.588   0.294   1.588  0.7915 -0.0936  0.3509
19695TIP3    H280577   5.437   0.294   1.591  0.7932 -0.3286  0.4700
19696TIP3   OH280578   5.521   2.239  10.763  0.5411 -0.3444 -0.2169
19696TIP3    H180579   5.553   2.313  10.711 -0.3672 -0.1561 -0.5191
19696TIP3    H280580   5.479   2.181  10.700 -0.8277  0.0256  0.3166
19697TIP3   OH280581   5.902   0.240  14.960 -0.2563  0.1161  0.6071
19697TIP3    H180582   5.874   0.285  15.040 -1.3781  1.7788 -0.6795
19697TIP3    H280583   5.821   0.221  14.913  0.3480 -1.4081  0.1109
19698TIP3   OH280584   1.937   2.917   0.615 -0.0674  0.2338 -0.0403
19698TIP3    H180585   1.911   2.898   0.525  0.6627 -0.0969 -0.1841
19698TIP3    H280586   1.902   3.004   0.632 -2.2551 -0.6214  0.1507
19699TIP3   OH280587   2.616   1.944   4.156  0.0546  0.0314  0.1552
19699TIP3    H180588   2.612   1.976   4.066  0.8067  1.5708  0.6257
19699TIP3    H280589   2.656   2.016   4.205  0.3455 -1.0560  1.5905
19700TIP3   OH280590   2.206   3.546   4.673  0.2530 -0.4578 -0.0345
19700TIP3    H180591   2.141   3.616   4.673  1.2926  0.5500 -0.8490
19700TIP3    H280592   2.171   3.481   4.612  0.6094  0.7030 -1.5434
19701TIP3   OH280593   1.954   5.785  11.146  1.1201  0.3252  0.6655
19701TIP3    H180594   1.999   5.742  11.073 -0.1352  1.8812 -1.1065
19701TIP3    H280595   1.966   5.878  11.131 -0.6060  0.7265  1.4924
19702TIP3   OH280596   2.542   3.741   4.858 -0.1286 -0.1709  0.1015
19702TIP3    H180597   2.596   3.771   4.785 -0.8477  2.4747  0.5420
19702TIP3    H280598   2.578   3.786   4.935 -1.5747 -0.0678  0.7616
19703TIP3   OH280599   4.663   3.560   4.795 -0.1676 -0.0082 -0.8215
19703TIP3    H180600   4.714   3.535   4.718 -0.3501 -1.7009 -0.4137
19703TIP3    H280601   4.643   3.653   4.780 -0.0060 -0.2302 -2.6987
19704TIP3   OH280602   4.416   6.461  15.554  0.8558  0.1503  0.3741
19704TIP3    H180603   4.430   6.377  15.509  0.5977 -0.1367  0.8150
19704TIP3    H280604   4.416   6.526  15.484 -2.2780 -0.5656 -0.4458
19705TIP3   OH280605   6.130   2.315  16.977 -0.3280  0.1722 -0.4394
19705TIP3    H180606   6.144   2.268  16.895 -1.1831 -1.9248  0.5386
19705TIP3    H280607   6.055   2.270  17.017 -0.2021  1.4291  1.2875
19706TIP3   OH280608   5.893   2.063  11.961  0.7390  0.0966  0.1099
19706TIP3    H180609   5.917   1.980  12.002  1.6981  0.0656 -0.4910
19706TIP3    H280610   5.856   2.115  12.032  1.1879 -0.4254  0.7369
19707TIP3   OH280611   6.446   1.823  16.703  0.0731 -0.5356  0.0612
19707TIP3    H180612   6.530   1.786  16.728  0.9490  1.4924  0.3201
19707TIP3    H280613   6.413   1.765  16.634  1.9146 -1.0829 -0.4067
19708TIP3   OH280614   4.325   1.191  17.172 -0.3188 -0.3960 -0.3524
19708TIP3    H180615   4.337   1.115  17.115 -1.6116 -0.5134 -0.4909
19708TIP3    H280616   4.284   1.257  17.117 -0.9650 -0.2763  0.2585
19709TIP3   OH280617   6.400   3.824  10.522  0.0281  0.3164  0.0933
19709TIP3    H180618   6.455   3.893  10.486  0.9440  0.0919  1.0348
19709TIP3    H280619   6.436   3.806  10.609 -1.9433  0.6300  1.0317
19710TIP3   OH280620   1.833   6.667  10.529  0.2437 -0.3078  0.1846
19710TIP3    H180621   1.851   6.635  10.618  0.0137 -1.2978 -0.1125
19710TIP3    H280622   1.741   6.645  10.514  0.2636 -0.0816 -0.2766
19711TIP3   OH280623   6.197   3.643   3.201  0.2229  0.1970  0.7669
19711TIP3    H180624   6.272   3.657   3.259  1.3252  0.2494 -0.5818
19711TIP3    H280625   6.161   3.730   3.186  1.8951  0.6713 -1.0290
19712TIP3   OH280626   6.125   5.340  12.213 -0.2718  0.7120 -0.0999
19712TIP3    H180627   6.129   5.387  12.130 -0.5577  1.0168  0.0577
19712TIP3    H280628   6.032   5.319  12.224  0.1391 -2.3767 -1.5556
19713TIP3   OH280629   1.289   5.677  13.666  0.2801 -0.0368 -0.0490
19713TIP3    H180630   1.250   5.590  13.653 -0.1423  0.1388  0.0543
19713TIP3    H280631   1.257   5.730  13.593 -3.3945  1.4153  2.3696
19714TIP3   OH280632   0.657   3.200   0.953  0.1713 -0.0021  0.2674
19714TIP3    H180633   0.656   3.257   1.030 -2.1847 -1.3036  1.3011
19714TIP3    H280634   0.564   3.183   0.934  0.7376 -1.3312 -1.6452
19715TIP3   OH280635   4.653   0.316   1.229  0.7882  0.2128 -0.3383
19715TIP3    H180636   4.637   0.397   1.276  0.7364  0.7727 -1.3040
19715TIP3    H280637   4.593   0.318   1.155  1.2571 -0.3810 -0.7492
19716TIP3   OH280638   4.177   1.485  16.804  0.0665 -0.3547 -0.2433
19716TIP3    H180639   4.086   1.483  16.774 -0.1998  0.3983  0.4950
19716TIP3    H280640   4.174   1.456  16.895  0.1772  2.1783  0.6540
19717TIP3   OH280641   1.274   0.241  11.981  0.4783  0.1493  0.5218
19717TIP3    H180642   1.258   0.219  11.889 -0.6129  2.2739  0.1303
19717TIP3    H280643   1.199   0.206  12.028  1.0840 -1.0228  0.6462
19718TIP3   OH280644   3.107   6.172   3.491  0.1156 -0.0450 -0.3684
19718TIP3    H180645   3.168   6.245   3.501  2.1048 -1.7805  1.3387
19718TIP3    H280646   3.024   6.205   3.524  0.9548  1.4681  0.3395
19719TIP3   OH280647   3.593   0.007  15.232 -0.0112 -0.4856  0.4751
19719TIP3    H180648   3.530  -0.047  15.281 -0.8558  1.0445  1.1216
19719TIP3    H280649   3.569  -0.006  15.140 -0.2801 -1.1122  0.6273
19720TIP3   OH280650   1.212   1.478   1.265 -0.4510  0.3180  0.5746
19720TIP3    H180651   1.179   1.568   1.261  1.6840  1.1880  1.4554
19720TIP3    H280652   1.219   1.459   1.358  0.9518 -0.0248  0.4181
19721TIP3   OH280653   2.306   5.078  16.462 -0.1520 -0.8970 -0.1863
19721TIP3    H180654   2.226   5.030  16.440 -0.7193  0.4253 -1.1826
19721TIP3    H280655   2.339   5.107  16.378  0.0572  0.6011  0.3919
19722TIP3   OH280656   0.983   6.735   5.229 -0.3554  0.0488 -0.2691
19722TIP3    H180657   1.063   6.720   5.279  0.3186  0.0118 -1.3166
19722TIP3    H280658   0.960   6.650   5.192 -1.6022 -0.2077  1.0222
19723TIP3   OH280659   4.603   1.342   1.758  0.2292  0.2249 -0.6124
19723TIP3    H180660   4.621   1.248   1.761 -1.0411 -0.0264  1.7624
19723TIP3    H280661   4.681   1.382   1.797 -0.1158 -0.0532  0.3988
19724TIP3   OH280662   4.989   5.428   3.063 -0.1927  0.2141 -0.3270
19724TIP3    H180663   5.053   5.438   2.992 -1.8954  0.0723 -1.9743
19724TIP3    H280664   5.033   5.374   3.128  1.6898  0.9191 -0.9412
19725TIP3   OH280665   3.607   5.648   5.087  0.4250 -0.6856 -0.4490
19725TIP3    H180666   3.593   5.625   5.179 -1.9883  0.1881 -0.5345
19725TIP3    H280667   3.662   5.726   5.090 -1.0807  0.3946  0.3860
19726TIP3   OH280668   3.697   4.334  15.037  0.7603  0.2409  0.9385
19726TIP3    H180669   3.735   4.419  15.060  0.3582  0.7073 -0.0709
19726TIP3    H280670   3.761   4.293  14.980  0.2175  0.6055  0.0436
19727TIP3   OH280671   3.432   4.836   3.394 -0.1270  0.0830 -0.5244
19727TIP3    H180672   3.343   4.855   3.422 -0.0298 -0.5257  0.2441
19727TIP3    H280673   3.478   4.919   3.400 -0.1362  0.0023  1.0875
19728TIP3   OH280674   1.658   0.160  16.355 -0.2318  0.0604 -0.7408
19728TIP3    H180675   1.640   0.104  16.279  0.7287 -0.0703 -0.8872
19728TIP3    H280676   1.573   0.195  16.380 -0.8823 -1.4763 -0.6408
19729TIP3   OH280677   4.835   0.469  14.837 -0.2873 -0.0789  0.2793
19729TIP3    H180678   4.859   0.431  14.922 -0.0341 -0.8718 -0.1402
19729TIP3    H280679   4.790   0.551  14.860 -1.6513 -1.0513  1.2476
19730TIP3   OH280680   0.695   3.319   3.550 -0.6188 -0.1380 -0.4324
19730TIP3    H180681   0.744   3.245   3.516 -1.7824 -1.0131 -0.2868
19730TIP3    H280682   0.670   3.293   3.639 -2.6093 -0.4196 -1.0058
19731TIP3   OH280683   2.688   0.452   4.079 -0.0393 -0.5322  0.4262
19731TIP3    H180684   2.628   0.480   4.009  0.3461  1.2597  0.7589
19731TIP3    H280685   2.630   0.430   4.152 -0.3569 -0.2647  0.2585
19732TIP3   OH280686   4.208   2.314  11.498 -0.3669  0.3343  1.0262
19732TIP3    H180687   4.242   2.259  11.427  0.6943  0.1877  1.6343
19732TIP3    H280688   4.121   2.277  11.516 -0.5492  0.2152 -0.0105
19733TIP3   OH280689   4.401   1.176   4.669  0.5236 -0.1838  0.0973
19733TIP3    H180690   4.370   1.089   4.693 -1.1604  0.2074 -0.5249
19733TIP3    H280691   4.424   1.169   4.576 -0.5202  0.2401 -0.2091
19734TIP3   OH280692   0.942   4.780  12.592  0.1676 -0.0208 -0.5844
19734TIP3    H180693   0.903   4.835  12.525  0.5432  0.7831 -0.1520
19734TIP3    H280694   0.877   4.777  12.662  0.6940  0.9963 -0.0325
19735TIP3   OH280695   6.304   4.948  13.474 -0.3277  0.2891  0.5152
19735TIP3    H180696   6.241   4.899  13.421  0.6803  1.1879 -1.6040
19735TIP3    H280697   6.386   4.899  13.465 -0.0546  0.6549  0.9589
19736TIP3   OH280698   0.590   1.667  11.910  0.3123  0.0304 -0.2083
19736TIP3    H180699   0.520   1.715  11.956  0.6319 -0.0009  0.3202
19736TIP3    H280700   0.671   1.700  11.949  0.6494  0.8492 -1.5721
19737TIP3   OH280701   0.675   4.729  13.643 -0.3184  0.3170 -0.1695
19737TIP3    H180702   0.704   4.670  13.713  1.2801  3.3168  1.9015
19737TIP3    H280703   0.603   4.682  13.601 -0.7731 -2.0615  2.8647
19738TIP3   OH280704   2.125   5.872   4.579  0.3314 -0.4259 -0.3161
19738TIP3    H180705   2.096   5.907   4.495 -0.7886 -2.8444 -1.0136
19738TIP3    H280706   2.218   5.895   4.584 -0.1778  2.0793 -0.9144
19739TIP3   OH280707   2.578   1.497   1.844  0.1794 -0.5044 -0.2069
19739TIP3    H180708   2.661   1.489   1.797 -0.4925 -2.7965 -1.1450
19739TIP3    H280709   2.515   1.525   1.779  0.4509  3.2594  0.9126
19740TIP3   OH280710   6.761   5.917  12.153  0.6021  0.5524 -0.1370
19740TIP3    H180711   6.713   5.889  12.231  0.4426  2.3489  0.4390
19740TIP3    H280712   6.822   5.845  12.136 -0.7135 -0.7481  0.4560
19741TIP3   OH280713   4.774   2.085  16.971 -0.3380  0.1663  0.3225
19741TIP3    H180714   4.796   2.140  17.046  0.9114  2.5262 -1.6054
19741TIP3    H280715   4.678   2.080  16.973 -0.3113 -0.1734  2.2557
19742TIP3   OH280716   6.422   1.926   0.288  0.3291 -0.8547 -0.3747
19742TIP3    H180717   6.357   1.946   0.356 -0.7153 -0.5885 -1.4331
19742TIP3    H280718   6.490   1.877   0.335 -0.8086 -1.4943  0.6801
19743TIP3   OH280719   2.753   0.441  14.590 -0.4639  0.0946 -0.5565
19743TIP3    H180720   2.814   0.454  14.663 -0.6158  3.3590 -0.8773
19743TIP3    H280721   2.807   0.406  14.519  0.5058  0.5310 -0.0535
19744TIP3   OH280722   0.232   2.684   3.065  0.7154 -0.4117 -0.2622
19744TIP3    H180723   0.206   2.676   3.157  0.6182 -2.6186 -0.4406
19744TIP3    H280724   0.203   2.772   3.040  0.1951  0.0054  1.6281
19745TIP3   OH280725   5.827   5.837   1.587 -0.4397  0.6132 -0.4954
19745TIP3    H180726   5.882   5.762   1.562 -1.3021 -1.2455  2.6308
19745TIP3    H280727   5.890   5.908   1.603  0.8272 -0.6319  0.3105
19746TIP3   OH280728   4.971   3.828  16.726 -0.5854 -0.2241 -0.6766
19746TIP3    H180729   5.063   3.855  16.721  0.3384 -2.1504  2.6692
19746TIP3    H280730   4.928   3.900  16.772 -0.4114  0.0130 -0.8814
19747TIP3   OH280731   5.368   6.635  12.328  0.0363  0.3322 -0.0927
19747TIP3    H180732   5.446   6.625  12.273 -1.6163  0.3168 -2.5857
19747TIP3    H280733   5.336   6.545  12.340 -0.3582  0.4420 -0.2998
19748TIP3   OH280734   3.944   0.787   5.431 -0.2521  0.3658  0.5019
19748TIP3    H180735   3.933   0.878   5.460  0.5446  0.2380  1.2434
19748TIP3    H280736   3.879   0.738   5.482 -1.3888  0.6305 -0.6269
19749TIP3   OH280737   6.670   3.293  14.919  0.1439  0.4495 -0.4828
19749TIP3    H180738   6.576   3.297  14.897  0.7007 -0.1551 -3.4109
19749TIP3    H280739   6.700   3.383  14.911 -0.1912  0.6540  0.5197
19750TIP3   OH280740   2.346   6.033  14.196  0.1966 -0.2396 -0.3826
19750TIP3    H180741   2.251   6.042  14.207  0.0640  1.3776 -2.2409
19750TIP3    H280742   2.357   5.946  14.158 -0.7155  0.0879 -1.4660
19751TIP3   OH280743   5.392   1.146   0.195  0.4593 -0.0852  0.3636
19751TIP3    H180744   5.343   1.066   0.176  0.1406  0.4093 -0.9997
19751TIP3    H280745   5.329   1.217   0.183  1.4440  0.5685 -1.4058
19752TIP3   OH280746   3.737   0.790  16.106 -0.0635 -0.4781 -0.6616
19752TIP3    H180747   3.678   0.840  16.163  0.5667  0.4097 -0.7637
19752TIP3    H280748   3.810   0.850  16.089 -1.4285  0.3906 -4.5675
19753TIP3   OH280749   1.491   5.606   0.785  0.0496  0.6444 -0.0445
19753TIP3    H180750   1.471   5.618   0.877  0.9652 -1.0124  0.4028
19753TIP3    H280751   1.581   5.638   0.775  0.8795 -1.4553  0.2196
19754TIP3   OH280752   0.979   0.871  11.513  0.3356  0.2392  0.2273
19754TIP3    H180753   0.998   0.839  11.425  0.4879  2.4503 -0.6064
19754TIP3    H280754   0.888   0.846  11.528  0.3513 -0.2943 -0.5008
19755TIP3   OH280755   1.989   5.283  12.393 -0.1039 -0.0131 -0.4677
19755TIP3    H180756   2.046   5.345  12.439  1.1893 -0.2155 -1.7385
19755TIP3    H280757   2.049   5.229  12.342 -1.3540 -1.1390 -0.7935
19756TIP3   OH280758   6.057   4.099  16.464 -0.1898  0.0016 -0.2347
19756TIP3    H180759   5.983   4.136  16.513  0.7623 -0.1788  1.4022
19756TIP3    H280760   6.021   4.020  16.424 -1.2307  0.6327 -0.6039
19757TIP3   OH280761   2.635   4.900  12.495 -0.0248 -0.0136 -1.0538
19757TIP3    H180762   2.657   4.868  12.582  0.2219  0.6797 -0.8561
19757TIP3    H280763   2.680   4.840  12.435  0.2642 -0.1533 -0.6987
19758TIP3   OH280764   1.275   1.918  16.801  0.2971 -0.2586 -0.3277
19758TIP3    H180765   1.321   1.986  16.851 -1.7328 -0.0907  1.4191
19758TIP3    H280766   1.270   1.954  16.712  1.4008  0.7743 -0.0002
19759TIP3   OH280767   5.652   2.249   2.894 -0.2566  0.1841  0.0049
19759TIP3    H180768   5.567   2.213   2.868  0.0038 -0.9925  0.6699
19759TIP3    H280769   5.686   2.185   2.957  0.8605  0.9386  0.1942
19760TIP3   OH280770   2.374   1.442   2.463 -0.8139  0.0234 -0.5298
19760TIP3    H180771   2.292   1.395   2.476 -0.9614 -0.0763 -1.7077
19760TIP3    H280772   2.422   1.429   2.545 -1.2132 -1.4318 -0.4964
19761TIP3   OH280773   3.205   4.317   2.737 -0.3666  0.1276  0.4823
19761TIP3    H180774   3.200   4.235   2.689 -0.7264 -0.5560  1.6529
19761TIP3    H280775   3.224   4.383   2.670 -1.4944 -0.6871 -0.6871
19762TIP3   OH280776   2.138   0.656  14.912 -0.8604 -0.0407  0.1840
19762TIP3    H180777   2.125   0.631  15.003  2.3346  0.1614  0.8427
19762TIP3    H280778   2.097   0.742  14.904 -1.2316 -0.0841  1.4366
19763TIP3   OH280779   2.195   5.027   5.318 -0.2713  0.4411 -0.2134
19763TIP3    H180780   2.130   5.005   5.385 -0.6733  2.6474  0.2112
19763TIP3    H280781   2.173   5.117   5.293  2.2699  1.0543 -0.4942
19764TIP3   OH280782   2.910   1.435  11.846  0.6645 -0.0965  0.0260
19764TIP3    H180783   2.892   1.346  11.818 -2.9697  0.4968  0.0122
19764TIP3    H280784   2.935   1.427  11.938  0.6818 -1.1163 -0.0572
19765TIP3   OH280785   0.132   4.026  12.264 -0.3729 -0.0723  0.4556
19765TIP3    H180786   0.213   4.053  12.221 -0.2325  2.1571  1.9149
19765TIP3    H280787   0.063   4.048  12.202  0.0758 -2.2381 -0.9140
19766TIP3   OH280788   2.624   4.877  15.993 -0.0506 -0.2114 -0.5467
19766TIP3    H180789   2.692   4.919  16.046  0.3581  0.4239 -1.5431
19766TIP3    H280790   2.610   4.937  15.920 -2.3025  0.0870  0.0618
19767TIP3   OH280791   0.431   3.632   0.022 -0.8180 -0.1019 -0.2295
19767TIP3    H180792   0.494   3.677  -0.033 -0.8478  2.1896  1.4956
19767TIP3    H280793   0.468   3.544   0.034  0.1450 -0.0132 -2.2015
19768TIP3   OH280794   5.041   0.869  11.954 -0.1118 -0.0090 -0.1051
19768TIP3    H180795   4.966   0.901  11.905  0.8266  0.1670 -1.4697
19768TIP3    H280796   5.114   0.872  11.892  1.1762  0.4628  1.3608
19769TIP3   OH280797   6.069   5.505  15.366 -0.3522 -0.0835 -0.6762
19769TIP3    H180798   5.987   5.487  15.321 -1.0081 -0.8571  0.7674
19769TIP3    H280799   6.122   5.427  15.351 -0.6347 -0.4136 -0.0055
19770TIP3   OH280800   3.071   3.245   4.370  0.4517 -0.0387  0.1197
19770TIP3    H180801   3.080   3.297   4.450  1.1170 -0.6319  0.4403
19770TIP3    H280802   3.137   3.282   4.310 -0.0399  0.3996 -0.1565
19771TIP3   OH280803   5.332   4.114   4.218 -0.3755 -0.4239 -0.4545
19771TIP3    H180804   5.354   4.148   4.305 -0.6359  0.6860 -0.8021
19771TIP3    H280805   5.327   4.192   4.162 -0.8290 -1.0588 -1.3291
19772TIP3   OH280806   6.439   0.214  12.403  0.6085 -0.0141 -0.0778
19772TIP3    H180807   6.483   0.174  12.328 -0.7551 -0.0025 -0.9203
19772TIP3    H280808   6.405   0.297  12.369 -0.8747 -0.4627  0.2538
19773TIP3   OH280809   3.826   4.195  12.604  0.3813  0.1170 -0.2637
19773TIP3    H180810   3.808   4.287  12.585 -1.2920 -0.4792 -1.8778
19773TIP3    H280811   3.851   4.157  12.520  1.7869 -0.7861  0.5181
19774TIP3   OH280812   2.073   0.130   2.082  1.0411 -0.5020  0.3394
19774TIP3    H180813   2.065   0.140   1.987  0.6923 -1.6150  0.2330
19774TIP3    H280814   2.165   0.109   2.097  0.8768 -1.4280  0.1191
19775TIP3   OH280815   3.096   6.295  11.657  0.2173  0.1919  0.4890
19775TIP3    H180816   3.083   6.390  11.666  0.8411  0.3098  0.2430
19775TIP3    H280817   3.011   6.261  11.632  0.0914  0.7564  0.1162
19776TIP3   OH280818   4.525   2.019   4.493 -0.5958 -0.2126 -0.1097
19776TIP3    H180819   4.455   2.016   4.427 -1.0607 -2.1227  0.4119
19776TIP3    H280820   4.487   1.976   4.570  1.2730 -1.6567  0.0621
19777TIP3   OH280821   2.407   0.309  12.621 -0.4801 -0.2402 -0.5089
19777TIP3    H180822   2.472   0.282  12.557 -0.3444  0.5369 -0.7120
19777TIP3    H280823   2.430   0.400  12.641 -0.6646 -0.3965  0.4597
19778TIP3   OH280824   5.372   4.506   3.006  0.5163 -0.3494 -0.2063
19778TIP3    H180825   5.418   4.430   2.971  1.8376 -0.1529  1.0384
19778TIP3    H280826   5.404   4.580   2.953  0.3911 -0.4322 -0.4018
19779TIP3   OH280827   3.444   5.849   4.936 -0.1689  0.2052  0.0344
19779TIP3    H180828   3.486   5.803   4.864  0.4503 -0.0312  0.5398
19779TIP3    H280829   3.425   5.781   5.000  0.9022  0.6673  0.8568
19780TIP3   OH280830   3.541   1.174  12.938 -0.2513 -0.4562  0.0403
19780TIP3    H180831   3.592   1.095  12.919  0.7352  0.2486 -0.2711
19780TIP3    H280832   3.480   1.181  12.864  0.6089 -0.1582 -0.6561
19781TIP3   OH280833   2.195   1.588  12.899  0.0647  0.1568  0.0077
19781TIP3    H180834   2.216   1.680  12.919 -0.8927  0.3165  0.3618
19781TIP3    H280835   2.134   1.562  12.969 -4.4426  1.1235 -3.0966
19782TIP3   OH280836   5.882   6.685  12.145 -0.4614  0.1171  0.5498
19782TIP3    H180837   5.870   6.710  12.054 -2.3257  2.3429  1.3045
19782TIP3    H280838   5.976   6.683  12.158 -0.1698  1.7817 -0.9389
19783TIP3   OH280839   1.249   5.880  16.614  0.0491  0.4465  0.3255
19783TIP3    H180840   1.279   5.859  16.525 -1.3123 -0.3523  0.0211
19783TIP3    H280841   1.213   5.969  16.606 -1.2687 -0.1130 -0.2647
19784TIP3   OH280842   1.622   0.178  17.228  0.6120 -0.4618 -0.0260
19784TIP3    H180843   1.529   0.182  17.204  0.4631 -1.3362  0.3563
19784TIP3    H280844   1.625   0.221  17.314  0.6058 -0.2127 -0.1495
19785TIP3   OH280845   6.064   0.866  12.987  0.0628 -0.0596  0.5152
19785TIP3    H180846   5.976   0.846  13.018  0.9859 -1.6140  2.3334
19785TIP3    H280847   6.100   0.927  13.051  0.1219  1.0994 -0.5789
19786TIP3   OH280848   2.633   0.595  16.022 -0.2172 -0.5050 -0.2130
19786TIP3    H180849   2.602   0.607  15.932  0.3322 -0.5820 -0.4148
19786TIP3    H280850   2.610   0.677  16.065  0.3164 -0.1117 -0.6602
19787TIP3   OH280851   3.060   5.690  13.927 -0.1361  0.5802 -0.8280
19787TIP3    H180852   3.144   5.728  13.954 -0.7467  2.6560 -1.5816
19787TIP3    H280853   3.082   5.604  13.892  1.5502  0.7280 -0.2155
19788TIP3   OH280854   1.886   0.907  12.306  0.0216  0.1838 -1.0793
19788TIP3    H180855   1.941   0.838  12.345 -0.0487  0.8903  0.3199
19788TIP3    H280856   1.800   0.866  12.298  0.2153 -0.2112 -1.2020
19789TIP3   OH280857   1.059   0.693  16.097  0.1164 -0.3381  0.1315
19789TIP3    H180858   1.125   0.673  16.163  0.2660 -2.2508 -0.5423
19789TIP3    H280859   1.104   0.680  16.013 -0.8136 -0.6245 -0.3410
19790TIP3   OH280860   1.439   3.475  13.717 -0.4082 -0.4674 -0.1009
19790TIP3    H180861   1.518   3.526  13.734 -0.2531 -1.0652  1.0812
19790TIP3    H280862   1.387   3.484  13.797 -0.0378 -2.7580  0.4570
19791TIP3   OH280863   5.532   6.211   6.291  0.2615 -0.1410 -0.1258
19791TIP3    H180864   5.482   6.247   6.218  1.4718  0.6832 -0.5879
19791TIP3    H280865   5.466   6.180   6.353 -0.8472  1.8912 -0.1979
19792TIP3   OH280866   3.338   5.684   2.550 -0.4170  0.1718  0.5738
19792TIP3    H180867   3.301   5.773   2.556 -0.6423  0.1343 -0.1184
19792TIP3    H280868   3.430   5.699   2.531 -0.0712  0.2651  2.1913
19793TIP3   OH280869   0.356   2.591  12.408  0.5021  0.2562 -0.2286
19793TIP3    H180870   0.275   2.639  12.388 -0.5942 -1.4086  0.0173
19793TIP3    H280871   0.376   2.543  12.328  0.1156 -0.8767  0.3379
19794TIP3   OH280872   3.454   6.026   2.121 -0.3834 -0.4764 -0.4946
19794TIP3    H180873   3.481   6.036   2.030  1.5446 -0.2663  0.0464
19794TIP3    H280874   3.387   6.093   2.134  1.1384  1.2791 -1.1172
19795TIP3   OH280875   5.631   2.906  10.835  0.0755 -0.2622 -0.1001
19795TIP3    H180876   5.714   2.953  10.821 -0.2253  0.5156  0.6805
19795TIP3    H280877   5.622   2.852  10.756  1.4531 -0.5613 -0.0824
19796TIP3   OH280878   5.128   6.325  11.921 -0.5806  0.0160 -0.6292
19796TIP3    H180879   5.205   6.298  11.970 -0.2024 -0.3398 -1.3965
19796TIP3    H280880   5.054   6.283  11.966 -0.4629  1.1928  0.7286
19797TIP3   OH280881   3.457   6.480   4.759  0.2505 -0.3583 -0.1609
19797TIP3    H180882   3.385   6.493   4.698  0.7707 -0.1626 -0.7476
19797TIP3    H280883   3.520   6.549   4.737 -0.6696  1.4128  2.3122
19798TIP3   OH280884   1.430   2.250  16.951 -0.4038  0.4321  0.1394
19798TIP3    H180885   1.521   2.221  16.959 -0.3313  0.4410 -0.6351
19798TIP3    H280886   1.412   2.250  16.857 -1.2808  0.1881  0.2922
19799TIP3   OH280887   1.372   2.618   4.855  0.0875 -0.4344  0.1400
19799TIP3    H180888   1.355   2.543   4.911  2.1929 -0.7648  0.4046
19799TIP3    H280889   1.454   2.597   4.811 -0.6195  0.5831 -1.7747
19800TIP3   OH280890   0.626   5.472  11.928  0.1376 -0.1763 -0.7147
19800TIP3    H180891   0.707   5.453  11.881 -0.2671  1.3565 -2.1231
19800TIP3    H280892   0.576   5.527  11.868 -0.1312  2.5217  1.8018
19801TIP3   OH280893   5.291   4.621  14.448 -0.2127  0.0737 -0.1119
19801TIP3    H180894   5.282   4.689  14.380 -1.1227  0.9253  0.8297
19801TIP3    H280895   5.236   4.549  14.418 -1.2913  0.7845  0.1144
19802TIP3   OH280896   0.175   1.761  13.692 -0.3675 -0.4728  0.3331
19802TIP3    H180897   0.208   1.782  13.779  1.2295 -0.4649 -0.2342
19802TIP3    H280898   0.231   1.689  13.662 -0.8082 -0.3992 -0.7155
19803TIP3   OH280899   6.684   0.580   3.417 -0.0247 -0.0807  0.2294
19803TIP3    H180900   6.698   0.631   3.337 -2.9383  0.0474 -0.2944
19803TIP3    H280901   6.677   0.490   3.387  2.3878 -0.5436  0.8398
19804TIP3   OH280902   3.746   2.472  12.530  0.4170  0.2593  0.1529
19804TIP3    H180903   3.712   2.458  12.441 -2.4782  2.2599  0.7996
19804TIP3    H280904   3.697   2.411  12.584  1.9751 -0.7525  0.5069
19805TIP3   OH280905   4.801   6.508  14.012  0.1337 -0.6981 -0.7280
19805TIP3    H180906   4.870   6.558  14.056  1.2441 -2.3741 -0.4648
19805TIP3    H280907   4.838   6.488  13.926 -0.7637 -0.0841 -1.2616
19806TIP3   OH280908   1.660   3.511  12.817 -0.0916  0.8383 -0.2259
19806TIP3    H180909   1.585   3.517  12.758 -1.9406 -2.5851  1.4689
19806TIP3    H280910   1.641   3.574  12.886 -0.0827  1.7810 -1.0547
19807TIP3   OH280911   5.247   1.307   1.737  0.0305  0.0351 -0.0303
19807TIP3    H180912   5.272   1.223   1.775  1.6162  0.2910 -0.4655
19807TIP3    H280913   5.271   1.300   1.645 -2.0702  0.1010 -0.6379
19808TIP3   OH280914   2.488   3.751  16.660  0.6175 -0.3155 -0.2353
19808TIP3    H180915   2.487   3.840  16.695  0.3074 -0.2090 -0.5133
19808TIP3    H280916   2.521   3.697  16.732  3.6838  0.4029 -0.9514
19809TIP3   OH280917   1.739   3.423  14.426 -0.2518  0.5480  0.3531
19809TIP3    H180918   1.741   3.438  14.520 -1.4118 -1.5390  0.7788
19809TIP3    H280919   1.667   3.478  14.394 -1.1291 -0.1767  1.0262
19810TIP3   OH280920   0.779   2.123  11.979  0.3539  0.3309  0.2314
19810TIP3    H180921   0.872   2.129  12.004  0.1980  0.4520  0.7981
19810TIP3    H280922   0.743   2.058  12.039  0.1373  0.0451 -0.2016
19811TIP3   OH280923   6.535   5.281  12.671 -0.3260 -0.2803  0.5684
19811TIP3    H180924   6.511   5.237  12.753  0.5785 -0.4473  0.7560
19811TIP3    H280925   6.460   5.266  12.614 -0.6300 -0.8677  1.0961
19812TIP3   OH280926   3.882   6.799   2.512  0.0131 -0.0252  0.0453
19812TIP3    H180927   3.960   6.752   2.482 -0.6442 -0.5853 -0.8631
19812TIP3    H280928   3.886   6.793   2.607  2.2543  1.9399  0.1718
19813TIP3   OH280929   4.566   4.738  14.483  1.2506 -0.0993 -0.0145
19813TIP3    H180930   4.649   4.691  14.481  0.4263 -1.7012  1.2759
19813TIP3    H280931   4.501   4.675  14.451  0.7062  1.7117 -2.8759
19814TIP3   OH280932   1.271   4.596   0.723  0.3763  0.0385 -0.1766
19814TIP3    H180933   1.214   4.557   0.658  1.1875 -1.5841  0.0316
19814TIP3    H280934   1.357   4.598   0.682  0.3999  1.4717 -0.1039
19815TIP3   OH280935   4.822   6.295   2.346  0.1606  0.0717 -0.0458
19815TIP3    H180936   4.854   6.339   2.267 -0.5874 -0.8494 -0.8747
19815TIP3    H280937   4.741   6.341   2.369 -0.8800 -1.1248 -1.1894
19816TIP3   OH280938   5.501   6.334   1.044  0.3940  0.1649  0.0094
19816TIP3    H180939   5.445   6.268   1.083  0.2043  0.8272  0.8929
19816TIP3    H280940   5.445   6.377   0.979  0.4682 -0.4229 -0.4468
19817TIP3   OH280941   5.480   1.692  12.733 -0.2156  0.2114 -0.2543
19817TIP3    H180942   5.403   1.735  12.772  0.9309  0.6426  1.6895
19817TIP3    H280943   5.554   1.737  12.772  1.0570 -0.2320 -2.0594
19818TIP3   OH280944   0.704   3.656   2.767 -0.6535  0.1822 -0.2230
19818TIP3    H180945   0.722   3.607   2.848 -0.2388 -0.8742 -0.9310
19818TIP3    H280946   0.609   3.665   2.765 -0.9924 -2.6043 -1.1551
19819TIP3   OH280947   0.296   1.095  11.193  0.0632 -0.7857  0.0299
19819TIP3    H180948   0.323   1.134  11.276  1.2731 -0.5511 -0.4577
19819TIP3    H280949   0.374   1.098  11.138 -0.0921 -2.9325 -0.3959
19820TIP3   OH280950   4.564   6.344  11.727 -0.4629  0.0632  0.4941
19820TIP3    H180951   4.635   6.285  11.702  0.9880  1.6199  0.7773
19820TIP3    H280952   4.494   6.286  11.756  1.5880 -1.5155  2.6491
19821TIP3   OH280953   5.149   3.680  15.250 -0.1870 -0.5334 -0.3532
19821TIP3    H180954   5.187   3.747  15.307  0.0718 -1.1885  0.2591
19821TIP3    H280955   5.055   3.697  15.253 -0.0210  0.7064 -1.3786
19822TIP3   OH280956   0.172   1.220  10.562 -0.3070 -0.3002  0.2106
19822TIP3    H180957   0.215   1.156  10.619 -1.1363 -0.2339  0.9284
19822TIP3    H280958   0.094   1.175  10.529  0.0247 -0.2455 -0.6765
19823TIP3   OH280959   2.319   1.998  11.450 -0.5499 -0.0693  0.1358
19823TIP3    H180960   2.361   1.912  11.440 -0.6197 -0.7985  4.2324
19823TIP3    H280961   2.263   1.988  11.527 -1.4922  3.3683  0.0502
19824TIP3   OH280962   0.541   1.175  16.808 -0.1904  0.0358 -0.2724
19824TIP3    H180963   0.470   1.200  16.868 -2.3170 -1.4935 -2.0012
19824TIP3    H280964   0.508   1.197  16.721  2.3654  1.1597 -1.0589
19825TIP3   OH280965   0.217   4.849  11.990  0.8166 -0.2909 -0.6477
19825TIP3    H180966   0.308   4.850  12.019  1.1425 -0.5346 -1.6311
19825TIP3    H280967   0.166   4.866  12.069  1.6316 -1.6847  0.2109
19826TIP3   OH280968   6.578   6.067  14.910  0.0986  0.0986  0.0295
19826TIP3    H180969   6.510   6.043  14.973  0.8301 -0.1224  0.7449
19826TIP3    H280970   6.563   6.008  14.836 -0.9500  0.5596 -0.1430
19827TIP3   OH280971   2.948   3.697   3.900  0.2012  0.5432  0.1578
19827TIP3    H180972   2.988   3.718   3.985 -0.2891  0.0797  0.5116
19827TIP3    H280973   3.000   3.746   3.836  0.5511  0.9327  0.7293
19828TIP3   OH280974   2.364   1.188   4.521 -0.5143  0.3318  0.2051
19828TIP3    H180975   2.320   1.193   4.436 -0.0640  0.2052 -0.0420
19828TIP3    H280976   2.430   1.120   4.510 -1.0035 -0.2710  0.9273
19829TIP3   OH280977   2.314   3.378  15.162 -0.1005 -0.4193  0.0390
19829TIP3    H180978   2.342   3.290  15.135 -2.0524 -1.3679  0.8582
19829TIP3    H280979   2.232   3.392  15.114 -0.5491  0.3218  0.9945
19830TIP3   OH280980   0.684   2.082  14.524 -0.7778 -0.4570 -0.2071
19830TIP3    H180981   0.713   1.991  14.517 -1.6998 -0.6418 -2.3501
19830TIP3    H280982   0.642   2.087  14.610 -0.6953 -2.0403 -0.0485
19831TIP3   OH280983   3.109   4.769   5.799 -0.4110 -0.5139 -0.0073
19831TIP3    H180984   3.186   4.735   5.753  0.9346  1.5162  0.5847
19831TIP3    H280985   3.034   4.736   5.749  0.8105 -2.7297 -0.4673
19832TIP3   OH280986   2.715   3.651  15.203 -0.3702 -0.2793 -0.7672
19832TIP3    H180987   2.634   3.674  15.248 -0.2448 -0.2655 -0.5485
19832TIP3    H280988   2.699   3.676  15.112 -1.4414 -2.3178 -1.2021
19833TIP3   OH280989   3.699   0.385   1.650 -0.0107  0.1437  0.0534
19833TIP3    H180990   3.647   0.336   1.714 -1.1157 -1.3580 -1.9064
19833TIP3    H280991   3.758   0.320   1.611 -0.0364  0.8037 -1.1390
19834TIP3   OH280992   0.232   5.898   0.033 -0.2292 -0.3875 -0.5552
19834TIP3    H180993   0.153   5.941   0.066 -0.8795  1.0136 -3.5796
19834TIP3    H280994   0.230   5.914  -0.061  2.3221 -2.6215 -1.1066
19835TIP3   OH280995   0.082   3.552  12.198 -0.1325  0.3460  0.1871
19835TIP3    H180996   0.032   3.471  12.198 -1.3049  1.0404 -0.5577
19835TIP3    H280997   0.159   3.533  12.144  0.1215 -0.5516  0.8402
19836TIP3   OH280998   1.182   3.975  12.574 -0.2523 -0.3118 -0.1309
19836TIP3    H180999   1.109   4.036  12.583  0.3509  0.7216 -1.7269
19836TIP3    H281000   1.205   3.979  12.481  1.0846 -1.4862  0.1159
19837TIP3   OH281001   4.761   1.189   1.206 -0.1722  0.1555  0.1255
19837TIP3    H181002   4.680   1.192   1.156  0.4867 -0.8637 -1.0640
19837TIP3    H281003   4.830   1.186   1.140  0.7674 -0.4890  1.0947
19838TIP3   OH281004   3.632   6.449  12.185  0.6310 -0.2982 -0.0783
19838TIP3    H181005   3.650   6.394  12.261 -0.3956  1.1443  1.2784
19838TIP3    H281006   3.707   6.508  12.180  1.0047 -0.8014 -0.6093
19839TIP3   OH281007   0.486   1.965   3.354  0.4976 -0.1549  0.0800
19839TIP3    H181008   0.463   1.948   3.263 -1.0717  1.1445  0.1956
19839TIP3    H281009   0.445   1.894   3.403  0.0403 -0.0110 -0.0903
19840TIP3   OH281010   2.774   6.549  11.033 -0.5804 -0.2682 -0.2602
19840TIP3    H181011   2.839   6.619  11.035 -1.6681  1.0090 -3.2037
19840TIP3    H281012   2.693   6.590  11.063 -0.8474 -0.7870 -0.2545
19841TIP3   OH281013   0.916   5.967   2.304  0.1177 -0.3880 -0.3561
19841TIP3    H181014   0.986   5.905   2.281 -0.1500 -0.9041  0.2178
19841TIP3    H281015   0.835   5.917   2.292 -0.1456  0.1059 -0.6815
19842TIP3   OH281016   1.468   1.757   6.258  0.0269  0.6268  0.6234
19842TIP3    H181017   1.417   1.679   6.238  0.3066  0.4050  0.7710
19842TIP3    H281018   1.559   1.727   6.260  0.2670  1.2037 -0.5866
19843TIP3   OH281019   4.373   4.412  16.451 -0.2172  0.0883  0.1753
19843TIP3    H181020   4.407   4.439  16.365 -1.2569 -0.5464 -0.4629
19843TIP3    H281021   4.330   4.490  16.485  0.9189  0.5867  0.5129
19844TIP3   OH281022   4.435   5.066   4.101 -0.1270 -0.1899  0.4725
19844TIP3    H181023   4.386   5.148   4.090 -1.3624 -0.4964  2.9280
19844TIP3    H281024   4.370   5.002   4.129  0.8953 -1.9438 -0.9155
19845TIP3   OH281025   6.250   5.767  12.145 -0.8530 -0.2145  0.4435
19845TIP3    H181026   6.230   5.787  12.054 -0.7059 -0.3639  0.3776
19845TIP3    H281027   6.164   5.759  12.187 -0.9420 -0.9139  0.1461
19846TIP3   OH281028   0.302   5.966   5.596 -0.7872  0.2895  0.3720
19846TIP3    H181029   0.328   6.000   5.681 -1.0450  1.4626  0.0048
19846TIP3    H281030   0.364   6.005   5.534  0.5455 -1.9660  0.1855
19847TIP3   OH281031   0.717   0.201   5.918 -0.0773  0.0462  0.0068
19847TIP3    H181032   0.665   0.260   5.863 -1.2362 -2.7734 -2.1550
19847TIP3    H281033   0.674   0.204   6.003 -1.3704  0.7190 -0.6426
19848TIP3   OH281034   2.865   4.488  11.504 -0.2093  0.1525  0.0860
19848TIP3    H181035   2.950   4.451  11.527  0.1392  0.2947 -0.8935
19848TIP3    H281036   2.851   4.458  11.414 -0.3934  1.5537 -0.3627
19849TIP3   OH281037   6.805   0.669  13.501  0.3583 -0.2488  0.0105
19849TIP3    H181038   6.884   0.720  13.514 -0.4678  1.2442 -0.5862
19849TIP3    H281039   6.755   0.718  13.435 -1.7449 -0.2989  1.4506
19850TIP3   OH281040   6.581   3.539  16.982  0.0427 -0.2905  0.3318
19850TIP3    H181041   6.612   3.617  17.029  0.2904  0.5734 -1.1628
19850TIP3    H281042   6.507   3.571  16.930 -1.1563 -1.5471  1.2011
19851TIP3   OH281043   4.845   5.958   3.553 -0.0690  0.3584 -0.3542
19851TIP3    H181044   4.924   6.010   3.540  1.7170 -2.2820 -0.9539
19851TIP3    H281045   4.803   5.956   3.467 -0.8416  1.7336 -0.0426
19852TIP3   OH281046   4.685   1.543   5.108  0.8835 -0.9732  0.1489
19852TIP3    H181047   4.661   1.489   5.183 -0.7847  0.2155  0.5386
19852TIP3    H281048   4.616   1.610   5.104  0.7329 -1.1780 -2.6203
19853TIP3   OH281049   4.889   0.411   6.258  0.0987  0.2811  0.1065
19853TIP3    H181050   4.810   0.463   6.243  0.3221  0.1137 -1.9946
19853TIP3    H281051   4.901   0.413   6.353 -3.1047 -0.7089  0.6723
19854TIP3   OH281052   1.197   2.668  17.061  0.4182 -0.5941  0.0327
19854TIP3    H181053   1.152   2.695  16.982  1.2067  0.3139 -0.1326
19854TIP3    H281054   1.215   2.575  17.048 -1.1888 -0.9323  0.0272
19855TIP3   OH281055   6.158   2.085  16.809  0.1922 -0.5424  0.2145
19855TIP3    H181056   6.065   2.107  16.809 -0.1244 -1.6685  2.3617
19855TIP3    H281057   6.160   1.990  16.813  1.4634 -0.5764 -0.6750
19856TIP3   OH281058   0.170   4.853   4.500 -0.0336 -1.4330  0.6815
19856TIP3    H181059   0.178   4.812   4.414  1.0788  0.5844 -0.2550
19856TIP3    H281060   0.082   4.831   4.529 -2.0966  1.1912 -2.8677
19857TIP3   OH281061   3.838   5.695  11.206  0.1519  0.6891 -0.7799
19857TIP3    H181062   3.932   5.680  11.200  0.4372  1.5580  0.7707
19857TIP3    H281063   3.814   5.736  11.123  0.8140 -0.9358 -1.8242
19858TIP3   OH281064   5.705   0.771   4.918 -0.2305 -0.4364  0.1337
19858TIP3    H181065   5.667   0.686   4.938  0.1914 -0.5722  0.3748
19858TIP3    H281066   5.773   0.753   4.852 -0.8822 -0.1356 -0.6341
19859TIP3   OH281067   1.753   4.232   3.867 -0.0824 -0.0042  0.2771
19859TIP3    H181068   1.721   4.285   3.940  0.1187  1.0978 -0.4070
19859TIP3    H281069   1.676   4.216   3.813  0.2129  1.5288 -0.6774
19860TIP3   OH281070   5.625   3.946   3.739 -0.4845 -0.7711  0.1841
19860TIP3    H181071   5.670   4.002   3.802 -0.1263 -0.8066 -0.0318
19860TIP3    H281072   5.573   3.887   3.792  1.1718 -1.9803  0.5496
19861TIP3   OH281073   2.160   1.401   0.067 -0.1297 -0.0854  0.1994
19861TIP3    H181074   2.118   1.461   0.005 -0.8162  0.7336  1.3977
19861TIP3    H281075   2.101   1.401   0.143  1.0223 -0.5075  1.1214
19862TIP3   OH281076   0.942   5.374   2.899 -0.4565 -0.0114 -0.1063
19862TIP3    H181077   0.848   5.393   2.908 -0.7123 -0.4845 -1.4488
19862TIP3    H281078   0.984   5.460   2.904 -1.4177  0.9370 -4.1697
19863TIP3   OH281079   0.111   5.444   4.366 -0.3190  0.0451  0.2034
19863TIP3    H181080   0.100   5.476   4.276  0.5808 -0.9909 -0.3061
19863TIP3    H281081   0.032   5.394   4.383 -0.2704 -0.1774 -0.2073
19864TIP3   OH281082   3.631   1.683  11.193  0.4914 -0.0017 -0.7178
19864TIP3    H181083   3.600   1.654  11.107 -0.1381 -0.9820 -0.1806
19864TIP3    H281084   3.574   1.638  11.255 -0.0125  1.8129  0.2027
19865TIP3   OH281085   4.386   6.293  16.025  0.4814 -0.0756 -0.3807
19865TIP3    H181086   4.382   6.360  16.093  1.2765 -1.1705  0.7924
19865TIP3    H281087   4.306   6.241  16.037  0.1455  0.2977 -0.9272
19866TIP3   OH281088   6.441   5.045   3.369 -0.0443 -0.0080  0.3868
19866TIP3    H181089   6.455   5.035   3.275 -0.5645  1.1146  0.1765
19866TIP3    H281090   6.353   5.009   3.383  0.2743 -0.7462  0.5640
19867TIP3   OH281091   5.267   0.843   1.071 -0.0990  0.9155 -0.5423
19867TIP3    H181092   5.348   0.880   1.034 -0.3027  1.4211 -0.4963
19867TIP3    H281093   5.251   0.895   1.150 -0.4364  0.7759 -0.5178
19868TIP3   OH281094   6.788   3.550   4.752  0.2142 -0.1349 -0.0746
19868TIP3    H181095   6.753   3.519   4.668  0.5166 -1.9285  0.4208
19868TIP3    H281096   6.874   3.586   4.730 -0.1862  0.4840 -0.6839
19869TIP3   OH281097   1.209   2.329   3.016  0.3985  0.2687  0.4822
19869TIP3    H181098   1.133   2.385   3.031  0.8408  0.7359  1.0298
19869TIP3    H281099   1.173   2.240   3.012 -0.1738  0.4839  0.7426
19870TIP3   OH281100   3.104   4.763   4.885 -0.2591 -0.7750 -0.0992
19870TIP3    H181101   3.109   4.696   4.817  1.0786  0.0622 -0.8577
19870TIP3    H281102   3.050   4.832   4.846  0.7425 -0.1700 -0.4445
19871TIP3   OH281103   3.762   2.737   2.393 -0.0641 -0.5450  0.8181
19871TIP3    H181104   3.817   2.681   2.339 -0.4411  0.4499 -0.6598
19871TIP3    H281105   3.680   2.745   2.343  0.5614  2.6378  0.0853
19872TIP3   OH281106   2.679   5.994  11.977 -0.1419 -0.0884 -0.5187
19872TIP3    H181107   2.635   5.937  12.040 -2.3251  0.5936 -1.3515
19872TIP3    H281108   2.691   6.076  12.024  0.1357 -0.2295 -0.3383
19873TIP3   OH281109   5.525   2.581   5.376 -0.4592  0.0333 -0.0128
19873TIP3    H181110   5.616   2.571   5.348 -0.4147  0.4364 -0.0196
19873TIP3    H281111   5.528   2.569   5.470 -0.3912  0.0788 -0.0083
19874TIP3   OH281112   3.561   4.238  14.668 -0.4115  0.1229 -0.1007
19874TIP3    H181113   3.534   4.301  14.734 -0.5046 -0.6227  0.5890
19874TIP3    H281114   3.480   4.213  14.623 -0.1765  1.6943 -1.4971
19875TIP3   OH281115   3.457   3.015  15.129  0.1901  0.5179  0.0111
19875TIP3    H181116   3.511   3.052  15.198 -0.7220  0.0822  1.0003
19875TIP3    H281117   3.385   2.971  15.176 -0.7539  0.6796 -1.2260
19876TIP3   OH281118   1.993   2.268   3.939 -0.2707 -0.2954 -0.3851
19876TIP3    H181119   1.965   2.273   3.848  0.9448  0.1924 -0.7578
19876TIP3    H281120   1.927   2.318   3.987 -0.9401 -0.5841 -0.9843
19877TIP3   OH281121   2.199   2.418   1.040  0.3482  0.1083  0.1736
19877TIP3    H181122   2.157   2.487   1.091 -0.3044  0.0729 -0.3052
19877TIP3    H281123   2.237   2.359   1.105 -2.8262 -1.4634  0.7662
19878TIP3   OH281124   0.969   4.932  14.102  0.0412 -0.8241 -0.3855
19878TIP3    H181125   1.001   4.992  14.169 -1.9655  0.4776 -0.4980
19878TIP3    H281126   1.022   4.853  14.113  2.5733  0.8317 -0.0517
19879TIP3   OH281127   1.298   4.021  11.677  0.1393  0.1148  0.1222
19879TIP3    H181128   1.380   4.036  11.723  1.4454 -2.9506 -0.9998
19879TIP3    H281129   1.323   4.001  11.587 -2.1444  2.6933 -1.2528
19880TIP3   OH281130   6.518   2.817  14.643  0.2662 -0.3663 -0.1647
19880TIP3    H181131   6.580   2.862  14.700 -2.3864  3.2449  0.2553
19880TIP3    H281132   6.549   2.835  14.554 -0.5983  2.3811  0.0071
19881TIP3   OH281133   0.927   0.560   1.701 -0.2628  0.4180 -0.0331
19881TIP3    H181134   0.963   0.578   1.614  0.3403  0.2773  0.1813
19881TIP3    H281135   0.962   0.630   1.756 -1.7620  1.3138 -0.1804
19882TIP3   OH281136   5.662   5.172  12.134 -0.4189  0.4985 -0.1767
19882TIP3    H181137   5.636   5.102  12.195 -1.6316  1.4149  0.3834
19882TIP3    H281138   5.603   5.244  12.153  0.6745  1.6239 -0.9010
19883TIP3   OH281139   6.220   0.008  11.872  0.1458 -0.8386  0.7008
19883TIP3    H181140   6.210   0.092  11.829  1.5017 -1.2710 -0.5556
19883TIP3    H281141   6.151  -0.047  11.835 -0.3898 -0.4496  1.1115
19884TIP3   OH281142   1.025   0.082  15.793 -0.7032  0.7473 -0.5908
19884TIP3    H181143   0.935   0.112  15.776 -0.3213  2.0155 -0.5172
19884TIP3    H281144   1.060   0.148  15.853  0.1390  0.0225 -0.2746
19885TIP3   OH281145   0.579   5.660  12.380  0.1569  0.0158 -0.1133
19885TIP3    H181146   0.513   5.695  12.440  0.4942 -1.0324  0.8868
19885TIP3    H281147   0.532   5.649  12.297 -0.2155  1.8552 -0.1908
19886TIP3   OH281148   6.292   4.795   5.868  0.2912  0.0561 -0.1711
19886TIP3    H181149   6.225   4.727   5.880 -0.7904  0.6488 -2.3966
19886TIP3    H281150   6.315   4.790   5.776  2.2216  0.9243  0.2268
19887TIP3   OH281151   5.256   1.866   5.897  0.7929 -0.3056  0.1303
19887TIP3    H181152   5.193   1.834   5.962  1.0539 -0.2020  0.4388
19887TIP3    H281153   5.205   1.923   5.839  1.0239  1.6783  1.7499
19888TIP3   OH281154   1.979   3.288  15.796  0.5795  0.3263 -0.4676
19888TIP3    H181155   2.029   3.364  15.825  1.8723 -0.5237 -0.4192
19888TIP3    H281156   2.022   3.213  15.837 -2.1361 -0.3092  1.5406
19889TIP3   OH281157   0.626   0.667   4.516 -0.0993 -0.1833  0.7153
19889TIP3    H181158   0.714   0.677   4.554  0.0676  2.3533 -0.1855
19889TIP3    H281159   0.642   0.625   4.431  0.2697  0.3574  0.5109
19890TIP3   OH281160   1.580   1.042   4.528 -0.1929 -0.1342  0.0812
19890TIP3    H181161   1.597   1.068   4.618  0.4827  0.0434 -0.0914
19890TIP3    H281162   1.534   1.116   4.489 -1.2691 -0.5592  0.5155
19891TIP3   OH281163   3.585   1.022  14.759  0.1582  0.0481 -0.7907
19891TIP3    H181164   3.503   1.044  14.715  1.3662  0.2881 -3.0970
19891TIP3    H281165   3.595   0.928  14.747  0.2097  0.0096 -0.4666
19892TIP3   OH281166   3.706   5.770   6.191 -0.5737  0.3077  0.2405
19892TIP3    H181167   3.725   5.844   6.249  2.0719 -0.0016 -0.1006
19892TIP3    H281168   3.754   5.696   6.230 -3.6623 -1.5129  0.9493
19893TIP3   OH281169   0.122   0.103   5.312 -0.1712  0.2546  0.0291
19893TIP3    H181170   0.164   0.082   5.395  1.6758 -1.5958 -1.2855
19893TIP3    H281171   0.084   0.190   5.326  2.0014  0.9695  2.1183
19894TIP3   OH281172   4.334   2.708   3.187  0.1444 -0.3028 -0.1211
19894TIP3    H181173   4.331   2.665   3.102 -0.1287 -0.2014 -0.1625
19894TIP3    H281174   4.280   2.786   3.177  1.7692  0.8372 -0.4746
19895TIP3   OH281175   0.411   0.341   3.135 -0.1596  0.8615  0.1437
19895TIP3    H181176   0.363   0.270   3.178  0.9898  0.3660  0.6533
19895TIP3    H281177   0.365   0.421   3.164  0.0109  0.4809  1.5686
19896TIP3   OH281178   2.289   2.807  15.853  0.3053 -0.0010 -1.0667
19896TIP3    H181179   2.340   2.821  15.773  3.0002  1.4377  0.7469
19896TIP3    H281180   2.309   2.883  15.908 -1.6418 -0.8033  0.9088
19897TIP3   OH281181   0.522   6.761  11.066 -0.0677 -0.0746 -0.0408
19897TIP3    H181182   0.436   6.738  11.100  0.4716  0.1337  1.5479
19897TIP3    H281183   0.528   6.856  11.079  1.5231 -0.4601  2.7062
19898TIP3   OH281184   4.538   4.301  12.271 -0.2136 -0.3807  0.3303
19898TIP3    H181185   4.612   4.255  12.234  0.1554  0.0912  0.4715
19898TIP3    H281186   4.467   4.237  12.272  0.2094 -0.8488  0.2585
19899TIP3   OH281187   6.269   1.849   2.485  0.2368 -0.0418 -0.1173
19899TIP3    H181188   6.187   1.881   2.520  0.0206 -0.0492 -0.6069
19899TIP3    H281189   6.316   1.814   2.561  0.5477  1.5436  0.4569
19900TIP3   OH281190   4.951   2.311   0.297  0.5038  0.3062  0.2970
19900TIP3    H181191   4.992   2.225   0.287  0.1747  0.2883 -1.0420
19900TIP3    H281192   4.965   2.355   0.213 -1.0063  0.8064  0.2737
19901TIP3   OH281193   3.598   3.071  13.360 -0.2623 -0.3909 -0.0536
19901TIP3    H181194   3.533   3.141  13.352 -0.6843 -0.7366  0.2530
19901TIP3    H281195   3.546   2.991  13.372  0.1824 -0.3102  3.4357
19902TIP3   OH281196   3.477   5.067   0.379 -0.4926  0.3177  0.2800
19902TIP3    H181197   3.530   5.011   0.435 -2.2066 -0.9140  0.7504
19902TIP3    H281198   3.394   5.078   0.426 -0.8328  1.8646 -0.5887
19903TIP3   OH281199   2.067   6.387  14.987  0.1247  0.2421  0.0022
19903TIP3    H181200   2.000   6.370  14.921 -0.2219  0.1503  0.3692
19903TIP3    H281201   2.127   6.448  14.945 -0.4832  0.7539 -0.1527
19904TIP3   OH281202   6.695   3.530  11.977 -0.0740 -0.2701  0.1826
19904TIP3    H181203   6.627   3.566  11.920  0.2233 -1.0100 -0.6743
19904TIP3    H281204   6.772   3.524  11.920  0.6205  0.2527  1.0522
19905TIP3   OH281205   4.999   4.136   5.645  0.4095  0.2622 -0.4505
19905TIP3    H181206   5.064   4.174   5.704  0.3318 -0.8004  0.3561
19905TIP3    H281207   4.917   4.142   5.694  0.3867 -0.8632 -0.3233
19906TIP3   OH281208   4.631   1.175  16.756  0.0012 -0.6488 -0.4475
19906TIP3    H181209   4.624   1.101  16.816 -0.6951  0.7671  1.2889
19906TIP3    H281210   4.546   1.177  16.711 -0.4071 -0.2462  0.3252
19907TIP3   OH281211   4.667   3.661   2.014  0.1736  0.0331 -0.1342
19907TIP3    H181212   4.739   3.652   2.076  1.3358 -1.5887 -1.6250
19907TIP3    H281213   4.597   3.703   2.064  1.8654  0.9364  1.5828
19908TIP3   OH281214   6.707   5.242  12.448 -0.5018  0.3246  0.7423
19908TIP3    H181215   6.655   5.288  12.515 -4.3277 -2.2573 -0.1417
19908TIP3    H281216   6.715   5.153  12.481 -0.6370 -0.4781 -1.2452
19909TIP3   OH281217   5.612   4.253   5.842  0.1314 -0.6336 -0.3415
19909TIP3    H181218   5.632   4.212   5.926  0.1268 -2.1816 -1.0681
19909TIP3    H281219   5.590   4.344   5.865  1.4468 -0.6522  1.1665
19910TIP3   OH281220   5.458   1.321  12.210  0.1136  1.0160  0.3082
19910TIP3    H181221   5.454   1.407  12.167 -0.1871  1.9283  2.0688
19910TIP3    H281222   5.533   1.327  12.269 -0.5916  0.4796  1.2824
19911TIP3   OH281223   0.409   3.692  13.147  0.3204  0.3550  0.6153
19911TIP3    H181224   0.361   3.613  13.123  2.5722 -0.6672 -0.7970
19911TIP3    H281225   0.362   3.763  13.103  0.5417 -0.7150 -1.4235
19912TIP3   OH281226   5.256   2.158  14.894 -0.7384 -0.6509 -0.2555
19912TIP3    H181227   5.221   2.201  14.972 -1.1371 -1.6393  0.1240
19912TIP3    H281228   5.347   2.139  14.915 -0.3586  0.6118 -0.6893
19913TIP3   OH281229   0.531   4.433   4.005  0.1106 -0.2449  0.0408
19913TIP3    H181230   0.618   4.408   4.037 -1.2784 -1.7079  3.1249
19913TIP3    H281231   0.523   4.526   4.027  0.9641 -0.0328 -0.5187
19914TIP3   OH281232   3.288   3.493   5.158 -0.3606  0.1444  0.0873
19914TIP3    H181233   3.247   3.571   5.120 -1.5238 -0.9027 -0.9079
19914TIP3    H281234   3.339   3.456   5.086 -1.8996 -1.3912 -0.2851
19915TIP3   OH281235   2.391   0.100  16.935  0.1998  0.1075 -0.1060
19915TIP3    H181236   2.372   0.023  16.882  0.0697 -1.1020  1.5973
19915TIP3    H281237   2.476   0.130  16.904  0.3658 -0.8776 -0.6561
19916TIP3   OH281238   1.862   3.751   2.900 -1.0787  0.0066  0.3553
19916TIP3    H181239   1.884   3.830   2.851 -0.4839  0.2067  0.9338
19916TIP3    H281240   1.927   3.686   2.873 -0.6358  0.1716  0.9965
19917TIP3   OH281241   0.213   2.188  14.435 -0.0751 -0.0670 -0.2011
19917TIP3    H181242   0.171   2.152  14.513 -0.3076  0.0305 -0.2797
19917TIP3    H281243   0.208   2.118  14.371 -2.4057  0.7620 -1.0370
19918TIP3   OH281244   1.635   5.124  10.806 -0.0192  0.3654 -0.2565
19918TIP3    H181245   1.598   5.144  10.720 -0.9558  0.4982  0.1650
19918TIP3    H281246   1.655   5.031  10.803 -0.3327  0.3059 -0.5083
19919TIP3   OH281247   4.267   6.263   6.504  0.4539 -0.3281  0.0842
19919TIP3    H181248   4.337   6.208   6.539  0.2590 -0.5403  0.1423
19919TIP3    H281249   4.293   6.352   6.527 -0.0544 -0.5155  1.4670
19920TIP3   OH281250   4.135   5.848  15.755 -0.1567  0.1457  0.2070
19920TIP3    H181251   4.146   5.874  15.847  1.2066 -1.9730  0.7190
19920TIP3    H281252   4.076   5.773  15.759 -1.5104  1.1071 -0.8809
19921TIP3   OH281253   6.579   5.429  10.819 -0.1099 -0.6342  0.1546
19921TIP3    H181254   6.540   5.347  10.789 -0.1077  0.0644 -1.9030
19921TIP3    H281255   6.505   5.483  10.846 -0.3771 -0.2800 -1.2350
19922TIP3   OH281256   2.955   4.472   3.160 -0.0148 -0.1230 -0.4720
19922TIP3    H181257   2.942   4.563   3.136 -0.8528 -0.4554 -1.3692
19922TIP3    H281258   3.026   4.473   3.224 -0.6649  1.2514  0.2649
19923TIP3   OH281259   1.257   3.432   4.994  0.2748 -0.3105  0.3263
19923TIP3    H181260   1.335   3.400   5.039 -0.1793 -0.4904  0.9993
19923TIP3    H281261   1.187   3.373   5.022 -0.0021 -0.4898 -0.7045
19924TIP3   OH281262   3.987   0.195   4.454 -0.6502  0.0372  0.2249
19924TIP3    H181263   3.913   0.182   4.513 -0.4189 -1.8740  0.1808
19924TIP3    H281264   4.054   0.135   4.488 -0.3892 -0.8580 -1.7377
19925TIP3   OH281265   1.727   2.374   5.842 -0.2669  0.3109 -0.0888
19925TIP3    H181266   1.785   2.431   5.892 -0.8396  1.0309 -0.2388
19925TIP3    H281267   1.639   2.402   5.866 -0.5608  0.7620 -1.5857
19926TIP3   OH281268   0.569   6.271  17.243  0.0709  0.6351 -0.6983
19926TIP3    H181269   0.582   6.299  17.152  1.2098  0.9741 -0.4391
19926TIP3    H281270   0.524   6.187  17.235 -0.9830  1.2503 -1.5375
19927TIP3   OH281271   0.595   4.045   4.701 -0.1965 -0.3386 -0.3708
19927TIP3    H181272   0.680   4.004   4.685  0.0970  0.2347 -0.2851
19927TIP3    H281273   0.560   4.060   4.613 -0.4846 -1.1231 -0.4025
19928TIP3   OH281274   5.754   2.005   3.943 -0.3061  0.8842  0.6659
19928TIP3    H181275   5.740   1.969   3.855 -1.1213 -1.3841  1.6460
19928TIP3    H281276   5.668   2.036   3.970  0.5393  4.7851 -0.5286
19929TIP3   OH281277   4.111   5.509  13.094  0.0051  0.0294  0.5327
19929TIP3    H181278   4.026   5.549  13.076  0.1274  0.6711  1.3115
19929TIP3    H281279   4.104   5.478  13.184  0.8555  0.8314  0.8967
19930TIP3   OH281280   1.442   4.937   5.549  0.2688  0.8035 -0.0979
19930TIP3    H181281   1.492   5.013   5.518  1.0938 -0.0822 -1.0630
19930TIP3    H281282   1.385   4.971   5.618  2.3631  1.8393  1.2179
19931TIP3   OH281283   0.524   6.193   4.092 -0.1437 -0.0095  0.6276
19931TIP3    H181284   0.489   6.166   4.008  0.0214 -0.7915  0.8008
19931TIP3    H281285   0.478   6.138   4.156  2.2819 -2.0703  0.7816
19932TIP3   OH281286   1.039   0.386   3.650 -0.6772  0.1219 -0.0434
19932TIP3    H181287   1.025   0.390   3.745 -0.7242  1.5099 -0.0862
19932TIP3    H281288   1.132   0.368   3.640 -0.7827 -0.6273  0.2572
19933TIP3   OH281289   6.605   0.996  15.386 -0.2306  0.4085  0.0947
19933TIP3    H181290   6.641   1.027  15.469 -0.3631  2.0123 -0.4113
19933TIP3    H281291   6.629   1.064  15.322 -0.2678 -0.7078 -1.1595
19934TIP3   OH281292   6.770   1.576  11.846  0.5371  0.5801 -0.5965
19934TIP3    H181293   6.838   1.598  11.911 -0.3076  0.5042  0.3363
19934TIP3    H281294   6.717   1.656  11.840  0.4972  0.5202 -1.0596
19935TIP3   OH281295   6.029   4.298  12.543 -0.4125 -0.1185  0.1846
19935TIP3    H181296   6.048   4.336  12.457  0.4019 -0.6380  0.1264
19935TIP3    H281297   5.946   4.252  12.532 -1.8065  2.1777  0.4290
19936TIP3   OH281298   3.040   2.106  12.510  0.1286 -0.1459 -0.2824
19936TIP3    H181299   3.023   2.018  12.544 -0.8311  0.4497  0.8219
19936TIP3    H281300   3.047   2.161  12.587 -0.5203  0.9779 -0.9990
19937TIP3   OH281301   5.704   6.674  14.343 -0.0251  0.4314  0.0365
19937TIP3    H181302   5.736   6.641  14.259  1.6260 -1.2732  1.2309
19937TIP3    H281303   5.770   6.739  14.370  0.5456 -0.4615  0.8692
19938TIP3   OH281304   0.076   0.983   3.342 -0.6252  0.3376  0.4140
19938TIP3    H181305   0.012   0.929   3.295  0.5700 -1.3428  0.6022
19938TIP3    H281306   0.043   0.987   3.432 -0.1163 -1.2301  0.7143
19939TIP3   OH281307   1.816   1.273   6.620 -0.0222 -0.0795 -0.2599
19939TIP3    H181308   1.842   1.354   6.576 -1.1661  0.5881  0.2255
19939TIP3    H281309   1.721   1.268   6.607 -0.1712 -0.6056  0.9004
19940TIP3   OH281310   5.337   6.587  14.184  0.0603  0.0810 -0.4710
19940TIP3    H181311   5.364   6.499  14.158  1.8204  1.0091 -2.0762
19940TIP3    H281312   5.261   6.606  14.128 -3.2864 -1.9511  2.9640
19941TIP3   OH281313   1.439   6.066  11.531  0.7839  0.4457 -0.0986
19941TIP3    H181314   1.470   6.117  11.456  2.1192 -0.8225 -0.4519
19941TIP3    H281315   1.518   6.029  11.570  0.0468  0.5155  1.5484
19942TIP3   OH281316   2.780   1.306   2.112  0.2185 -0.3152 -0.4676
19942TIP3    H181317   2.811   1.276   2.198  1.0901 -0.5624 -0.8483
19942TIP3    H281318   2.859   1.306   2.057  0.1623  2.1497 -0.6503
19943TIP3   OH281319   2.090   4.272   2.200  0.3183 -0.1342  0.1328
19943TIP3    H181320   2.135   4.282   2.116  0.2100 -1.2766 -0.0858
19943TIP3    H281321   2.030   4.198   2.186 -2.4569  1.9514  0.0641
19944TIP3   OH281322   2.056   3.982  17.277 -0.1822 -0.1938  0.0242
19944TIP3    H181323   2.056   4.056  17.216  2.5618  0.8363  1.1086
19944TIP3    H281324   1.994   4.007  17.345 -0.6187  0.2800 -0.5376
19945TIP3   OH281325   4.279   6.233  13.260  0.1472 -0.4644  0.3566
19945TIP3    H181326   4.328   6.315  13.269  2.2163 -1.4115 -1.3749
19945TIP3    H281327   4.196   6.259  13.219  1.0031  0.7340 -0.7029
19946TIP3   OH281328   5.053   1.896  12.548 -0.0503 -0.2538  0.5159
19946TIP3    H181329   4.976   1.911  12.604 -0.0887 -0.5885  0.5568
19946TIP3    H281330   5.044   1.805  12.519 -0.1987  0.0096 -0.2985
19947TIP3   OH281331   6.606   6.169   2.888  0.3450  0.5004  0.9607
19947TIP3    H181332   6.650   6.145   2.806 -1.0211  0.4220  0.2344
19947TIP3    H281333   6.606   6.264   2.889  0.2320  0.5022  0.7961
19948TIP3   OH281334   4.799   0.524  14.068 -0.6574 -0.0058  0.2823
19948TIP3    H181335   4.850   0.605  14.069 -0.9269  0.2808 -2.2831
19948TIP3    H281336   4.799   0.494  14.159  2.4943  0.9552  0.7087
19949TIP3   OH281337   3.057   5.525   1.795  0.9732 -0.3310 -0.0345
19949TIP3    H181338   3.067   5.611   1.835  0.2639 -0.7022  0.9558
19949TIP3    H281339   3.065   5.542   1.701  1.9938  0.6451  0.2000
19950TIP3   OH281340   0.985   1.109  15.884 -0.1825 -0.7678  0.1324
19950TIP3    H181341   1.074   1.084  15.907 -0.2433  0.6575  2.2098
19950TIP3    H281342   0.964   1.181  15.943 -2.7944 -1.1926 -0.1397
19951TIP3   OH281343   5.912   2.061  13.768 -0.2094  0.1443 -0.0336
19951TIP3    H181344   5.945   2.013  13.692  3.1678 -0.0635  1.3966
19951TIP3    H281345   5.897   1.994  13.835 -0.9028  0.5554  0.2360
19952TIP3   OH281346   4.351   3.047   4.473  0.2266 -0.3855  0.7858
19952TIP3    H181347   4.423   3.009   4.422 -0.0851  0.7067 -0.5189
19952TIP3    H281348   4.318   2.973   4.525 -0.0313 -1.8198 -1.2869
19953TIP3   OH281349   4.878   5.512  13.946  0.1654 -0.3405 -0.6221
19953TIP3    H181350   4.799   5.460  13.959 -0.5602  0.3835 -1.9792
19953TIP3    H281351   4.874   5.579  14.015 -1.3306  0.7366 -1.6885
19954TIP3   OH281352   1.219   2.370  17.070 -0.3471  0.0408  0.0965
19954TIP3    H181353   1.199   2.305  17.137  2.0764  0.2054  1.0753
19954TIP3    H281354   1.304   2.343  17.034 -0.1349  1.6659 -0.7385
19955TIP3   OH281355   6.729   5.816   3.033 -0.0751  0.7100 -0.2959
19955TIP3    H181356   6.647   5.775   3.005 -0.4154  0.3150  1.1786
19955TIP3    H281357   6.790   5.742   3.042  0.1099  0.8658 -0.2719
19956TIP3   OH281358   2.522   4.288  14.903 -0.0225 -0.0089  0.1936
19956TIP3    H181359   2.523   4.380  14.877 -0.6014  0.0874  0.4914
19956TIP3    H281360   2.529   4.291  14.998  0.0152 -0.2773  0.1983
19957TIP3   OH281361   5.583   3.331   1.018 -0.1596  0.2176  0.5762
19957TIP3    H181362   5.499   3.377   1.025  0.2523  0.8225  2.1767
19957TIP3    H281363   5.609   3.316   1.109  2.7654  2.4929  0.2635
19958TIP3   OH281364   3.761   0.902  17.249 -0.3721 -0.3159  0.3335
19958TIP3    H181365   3.703   0.889  17.174 -0.6953  0.7040  0.4046
19958TIP3    H281366   3.849   0.909  17.211 -0.6754  1.5475 -0.1001
19959TIP3   OH281367   2.611   6.189   0.722 -0.5108  0.3789 -0.5760
19959TIP3    H181368   2.552   6.117   0.744 -1.1547  1.0282 -0.1310
19959TIP3    H281369   2.559   6.248   0.668 -0.5783  1.4144  0.5760
19960TIP3   OH281370   2.528   2.647  12.200 -0.3997  0.4194  0.1072
19960TIP3    H181371   2.467   2.577  12.222  0.5633 -0.6202 -0.4698
19960TIP3    H281372   2.482   2.700  12.135 -2.2755  2.0542  2.5974
19961TIP3   OH281373   6.072   2.099   4.837 -0.1801  0.5105 -0.1394
19961TIP3    H181374   6.157   2.088   4.794 -0.4088 -1.6212 -0.1836
19961TIP3    H281375   6.045   2.188   4.816  1.4223  0.7718 -1.2621
19962TIP3   OH281376   1.425   3.030   5.374 -0.0974 -0.1452  0.0914
19962TIP3    H181377   1.389   3.116   5.354  0.5044  0.2913  0.8104
19962TIP3    H281378   1.348   2.975   5.392 -0.4546  0.4442  0.3808
19963TIP3   OH281379   6.039   5.854   1.293  0.1166 -0.0610 -0.2609
19963TIP3    H181380   6.075   5.779   1.247 -0.0707 -0.9941  1.0502
19963TIP3    H281381   6.101   5.869   1.365 -0.4626  0.2952  0.1680
19964TIP3   OH281382   6.132   4.609  12.682  0.3517 -0.5659  0.7976
19964TIP3    H181383   6.207   4.630  12.737  1.1325  2.4105 -1.1695
19964TIP3    H281384   6.170   4.581  12.599 -0.6449  1.2064 -0.3094
19965TIP3   OH281385   1.076   2.034   5.462 -0.8465 -0.2118  0.1118
19965TIP3    H181386   1.033   1.953   5.488 -1.2649 -0.9859 -2.7632
19965TIP3    H281387   1.165   2.008   5.440  0.3326  0.8842  3.0544
19966TIP3   OH281388   1.294   1.277  13.195  0.2504  0.1944 -0.1077
19966TIP3    H181389   1.243   1.290  13.275 -0.8525  0.2428 -0.7991
19966TIP3    H281390   1.385   1.288  13.222 -0.0342 -0.8342  1.3492
19967TIP3   OH281391   3.423   1.649   3.940 -0.1956 -0.5374  0.0092
19967TIP3    H181392   3.352   1.595   3.973  1.1263 -1.7695  0.9605
19967TIP3    H281393   3.391   1.739   3.949 -0.5713 -0.8626  3.2199
19968TIP3   OH281394   0.038   0.098   2.102  0.0396  0.6371 -0.1021
19968TIP3    H181395   0.104   0.165   2.089  1.3815 -0.7736 -0.9335
19968TIP3    H281396   0.052   0.067   2.191  1.5224 -0.6286 -0.7211
19969TIP3   OH281397   2.167   0.975   4.798 -0.1912  0.1142  0.3851
19969TIP3    H181398   2.182   0.888   4.761  1.4250  1.2057 -1.7530
19969TIP3    H281399   2.205   0.970   4.885  0.5106 -1.1343  0.0428
19970TIP3   OH281400   6.542   0.607  12.978 -0.3260 -0.4944 -0.2369
19970TIP3    H181401   6.529   0.695  12.941  1.5059 -0.3000 -0.5397
19970TIP3    H281402   6.458   0.585  13.018 -0.4228  2.0311  1.1830
19971TIP3   OH281403   5.960   3.402   3.325  0.0829 -0.4347 -0.1704
19971TIP3    H181404   5.999   3.411   3.238  1.0652 -0.2702  0.2845
19971TIP3    H281405   6.028   3.361   3.378 -1.1038 -2.1749  0.1013
19972TIP3   OH281406   4.850   2.178  17.231  0.4956 -0.1871  0.4068
19972TIP3    H181407   4.876   2.269  17.247  0.4380 -0.5312  2.8186
19972TIP3    H281408   4.806   2.151  17.311 -0.1445 -2.1417 -0.5372
19973TIP3   OH281409   5.957   5.574   1.534 -0.2446  0.3206 -0.4689
19973TIP3    H181410   5.949   5.526   1.616 -1.6694  2.4304  0.7130
19973TIP3    H281411   6.051   5.575   1.516 -0.0476 -1.4524  0.3101
19974TIP3   OH281412   1.661   6.037  10.904  0.6386 -0.0186  0.0644
19974TIP3    H181413   1.750   6.058  10.877  1.3439  0.5910  2.5561
19974TIP3    H281414   1.612   6.119  10.891 -0.1875 -0.8840 -3.2100
19975TIP3   OH281415   2.122   0.635  15.517 -0.4678  0.6798 -0.0800
19975TIP3    H181416   2.208   0.608  15.485 -1.1208 -0.9923 -0.5464
19975TIP3    H281417   2.135   0.724  15.549  1.7842  0.0009  1.1677
19976TIP3   OH281418   3.438   2.132  13.453 -0.1822 -0.7194 -0.0902
19976TIP3    H181419   3.351   2.146  13.489  0.0814 -1.0375  0.6854
19976TIP3    H281420   3.457   2.040  13.472  0.2445 -0.7017 -0.4247
19977TIP3   OH281421   6.515   5.571  12.695 -0.0496 -0.0084 -0.0166
19977TIP3    H181422   6.515   5.514  12.618 -2.4676 -0.2422  0.0917
19977TIP3    H281423   6.532   5.512  12.769  4.5501  0.4944 -0.3562
19978TIP3   OH281424   5.110   4.441  15.456  1.1403  0.0242 -0.2766
19978TIP3    H181425   5.021   4.406  15.456  1.1505 -0.0104 -0.0004
19978TIP3    H281426   5.125   4.467  15.547  1.4508 -0.0685 -0.3007
19979TIP3   OH281427   2.197   3.875   6.266 -0.1098 -0.2594 -0.0577
19979TIP3    H181428   2.113   3.915   6.289  0.2259  0.7481 -0.5653
19979TIP3    H281429   2.262   3.944   6.279  0.5698 -0.8524 -0.2358
19980TIP3   OH281430   3.385   1.565  11.860  0.5999 -0.0859 -0.4117
19980TIP3    H181431   3.355   1.499  11.923 -0.1820  0.3851 -0.2818
19980TIP3    H281432   3.337   1.645  11.883  1.4468  0.5055 -0.6408
19981TIP3   OH281433   1.373   3.328  12.721 -0.1386 -0.2704  0.0756
19981TIP3    H181434   1.386   3.421  12.706  0.4167 -0.3061  0.2934
19981TIP3    H281435   1.288   3.308  12.682  0.4082  0.0160 -1.2995
19982TIP3   OH281436   5.204   3.757   5.866 -0.3381  0.1716  0.4651
19982TIP3    H181437   5.138   3.718   5.810  0.0747 -0.5068  0.4341
19982TIP3    H281438   5.184   3.850   5.867 -0.9182  0.0529 -0.0345
19983TIP3   OH281439   5.916   6.413   1.377 -0.0862 -0.4649 -0.4774
19983TIP3    H181440   5.827   6.379   1.388  0.0715 -0.5839  0.5814
19983TIP3    H281441   5.907   6.508   1.388 -0.0487 -0.5068 -0.0465
19984TIP3   OH281442   3.208   2.892   2.560  0.5903 -0.2267  0.5169
19984TIP3    H181443   3.212   2.812   2.507 -1.3645 -0.4618  0.6341
19984TIP3    H281444   3.115   2.902   2.581  0.9334  1.4983  1.4196
19985TIP3   OH281445   0.667   1.894   4.759  0.2708 -0.6682 -0.2097
19985TIP3    H181446   0.634   1.939   4.836 -1.2879 -0.3410 -1.0261
19985TIP3    H281447   0.589   1.872   4.709  1.0895 -2.8461 -0.6386
19986TIP3   OH281448   2.611   4.318  15.255  0.0589 -0.4543  0.3320
19986TIP3    H181449   2.539   4.273  15.211  0.6653 -0.7224 -0.4169
19986TIP3    H281450   2.572   4.398  15.290 -0.4637 -0.2578 -0.6649
19987TIP3   OH281451   1.528   4.141   0.390  0.1697 -0.4253 -0.6770
19987TIP3    H181452   1.441   4.104   0.377  0.5029 -1.4002 -0.2336
19987TIP3    H281453   1.568   4.141   0.303  0.5108 -2.0287 -0.5389
19988TIP3   OH281454   0.665   5.033  12.798  0.0578 -0.0085  0.1490
19988TIP3    H181455   0.570   5.044  12.804  0.2011  0.7341  1.5398
19988TIP3    H281456   0.687   5.060  12.709 -0.6272  3.4698  0.8708
19989TIP3   OH281457   3.069   5.159  13.456  0.2487 -0.5440 -0.1798
19989TIP3    H181458   3.133   5.091  13.435 -0.8984 -1.5613 -0.5455
19989TIP3    H281459   3.044   5.195  13.370  2.0249  1.5265  0.0932
19990TIP3   OH281460   2.477   5.083  12.898  0.5143  0.6904  0.1487
19990TIP3    H181461   2.430   5.163  12.923  1.3628  1.5910 -1.0119
19990TIP3    H281462   2.566   5.113  12.879  1.0264 -0.6554  0.3152
19991TIP3   OH281463   4.480   4.760   4.334  0.2182  0.5478  0.0024
19991TIP3    H181464   4.472   4.809   4.415  1.0174  0.0726  0.3885
19991TIP3    H281465   4.418   4.801   4.274  0.6026  1.7784  0.4269
19992TIP3   OH281466   5.426   2.751  10.553  0.2003 -0.1919 -0.0054
19992TIP3    H181467   5.437   2.702  10.471 -2.2228 -1.2864  0.2373
19992TIP3    H281468   5.491   2.714  10.612 -0.0530 -1.5513 -0.5314
19993TIP3   OH281469   1.763   6.333   1.548  0.5844 -0.8135  0.2305
19993TIP3    H181470   1.821   6.363   1.478 -2.0895  1.2927 -1.2649
19993TIP3    H281471   1.796   6.376   1.627  2.2230 -1.3081 -0.1534
19994TIP3   OH281472   5.362   0.644   4.733  0.4973  0.6179  0.2861
19994TIP3    H181473   5.275   0.683   4.737  0.8051  1.2517  1.0029
19994TIP3    H281474   5.379   0.632   4.640  0.2533  1.8810  0.0670
19995TIP3   OH281475   3.967   1.261   6.654  1.0931 -0.0763 -0.0016
19995TIP3    H181476   4.042   1.222   6.700 -0.4684 -0.3587  2.4888
19995TIP3    H281477   3.916   1.303   6.723 -0.2406  1.4968 -1.8531
19996TIP3   OH281478   1.262   5.053   1.437 -0.1960 -0.4779 -0.0094
19996TIP3    H181479   1.279   5.002   1.358 -1.3829 -0.2161 -0.4479
19996TIP3    H281480   1.224   4.991   1.498 -1.8515 -0.1098 -0.6212
19997TIP3   OH281481   6.155   5.729   3.503 -0.5638  0.1855  0.0196
19997TIP3    H181482   6.225   5.775   3.550 -1.0364  0.1527  0.7682
19997TIP3    H281483   6.108   5.682   3.571 -0.6870 -0.6272 -0.6155
19998TIP3   OH281484   4.912   4.501   0.108 -0.2881  0.0206  0.2308
19998TIP3    H181485   4.880   4.588   0.088  2.1452  0.9246  0.0330
19998TIP3    H281486   4.886   4.486   0.199  0.3699  1.4879  0.6742
19999TIP3   OH281487   6.758   4.981  12.531  0.2337  0.5894 -0.3276
19999TIP3    H181488   6.839   5.022  12.561  0.9308 -0.7824 -0.2787
19999TIP3    H281489   6.764   4.890  12.561 -0.4550 -0.0382 -1.9864
20000TIP3   OH281490   4.050   4.012   2.467  0.0351  0.1211 -0.0269
20000TIP3    H181491   4.119   3.988   2.404  0.3509  0.3536  0.2293
20000TIP3    H281492   4.036   4.105   2.452  0.5638  0.3238  0.6803
20001TIP3   OH281493   0.454   4.875  12.144  0.4742 -0.5768  0.0911
20001TIP3    H181494   0.422   4.952  12.191  1.3954  0.4494 -0.8994
20001TIP3    H281495   0.523   4.909  12.087 -1.8034 -1.3517 -3.4476
20002TIP3   OH281496   1.614   5.554  15.132  0.2263  0.0822 -0.2970
20002TIP3    H181497   1.648   5.618  15.070 -2.0304  0.8917 -0.8222
20002TIP3    H281498   1.565   5.492  15.077  0.4206 -0.7263  0.4310
20003TIP3   OH281499   0.934   1.447  12.155  0.1306  0.1388  0.6169
20003TIP3    H181500   0.930   1.377  12.219 -2.5136  1.8814  2.5711
20003TIP3    H281501   0.963   1.524  12.205 -3.4362  1.9112  0.2995
20004TIP3   OH281502   3.861   0.518  13.891 -0.8147  0.3082  0.1249
20004TIP3    H181503   3.820   0.536  13.975 -2.1294  0.4900 -0.5381
20004TIP3    H281504   3.817   0.576  13.829 -0.7581 -0.7148 -0.9110
20005TIP3   OH281505   5.079   1.556  15.419  0.2280 -0.7170 -0.3086
20005TIP3    H181506   5.066   1.485  15.482  0.9373 -0.2526  0.3890
20005TIP3    H281507   5.010   1.545  15.355 -0.5390 -1.1880  0.5810
20006TIP3   OH281508   3.249   4.000   3.049  0.3824 -0.5671 -0.1910
20006TIP3    H181509   3.254   3.907   3.030 -2.0202 -0.5341 -1.3142
20006TIP3    H281510   3.167   4.029   3.009  1.2090  2.1081 -0.1654
20007TIP3   OH281511   1.561   4.212   2.858 -0.3040 -0.3523 -0.6445
20007TIP3    H181512   1.578   4.181   2.947 -1.8205 -0.1327 -0.2543
20007TIP3    H281513   1.612   4.153   2.802  0.5973 -0.5444  0.3566
20008TIP3   OH281514   6.154   0.729  12.386 -0.0602  0.0783 -1.0776
20008TIP3    H181515   6.150   0.635  12.369 -1.0508 -0.0302 -0.3053
20008TIP3    H281516   6.182   0.736  12.477 -1.1031  0.4936 -0.7739
20009TIP3   OH281517   3.909   1.372  13.595  0.1121  0.4953 -0.1980
20009TIP3    H181518   3.878   1.458  13.622 -0.1354  0.2236  0.4079
20009TIP3    H281519   3.863   1.355  13.512  0.2749  1.0002 -0.3947
20010TIP3   OH281520   6.304   1.846  13.074 -0.2929 -0.2894  0.2222
20010TIP3    H181521   6.262   1.787  13.012 -0.6517  1.0074 -0.8068
20010TIP3    H281522   6.237   1.912  13.094  0.4128  0.3470  0.5619
20011TIP3   OH281523   0.393   6.315   3.073  0.0165 -0.0306  0.1204
20011TIP3    H181524   0.375   6.260   2.997 -0.7532 -0.2117  0.4172
20011TIP3    H281525   0.324   6.292   3.135 -0.4822  1.4651  0.1468
20012TIP3   OH281526   2.854   2.305  12.058  0.2386 -0.3750 -0.9978
20012TIP3    H181527   2.778   2.267  12.102 -0.0481  0.1001 -1.0752
20012TIP3    H281528   2.904   2.229  12.026 -0.5671 -0.6784 -1.5649
20013TIP3   OH281529   4.743   0.837  13.493 -0.1877  0.0546  0.2083
20013TIP3    H181530   4.710   0.902  13.555 -1.3744 -0.9985  0.7300
20013TIP3    H281531   4.664   0.795  13.458  0.5388 -0.9548 -0.2686
20014TIP3   OH281532   6.023   1.082   2.103  0.7118 -0.4103 -0.2713
20014TIP3    H181533   6.034   0.999   2.149 -2.2967  0.4629  2.3759
20014TIP3    H281534   5.947   1.068   2.046  0.6821  0.2606 -0.4058
20015TIP3   OH281535   6.262   3.998  11.253 -0.0585 -0.2006  0.7718
20015TIP3    H181536   6.225   4.081  11.222  0.4229 -0.0345  0.6266
20015TIP3    H281537   6.187   3.949  11.287 -0.5497 -0.2499 -0.3384
20016TIP3   OH281538   6.186   2.829   1.795 -0.7723 -0.7185 -0.9753
20016TIP3    H181539   6.272   2.815   1.756 -0.0853  0.7637 -0.0980
20016TIP3    H281540   6.184   2.923   1.816 -1.9302 -1.0357  0.5449
20017TIP3   OH281541   4.938   3.404  16.230  0.0146 -0.6885 -0.2326
20017TIP3    H181542   4.919   3.433  16.319  0.9522 -2.2096  0.5005
20017TIP3    H281543   4.902   3.316  16.225  1.2574 -1.1764 -0.8826
20018TIP3   OH281544   1.743   2.027   4.137  0.2376  0.5965  0.3651
20018TIP3    H181545   1.683   2.101   4.149 -1.0825 -0.1294 -1.3975
20018TIP3    H281546   1.789   2.020   4.221 -1.7731  1.5031  1.6148
20019TIP3   OH281547   5.289   3.793   0.289  0.8367  0.0365 -0.1397
20019TIP3    H181548   5.345   3.717   0.299  1.6487  0.6971  0.4835
20019TIP3    H281549   5.348   3.868   0.297  0.1934  0.7418 -1.5278
20020TIP3   OH281550   4.630   1.444   4.171 -0.1798 -0.2138 -0.1426
20020TIP3    H181551   4.580   1.449   4.252 -0.6020 -0.1812 -0.4039
20020TIP3    H281552   4.722   1.443   4.199 -0.2801  1.0336  0.2875
20021TIP3   OH281553   2.941   4.198   1.421 -0.0619  0.5756 -0.0432
20021TIP3    H181554   3.006   4.198   1.350  0.4969 -1.3335  0.3993
20021TIP3    H281555   2.933   4.289   1.446 -0.9353  1.4869 -3.1308
20022TIP3   OH281556   1.940   0.126  11.453  0.4375  0.0289  0.3062
20022TIP3    H181557   1.955   0.045  11.503  1.3308 -0.1558 -0.2449
20022TIP3    H281558   1.852   0.154  11.479 -0.3897 -1.7688 -0.3921
20023TIP3   OH281559   4.113   1.164  13.257  0.3004  0.5057  0.4872
20023TIP3    H181560   4.132   1.252  13.291 -1.5029  1.2167 -0.2099
20023TIP3    H281561   4.067   1.121  13.329 -1.1516  1.0862 -0.0533
20024TIP3   OH281562   6.744   6.687   6.218 -0.1381 -0.0487 -0.0538
20024TIP3    H181563   6.805   6.648   6.281  1.5159 -1.2004 -2.2077
20024TIP3    H281564   6.667   6.631   6.222  0.2852 -0.6132  0.3790
20025TIP3   OH281565   1.442   6.127  12.016  0.0843 -0.0366 -0.2669
20025TIP3    H181566   1.415   6.067  11.946  2.0366 -1.2610 -0.0701
20025TIP3    H281567   1.538   6.121  12.016  0.1537 -0.2721  2.6422
20026TIP3   OH281568   4.570   5.411  12.133 -0.2670 -0.2824 -0.0538
20026TIP3    H181569   4.608   5.473  12.070 -0.4949  0.5676  0.6351
20026TIP3    H281570   4.563   5.460  12.214 -2.0235 -0.6962  0.0819
20027TIP3   OH281571   6.439   6.263   0.646  0.3907 -0.1564  0.5150
20027TIP3    H181572   6.361   6.319   0.643  0.8458  0.4712 -0.7904
20027TIP3    H281573   6.474   6.267   0.557  2.1768 -0.0300  1.1794
20028TIP3   OH281574   0.649   1.382  16.367  0.8377 -0.0317 -0.3558
20028TIP3    H181575   0.712   1.380  16.296  1.4757  2.3105  0.0787
20028TIP3    H281576   0.680   1.316  16.429  1.2296 -0.8780 -1.4232
20029TIP3   OH281577   5.516   5.938  12.555 -0.3472  0.1828 -0.0955
20029TIP3    H181578   5.461   5.983  12.491  0.1920 -0.8664 -1.3721
20029TIP3    H281579   5.573   5.883  12.501 -1.2209 -2.3050  1.3468
20030TIP3   OH281580   1.926   5.973  13.398  0.6979 -0.5156 -0.0375
20030TIP3    H181581   1.960   6.060  13.377 -0.3776 -0.1217 -0.2040
20030TIP3    H281582   1.883   5.944  13.317  3.2262 -2.3248 -0.8560
20031TIP3   OH281583   4.402   0.851  15.246 -0.0753  0.4796 -0.1150
20031TIP3    H181584   4.480   0.817  15.203  0.2574 -0.7669  1.3789
20031TIP3    H281585   4.349   0.888  15.175  0.8073 -0.7501 -1.4618
20032TIP3   OH281586   0.037   0.313   0.941  0.1693 -0.5007  0.3345
20032TIP3    H181587   0.085   0.293   1.021  1.1014 -1.3123 -0.4054
20032TIP3    H281588  -0.054   0.291   0.962  0.4181 -0.7954  1.1347
20033TIP3   OH281589   4.102   2.136   0.477  0.0653  0.0078 -0.0796
20033TIP3    H181590   4.071   2.178   0.558 -0.5267  0.8986 -0.7441
20033TIP3    H281591   4.191   2.109   0.496  0.2157  0.9456  0.6156
20034TIP3   OH281592   0.064   4.345  16.673  0.2415  0.1584  0.5324
20034TIP3    H181593  -0.029   4.326  16.665  0.7490 -1.5762 -2.4874
20034TIP3    H281594   0.106   4.293  16.605  3.6258 -0.1991  2.6295
20035TIP3   OH281595   3.601   1.994  12.908  0.0774 -0.2071 -0.8239
20035TIP3    H181596   3.593   2.090  12.907  1.7187  0.0351  1.3250
20035TIP3    H281597   3.635   1.972  12.821 -1.3218  1.0069 -1.7308
20036TIP3   OH281598   3.101   4.684   1.306 -0.4726  0.4595  0.0792
20036TIP3    H181599   3.196   4.674   1.315 -0.4337 -0.0757 -0.7267
20036TIP3    H281600   3.082   4.771   1.340  0.2509  0.4043  0.6414
20037TIP3   OH281601   1.295   1.049  12.796  0.3020  0.0254  0.8743
20037TIP3    H181602   1.316   1.136  12.762 -1.4277  0.2743  0.3307
20037TIP3    H281603   1.205   1.058  12.830  0.6725 -1.1478  2.2638
20038TIP3   OH281604   1.827   1.553  12.007  0.4869  0.5965  0.0694
20038TIP3    H181605   1.814   1.565  12.101  1.7641  1.5822  0.1599
20038TIP3    H281606   1.773   1.477  11.984  2.1707 -1.3865  2.1207
20039TIP3   OH281607   1.473   5.091  11.392  0.1228 -0.2388 -0.2029
20039TIP3    H181608   1.447   5.081  11.300  0.1002 -4.0543  0.0679
20039TIP3    H281609   1.568   5.091  11.390  0.1320  0.3947 -0.2182
20040TIP3   OH281610   0.521   2.070   5.484 -0.1311 -0.1291  0.2261
20040TIP3    H181611   0.442   2.113   5.516  0.2765  0.5769  0.2993
20040TIP3    H281612   0.490   1.992   5.439 -0.8541  0.0377  0.4319
20041TIP3   OH281613   1.368   6.190  14.268 -0.4245 -0.5068  0.2851
20041TIP3    H181614   1.289   6.160  14.312 -1.0420 -0.2968 -0.6484
20041TIP3    H281615   1.337   6.240  14.193  0.5405  2.7959  1.8882
20042TIP3   OH281616   4.449   2.820  13.027  0.9837  0.3266  0.5296
20042TIP3    H181617   4.515   2.808  13.095  1.2501 -0.2734  0.1716
20042TIP3    H281618   4.499   2.820  12.945  0.6170  0.5908  0.3045
20043TIP3   OH281619   1.964   5.479  15.062  0.2897 -0.7722  0.2006
20043TIP3    H181620   1.939   5.568  15.089 -0.9102 -1.6338  2.1448
20043TIP3    H281621   2.015   5.492  14.982 -0.1850  1.6339  0.2038
20044TIP3   OH281622   2.861   4.852   1.082 -0.3348 -0.0562 -0.1655
20044TIP3    H181623   2.853   4.775   1.026  1.0193  0.3495 -0.9618
20044TIP3    H281624   2.870   4.817   1.171  1.6369 -0.9136 -0.6558
20045TIP3   OH281625   4.098   6.626  14.763  0.1670  0.5204  0.0795
20045TIP3    H181626   4.135   6.609  14.850 -0.9455  0.6875  0.6034
20045TIP3    H281627   4.157   6.691  14.724  0.7362  0.3634  0.6600
20046TIP3   OH281628   1.408   4.537   3.282  0.4258 -0.7996 -0.0886
20046TIP3    H181629   1.480   4.587   3.244 -1.2941  1.4777 -0.5761
20046TIP3    H281630   1.352   4.516   3.207 -0.6597 -0.3210  0.5668
20047TIP3   OH281631   2.799   3.051   0.130  0.4679 -0.7137  0.3564
20047TIP3    H181632   2.893   3.035   0.132  0.3607 -1.7954  3.7591
20047TIP3    H281633   2.778   3.081   0.219 -2.1122  1.7207 -0.9066
20048TIP3   OH281634   0.297   1.541  13.593 -0.6612  0.4053  0.4693
20048TIP3    H181635   0.314   1.499  13.677  0.1893 -0.7141 -0.2364
20048TIP3    H281636   0.377   1.527  13.542 -1.2067  0.9487 -0.5720
20049TIP3   OH281637   4.895   6.385  11.040 -0.3726  0.3168  0.3201
20049TIP3    H181638   4.890   6.295  11.008  0.3873  0.9833 -1.8804
20049TIP3    H281639   4.812   6.424  11.013 -0.7777  0.2674  1.4286
20050TIP3   OH281640   2.368   4.767   4.878 -0.8247 -0.0513 -0.3267
20050TIP3    H181641   2.364   4.846   4.931 -1.1983 -0.1929 -0.1433
20050TIP3    H281642   2.462   4.749   4.870 -0.7548  0.1144  0.0773
20051TIP3   OH281643   0.005   6.559   1.826  0.0761  0.3472  0.5870
20051TIP3    H181644  -0.068   6.523   1.775  0.7499  1.7110 -1.4309
20051TIP3    H281645   0.082   6.546   1.771  0.6748  2.8085  0.7246
20052TIP3   OH281646   0.762   5.898  17.210 -0.3703 -0.0991 -0.0923
20052TIP3    H181647   0.789   5.955  17.138  1.0709 -1.0884 -0.3713
20052TIP3    H281648   0.748   5.812  17.169 -0.5167 -0.4325  0.6372
20053TIP3   OH281649   5.017   0.793   2.484 -0.1638 -0.3731  0.4690
20053TIP3    H181650   4.993   0.717   2.538  1.5240  0.1630  2.0973
20053TIP3    H281651   5.112   0.799   2.492 -0.2439  1.9117  0.4000
20054TIP3   OH281652   1.337   6.381  15.095  0.4031  0.2965 -0.5508
20054TIP3    H181653   1.407   6.320  15.070  0.2021 -0.8319  1.4015
20054TIP3    H281654   1.306   6.348  15.179 -2.2381  0.9816 -1.1663
20055TIP3   OH281655   2.684   5.600  14.175  0.6088 -0.0297 -0.1764
20055TIP3    H181656   2.595   5.628  14.195  1.2975  2.4336 -0.1902
20055TIP3    H281657   2.694   5.516  14.220 -1.5844 -0.2003  0.0931
20056TIP3   OH281658   3.532   5.889  15.710 -0.0400 -0.0884  0.0737
20056TIP3    H181659   3.575   5.970  15.738  0.5790  0.1381 -1.4096
20056TIP3    H281660   3.464   5.918  15.649  0.8197 -0.7002 -1.2348
20057TIP3   OH281661   3.708   2.273   1.404  0.0557  0.9457 -0.6335
20057TIP3    H181662   3.757   2.237   1.330 -0.4662  0.4308 -0.7381
20057TIP3    H281663   3.770   2.331   1.449  1.0129 -0.3340 -0.2768
20058TIP3   OH281664   0.606   3.252  10.992  0.4960  0.2169  0.3114
20058TIP3    H181665   0.554   3.315  10.943 -0.4232 -2.2656 -2.2413
20058TIP3    H281666   0.691   3.253  10.948  0.4247 -0.3789  0.1477
20059TIP3   OH281667   0.833   1.841  15.076  0.3779 -0.2932 -0.2791
20059TIP3    H181668   0.924   1.831  15.102  0.0897  1.2676  1.5830
20059TIP3    H281669   0.837   1.871  14.985  1.8176  1.3930  0.2943
20060TIP3   OH281670   0.467   0.414  16.425 -0.2062  0.5112  0.5506
20060TIP3    H181671   0.513   0.378  16.500 -0.6574  1.5493  1.3400
20060TIP3    H281672   0.460   0.340  16.364 -0.2037 -0.4591  1.6850
20061TIP3   OH281673   2.990   5.588  11.657  0.3539 -0.6110 -0.1021
20061TIP3    H181674   2.988   5.564  11.750  2.4183 -1.0506 -0.1146
20061TIP3    H281675   2.973   5.682  11.656 -1.5684 -0.9108  0.5171
20062TIP3   OH281676   1.288   3.815   2.297  0.0250  0.1163 -0.5255
20062TIP3    H181677   1.199   3.824   2.264 -0.5693 -1.1936  0.6218
20062TIP3    H281678   1.309   3.902   2.332 -0.5791  0.5932 -1.3224
20063TIP3   OH281679   2.808   2.254  12.757 -0.2092  0.2206 -0.1466
20063TIP3    H181680   2.770   2.333  12.719 -1.2082 -1.7079 -3.6751
20063TIP3    H281681   2.902   2.271  12.758 -0.4379  1.6311 -0.3524
20064TIP3   OH281682   1.582   4.151  15.090  0.6222 -0.2667 -0.4448
20064TIP3    H181683   1.587   4.208  15.013  3.2089 -1.8624 -1.6009
20064TIP3    H281684   1.603   4.209  15.164  1.0547  0.7249 -1.3251
20065TIP3   OH281685   1.969   1.175  11.951  0.3822 -0.6650  0.1563
20065TIP3    H181686   2.000   1.146  12.037  1.4219  1.8171  0.6942
20065TIP3    H281687   1.880   1.207  11.967  0.5052 -0.3792  0.2686
20066TIP3   OH281688   5.672   0.416   6.881  0.2550 -0.3108 -0.4372
20066TIP3    H181689   5.657   0.328   6.848  0.6995  0.0347 -1.5809
20066TIP3    H281690   5.592   0.464   6.858 -0.5413 -0.7157  1.3244
20067TIP3   OH281691   6.527   6.164   5.693  0.5674 -0.4623 -0.1335
20067TIP3    H181692   6.459   6.109   5.733 -0.8235  1.4698  0.3345
20067TIP3    H281693   6.496   6.178   5.603 -0.1022  1.0160  0.2898
20068TIP3   OH281694   3.479   1.423  15.873 -0.4757 -0.2761  0.1816
20068TIP3    H181695   3.414   1.443  15.940 -0.7478 -1.6519  0.3502
20068TIP3    H281696   3.433   1.436  15.790  0.2055  2.6380  0.1523
20069TIP3   OH281697   3.694   5.340  11.078 -0.4519 -0.2936  0.6999
20069TIP3    H181698   3.732   5.387  11.004 -1.5712 -0.3531  0.0843
20069TIP3    H281699   3.727   5.387  11.155  0.2091  0.1480  0.1572
20070TIP3   OH281700   2.421   0.911  14.768 -0.4866 -0.0843 -0.1308
20070TIP3    H181701   2.375   0.829  14.752  2.2281 -1.2922 -2.8493
20070TIP3    H281702   2.384   0.972  14.704 -0.3331 -0.1639 -0.2961
20071TIP3   OH281703   4.927   3.110  12.543 -0.0314 -0.7730 -0.4077
20071TIP3    H181704   4.918   3.157  12.626 -0.2495 -0.5169 -0.5752
20071TIP3    H281705   4.852   3.051  12.539 -0.2617 -0.4637 -0.6300
20072TIP3   OH281706   2.180   3.181  10.885 -0.2853  0.2942 -0.0594
20072TIP3    H181707   2.113   3.206  10.821 -0.2404  0.3307 -0.0922
20072TIP3    H281708   2.255   3.236  10.865  0.8459 -1.7921 -1.9517
20073TIP3   OH281709   5.568   3.930  15.958  0.0459  0.1148  0.5292
20073TIP3    H181710   5.578   3.903  15.867 -0.6166  0.7943  0.2448
20073TIP3    H281711   5.482   3.897  15.984 -0.0303  0.4532  0.7161
20074TIP3   OH281712   2.427   2.957   1.765 -0.0799  0.0021 -0.6721
20074TIP3    H181713   2.456   3.044   1.793  2.0381 -0.6963 -0.5090
20074TIP3    H281714   2.498   2.924   1.711 -0.1498 -2.1989  0.4423
20075TIP3   OH281715   1.003   6.213  12.070  0.3573  0.1341 -0.7245
20075TIP3    H181716   1.041   6.129  12.045  0.7770  0.1409 -0.1262
20075TIP3    H281717   1.031   6.273  12.001 -0.3742 -0.3128 -1.4321
20076TIP3   OH281718   3.593   0.439  14.585  0.1124  0.1527  0.2622
20076TIP3    H181719   3.532   0.492  14.635 -2.5512 -1.7606 -0.7047
20076TIP3    H281720   3.570   0.455  14.493  1.7043  0.0669 -0.1859
20077TIP3   OH281721   2.341   4.270   2.686 -0.5883 -0.0306  0.3120
20077TIP3    H181722   2.288   4.315   2.620 -0.1554  0.6357  0.4175
20077TIP3    H281723   2.278   4.221   2.738 -1.1313  0.9628  0.5996
20078TIP3   OH281724   1.471   0.660  16.295 -0.1382  0.3012 -0.2141
20078TIP3    H181725   1.406   0.590  16.292  1.0049 -0.7993 -0.2713
20078TIP3    H281726   1.430   0.728  16.348 -1.7348  0.0802 -1.1177
20079TIP3   OH281727   3.678   0.484   5.980  0.5028 -0.4699 -0.1714
20079TIP3    H181728   3.608   0.533   5.936  1.5985  0.6930 -0.6584
20079TIP3    H281729   3.636   0.402   6.007 -0.9997  0.1239 -0.6112
20080TIP3   OH281730   2.586   1.461   5.207 -0.0766  0.1007  0.1641
20080TIP3    H181731   2.551   1.504   5.129  1.6754  0.9411 -0.2248
20080TIP3    H281732   2.534   1.497   5.279 -1.0501  0.0804 -0.5075
20081TIP3   OH281733   0.718   1.519   2.555 -0.5385 -0.2445 -0.1099
20081TIP3    H181734   0.782   1.520   2.484  1.6137 -0.3325  1.7212
20081TIP3    H281735   0.677   1.433   2.549  0.3613 -0.6543 -0.6214
20082TIP3   OH281736   0.678   0.121  10.334 -0.1330 -0.4211 -0.5013
20082TIP3    H181737   0.725   0.059  10.389  0.9566  1.4717  0.8182
20082TIP3    H281738   0.746   0.176  10.296 -1.1382  0.8676 -0.4892
20083TIP3   OH281739   1.148   4.509   5.248  0.3799  0.0848  0.6071
20083TIP3    H181740   1.093   4.472   5.318 -1.8904 -0.1814 -1.1709
20083TIP3    H281741   1.215   4.559   5.294 -0.8875 -0.2171  2.9786
20084TIP3   OH281742   6.541   5.464  12.432 -0.4385  0.1575 -0.2268
20084TIP3    H181743   6.458   5.457  12.385 -1.4515 -0.7726  1.6340
20084TIP3    H281744   6.602   5.413  12.379 -1.4040 -0.3736 -0.8522
20085TIP3   OH281745   6.255   1.110  16.931 -0.2857  0.5087 -0.2317
20085TIP3    H181746   6.281   1.132  16.841  0.6417  0.2691 -0.0361
20085TIP3    H281747   6.319   1.045  16.959  0.1902  1.4757  1.0173
20086TIP3   OH281748   1.852   3.303   5.266 -0.5909  0.0926  0.0055
20086TIP3    H181749   1.824   3.212   5.255 -0.5472 -0.0659  1.0729
20086TIP3    H281750   1.946   3.297   5.282 -0.7444  0.2412  1.0074
20087TIP3   OH281751   6.040   2.668  13.768 -0.2326  0.7069 -0.2102
20087TIP3    H181752   5.958   2.629  13.798 -0.4567  0.6164 -0.9156
20087TIP3    H281753   6.065   2.615  13.691  0.7711  0.3915  0.3096
20088TIP3   OH281754   1.612   0.814   3.856  0.3078  0.3890 -0.3392
20088TIP3    H181755   1.517   0.799   3.860  0.5989 -1.4733  1.4348
20088TIP3    H281756   1.649   0.727   3.842  1.8253  0.8861  0.3917
20089TIP3   OH281757   4.390   2.518  14.912 -0.2073  0.0242 -0.1377
20089TIP3    H181758   4.456   2.577  14.948 -0.8448  0.9643 -0.4821
20089TIP3    H281759   4.362   2.560  14.831 -0.9940 -0.5294 -0.1589
20090TIP3   OH281760   5.433   3.906  14.489  0.1150  0.0983 -0.5067
20090TIP3    H181761   5.493   3.968  14.531  1.1100 -1.4818  0.5024
20090TIP3    H281762   5.482   3.873  14.414 -0.2619  0.2356 -0.8155
20091TIP3   OH281763   3.262   0.985   2.250 -0.1446 -0.0911 -0.0050
20091TIP3    H181764   3.339   0.990   2.193 -1.1012  0.8287 -1.2874
20091TIP3    H281765   3.187   0.987   2.189 -1.2531  2.0795  1.2929
20092TIP3   OH281766   0.221   2.871   0.469  0.1682 -0.1652  0.1852
20092TIP3    H181767   0.218   2.899   0.560  2.6506  1.4324 -0.1371
20092TIP3    H281768   0.314   2.874   0.445 -0.2445 -1.8733 -2.0272
20093TIP3   OH281769   5.610   5.431   0.479  0.1382 -0.3612  0.0475
20093TIP3    H181770   5.536   5.396   0.528  0.8392 -0.4397  1.0638
20093TIP3    H281771   5.680   5.439   0.543  1.1532 -0.7166 -0.9895
20094TIP3   OH281772   2.116   5.738  17.179  0.1693  0.4516  0.3008
20094TIP3    H181773   2.033   5.756  17.137  0.3138 -0.9234 -0.6362
20094TIP3    H281774   2.181   5.786  17.127  0.0881  0.6134  0.3514
20095TIP3   OH281775   5.106   0.409  15.827  0.5289  0.1531  0.2845
20095TIP3    H181776   5.094   0.343  15.896  2.7467  0.3020  0.9100
20095TIP3    H281777   5.099   0.360  15.745  0.9728 -0.6450  0.7112
20096TIP3   OH281778   0.777   5.620   4.502  0.5470  0.2084  0.0432
20096TIP3    H181779   0.807   5.533   4.528 -1.2410 -0.4544  0.0165
20096TIP3    H281780   0.847   5.679   4.530  1.9662 -1.2674 -0.2781
20097TIP3   OH281781   0.888   4.621   5.785 -0.4925 -0.1404 -0.3322
20097TIP3    H181782   0.952   4.550   5.789  0.3700  0.6711  0.7568
20097TIP3    H281783   0.805   4.579   5.811  0.1978 -0.5712  1.3526
20098TIP3   OH281784   5.282   5.634  14.907  0.0314 -0.3380  0.3155
20098TIP3    H181785   5.357   5.584  14.879 -0.5160 -0.9846 -0.0170
20098TIP3    H281786   5.212   5.612  14.845 -1.0804 -1.4945  1.8974
20099TIP3   OH281787   0.971   1.310   5.130 -0.6845  0.0901  0.1500
20099TIP3    H181788   0.923   1.305   5.047 -0.2635  0.9452 -0.1536
20099TIP3    H281789   1.048   1.255   5.116 -0.2250  0.8384 -0.3006
20100TIP3   OH281790   5.900   1.731   2.014 -0.4575  0.3013  0.2832
20100TIP3    H181791   5.900   1.768   1.925 -0.6946 -1.3579 -0.4465
20100TIP3    H281792   5.992   1.710   2.031 -0.7674 -2.8834 -1.1888
20101TIP3   OH281793   3.631   2.794   6.045 -0.5958 -0.1447 -0.6499
20101TIP3    H181794   3.689   2.862   6.080  0.6317 -2.3920  2.0971
20101TIP3    H281795   3.686   2.716   6.039 -2.5506 -1.5653 -1.1795
20102TIP3   OH281796   4.440   3.626   0.904  0.3214  0.3196  0.3626
20102TIP3    H181797   4.432   3.634   0.809  2.2519  2.3527  0.2904
20102TIP3    H281798   4.530   3.597   0.919 -0.1959 -0.7755  1.5765
20103TIP3   OH281799   0.014   6.459   6.506  0.0301  0.6706 -0.3649
20103TIP3    H181800   0.095   6.504   6.528  0.6110 -0.7326  0.5560
20103TIP3    H281801   0.031   6.420   6.419  0.8496 -0.6544  0.3532
20104TIP3   OH281802   3.299   3.433   5.416  0.0153  0.1535  0.0866
20104TIP3    H181803   3.298   3.444   5.321  1.2118  1.5128  0.1965
20104TIP3    H281804   3.285   3.521   5.451 -0.1438 -0.2867  1.1680
20105TIP3   OH281805   0.292   5.929  16.804  0.3068 -0.3273  0.7009
20105TIP3    H181806   0.267   6.021  16.808  0.2649 -0.3389  0.7127
20105TIP3    H281807   0.268   5.894  16.890  0.5792 -0.2847  0.7968
20106TIP3   OH281808   4.009   2.355  11.206  0.1638  0.0643  0.4217
20106TIP3    H181809   4.024   2.262  11.223  1.9628  0.2594  0.1025
20106TIP3    H281810   3.984   2.359  11.114 -0.2769 -0.1282  0.5307
20107TIP3   OH281811   0.924   6.102   5.537 -0.1518 -0.2473 -0.6856
20107TIP3    H181812   1.007   6.072   5.575 -0.3161 -0.2991 -0.3731
20107TIP3    H281813   0.919   6.195   5.562 -0.2712 -0.2875 -0.5615
20108TIP3   OH281814   4.404   4.340   2.150 -0.2229  0.2354 -0.2656
20108TIP3    H181815   4.466   4.372   2.215 -1.8284  1.3015  0.8199
20108TIP3    H281816   4.369   4.419   2.110 -0.4582 -0.3664 -1.2851
20109TIP3   OH281817   0.166   2.304   2.092  0.2035 -0.4803  0.1262
20109TIP3    H181818   0.148   2.386   2.139  1.0421 -0.1232 -0.1679
20109TIP3    H281819   0.211   2.250   2.156  0.1382 -0.5099  0.1476
20110TIP3   OH281820   1.079   3.444   1.090  0.5470 -0.0180 -0.3180
20110TIP3    H181821   1.152   3.428   1.030  0.0913 -2.3275 -0.3510
20110TIP3    H281822   1.121   3.466   1.173  1.2405  0.4713 -0.7907
20111TIP3   OH281823   3.237   2.284  15.689 -0.0527 -0.8804  0.1607
20111TIP3    H181824   3.252   2.192  15.712  1.2395 -0.7689 -0.1721
20111TIP3    H281825   3.295   2.333  15.747 -0.4188 -0.2928  0.0416
20112TIP3   OH281826   1.905   0.235  14.647  0.2987 -0.1955 -0.4693
20112TIP3    H181827   1.839   0.279  14.701  1.8237  0.9638  0.5246
20112TIP3    H281828   1.862   0.153  14.620 -1.3490  0.2659  0.5566
20113TIP3   OH281829   3.976   2.727  14.228 -0.4373 -0.5835  0.4943
20113TIP3    H181830   3.968   2.632  14.222 -1.8333 -0.8990  4.3547
20113TIP3    H281831   4.062   2.741  14.269 -0.6193 -0.2793  0.7855
20114TIP3   OH281832   2.312   3.469   0.778 -0.2245  0.1202  0.0493
20114TIP3    H181833   2.265   3.389   0.799 -0.4465 -0.0456 -1.0193
20114TIP3    H281834   2.266   3.505   0.702 -0.1849  1.3121  0.5604
20115TIP3   OH281835   5.037   0.407   3.342 -0.0797  0.1727 -0.4167
20115TIP3    H181836   5.008   0.433   3.255 -2.4871 -0.5848  0.0626
20115TIP3    H281837   5.021   0.484   3.397 -1.2886 -0.2368 -0.1572
20116TIP3   OH281838   3.886   2.462   1.545 -0.5278 -0.3186 -0.5341
20116TIP3    H181839   3.955   2.493   1.487  0.3609  1.8794  1.5046
20116TIP3    H281840   3.818   2.529   1.539 -0.3467  0.0402  1.0101
20117TIP3   OH281841   6.155   3.277   3.819 -0.1293 -0.3767  0.1124
20117TIP3    H181842   6.243   3.295   3.851 -1.1278  0.6310  2.5936
20117TIP3    H281843   6.150   3.182   3.811  1.4903 -0.4020 -1.2541
20118TIP3   OH281844   4.164   6.496   4.222  0.5793  0.1362  0.6408
20118TIP3    H181845   4.159   6.575   4.276  0.0579  0.8089 -0.3522
20118TIP3    H281846   4.258   6.479   4.213  0.6708 -0.2267  2.0592
20119TIP3   OH281847   1.835   2.233   5.127 -0.0631  0.4014  0.1069
20119TIP3    H181848   1.870   2.310   5.083 -0.1781  0.0875 -0.5562
20119TIP3    H281849   1.740   2.245   5.125 -0.0606  0.4910  0.4703
20120TIP3   OH281850   3.902   2.880  11.133  0.1149  0.0324  0.4086
20120TIP3    H181851   3.922   2.852  11.044 -1.9139 -0.6245  0.1004
20120TIP3    H281852   3.900   2.976  11.129 -2.8895  0.0336 -1.0664
20121TIP3   OH281853   6.093   1.341   3.919  0.3138  0.0145  0.3746
20121TIP3    H181854   6.023   1.393   3.879 -1.1606 -1.3732  1.0432
20121TIP3    H281855   6.156   1.328   3.848  0.4588  2.1700  0.0418
20122TIP3   OH281856   2.733   1.383  13.564 -0.1470  0.1299 -0.1830
20122TIP3    H181857   2.749   1.303  13.615 -0.7391  1.4254  2.2077
20122TIP3    H281858   2.657   1.424  13.607  0.6311  2.3672 -0.7833
20123TIP3   OH281859   1.682   0.984  14.570 -0.7387  0.2467 -0.4063
20123TIP3    H181860   1.618   0.950  14.508 -1.8850  0.8689  0.4192
20123TIP3    H281861   1.631   1.018  14.642  0.5673 -0.4018  0.8854
20124TIP3   OH281862   0.313   5.831   2.488  0.6714  0.6300 -0.4599
20124TIP3    H181863   0.241   5.781   2.527  1.7321 -0.7311 -0.1538
20124TIP3    H281864   0.272   5.910   2.454 -1.0271 -0.2832 -0.6404
20125TIP3   OH281865   3.027   1.085   5.985  0.0705 -0.4878  0.0587
20125TIP3    H181866   3.083   1.023   5.938 -0.7316 -0.8413 -0.4520
20125TIP3    H281867   3.087   1.154   6.013  0.5236 -0.0266 -1.8935
20126TIP3   OH281868   0.251   5.934   0.420  0.0894  0.3887 -0.2809
20126TIP3    H181869   0.256   5.840   0.440  0.1212  0.7646  1.7597
20126TIP3    H281870   0.176   5.964   0.470  0.3332  1.5231 -0.5797
20127TIP3   OH281871   6.520   3.102   0.037 -0.2179  0.3571  0.5133
20127TIP3    H181872   6.557   3.162  -0.028  0.6048  0.9248  1.4828
20127TIP3    H281873   6.594   3.047   0.063  0.1100  1.6994  2.7045
20128TIP3   OH281874   6.687   3.046  16.163 -0.1222  0.5607 -0.7767
20128TIP3    H181875   6.755   2.980  16.148  1.0035  1.3316  0.6270
20128TIP3    H281876   6.694   3.105  16.087 -0.7927 -0.6129 -1.7778
20129TIP3   OH281877   1.325   0.736  12.578  0.5322 -0.2757 -0.9970
20129TIP3    H181878   1.409   0.713  12.617  0.7317  0.7041 -0.8480
20129TIP3    H281879   1.267   0.663  12.602  1.5060 -1.3117 -1.6991
20130TIP3   OH281880   2.487   3.974   3.479  0.6825 -0.4688  0.7006
20130TIP3    H181881   2.398   3.959   3.510 -0.8334 -3.0783 -3.9755
20130TIP3    H281882   2.536   3.897   3.507  0.0510 -1.4726 -0.8422
20131TIP3   OH281883   4.337   0.646  13.777 -0.6682  0.3580 -0.2919
20131TIP3    H181884   4.412   0.632  13.836  1.6831  0.8636 -2.9638
20131TIP3    H281885   4.289   0.563  13.781  1.5882 -1.0618 -0.5080
20132TIP3   OH281886   1.044   5.258   3.141 -0.2178  1.0405 -0.2900
20132TIP3    H181887   1.055   5.352   3.132 -1.0723  0.9981 -2.1126
20132TIP3    H281888   0.950   5.243   3.134 -0.3188  0.2045  2.0526
20133TIP3   OH281889   0.721   4.769  12.742  0.0740  0.0683  0.2483
20133TIP3    H181890   0.634   4.732  12.729  0.7588 -1.3773 -0.4921
20133TIP3    H281891   0.706   4.850  12.791 -1.7409  0.2924 -0.6120
20134TIP3   OH281892   1.089   1.372  15.694 -0.1641 -0.2433  0.0992
20134TIP3    H181893   1.038   1.359  15.614 -0.0034  0.7709 -0.1912
20134TIP3    H281894   1.024   1.374  15.764 -0.4512  0.1806 -0.1690
20135TIP3   OH281895   4.387   6.063  14.068  0.8222  0.3990  0.2689
20135TIP3    H181896   4.477   6.044  14.094  1.4729  1.8219 -0.7651
20135TIP3    H281897   4.388   6.057  13.972  0.0826  1.4384  0.1804
20136TIP3   OH281898   6.690   2.378   3.906  0.0837 -0.1750 -0.5338
20136TIP3    H181899   6.619   2.314   3.903 -1.1140  0.9212  1.7943
20136TIP3    H281900   6.652   2.455   3.949  2.5900  0.5324  0.6393
20137TIP3   OH281901   1.023   3.173  11.108  0.4204  0.0091 -0.2848
20137TIP3    H181902   1.038   3.115  11.183 -0.1626 -0.7457 -0.7355
20137TIP3    H281903   0.964   3.123  11.051  0.5713  0.7179 -1.0747
20138TIP3   OH281904   5.467   1.574  16.904  0.2759  0.4996  0.1475
20138TIP3    H181905   5.481   1.520  16.982  0.3816  0.4835  0.1166
20138TIP3    H281906   5.554   1.605  16.879 -0.0063  2.4312  1.4012
20139TIP3   OH281907   2.185   5.686  16.810  0.5649 -0.4200 -0.6734
20139TIP3    H181908   2.215   5.709  16.898 -0.0098 -0.6242 -0.4169
20139TIP3    H281909   2.168   5.770  16.768  1.3877 -0.3068 -0.7886
20140TIP3   OH281910   6.387   5.974   5.824  0.2707 -0.1133  0.1543
20140TIP3    H181911   6.341   6.009   5.900  1.1087 -1.0722  1.1458
20140TIP3    H281912   6.334   5.900   5.795 -0.1730  0.3983 -0.3528
20141TIP3   OH281913   0.581   0.091  16.855 -0.3625  0.4639 -0.1011
20141TIP3    H181914   0.672   0.117  16.866 -0.0958 -0.5617  0.2127
20141TIP3    H281915   0.567   0.023  16.921 -1.1406  0.0969 -0.6311
20142TIP3   OH281916   1.723   1.749  16.021 -0.7867 -0.1362 -0.1570
20142TIP3    H181917   1.792   1.765  15.956  0.4265  0.0481  1.1237
20142TIP3    H281918   1.735   1.818  16.086 -1.3015 -0.9268  0.8022
20143TIP3   OH281919   5.283   0.392  15.366 -0.1574  0.3399  0.3139
20143TIP3    H181920   5.237   0.373  15.448 -1.0792  0.4770 -0.1543
20143TIP3    H281921   5.276   0.311  15.316  1.2663 -0.0822  0.7345
20144TIP3   OH281922   0.884   5.405   3.456 -0.2480  0.1845  0.2497
20144TIP3    H181923   0.875   5.394   3.362 -1.9414  1.4471  0.2036
20144TIP3    H281924   0.956   5.467   3.466  3.2206 -3.4171  0.1254
20145TIP3   OH281925   3.568   0.232   4.382  0.0381  0.2909 -0.2423
20145TIP3    H181926   3.630   0.226   4.455 -0.2914  2.1761  0.2384
20145TIP3    H281927   3.488   0.266   4.421 -0.2041  1.1431 -1.4342
20146TIP3   OH281928   1.906   1.008   3.478 -0.0825  0.1645 -0.1818
20146TIP3    H181929   1.893   1.101   3.496  1.6466  0.5994 -0.9263
20146TIP3    H281930   1.873   0.963   3.556  1.5272  1.5862  1.4038
20147TIP3   OH281931   2.157   3.924  12.580  0.8352 -0.2684 -0.1127
20147TIP3    H181932   2.122   3.849  12.628  1.0390  0.1069  0.6465
20147TIP3    H281933   2.174   3.990  12.648 -2.4469  1.7537 -1.0032
20148TIP3   OH281934   6.762   1.167   5.285 -0.0014  0.4140 -0.2971
20148TIP3    H181935   6.672   1.162   5.317 -1.3020 -0.6017 -3.6384
20148TIP3    H281936   6.782   1.261   5.284 -1.8287  0.8469 -1.3095
20149TIP3   OH281937   4.415   6.177   0.802  0.1610 -0.3675 -0.6072
20149TIP3    H181938   4.342   6.125   0.769 -0.0357  0.4699 -1.5442
20149TIP3    H281939   4.389   6.202   0.891 -0.1963 -0.9842 -0.5351
20150TIP3   OH281940   3.780   1.214   1.819 -0.3062  0.7013  0.0999
20150TIP3    H181941   3.777   1.211   1.724  0.9663  0.0124  0.0529
20150TIP3    H281942   3.821   1.131   1.845  0.3008  1.3010  1.1735
20151TIP3   OH281943   6.756   3.172   0.939 -0.7094  0.2534 -0.0632
20151TIP3    H181944   6.755   3.076   0.948  1.0587  0.2959  0.8651
20151TIP3    H281945   6.678   3.200   0.987 -2.0135 -0.7525 -1.4587
20152TIP3   OH281946   2.559   6.597  11.162 -0.2797  0.3882 -0.3091
20152TIP3    H181947   2.534   6.504  11.162  1.9868 -0.2927  1.0269
20152TIP3    H281948   2.572   6.617  11.255  1.6105  1.3302 -0.7388
20153TIP3   OH281949   1.493   1.016  13.696 -0.2472 -0.4753  0.2835
20153TIP3    H181950   1.581   0.982  13.680  1.3882  3.0885  0.6752
20153TIP3    H281951   1.490   1.030  13.791 -0.5592  0.8901  0.0988
20154TIP3   OH281952   5.698   4.797   1.602 -0.4199  0.5417 -0.4603
20154TIP3    H181953   5.626   4.737   1.578 -0.0573  0.8769 -2.5854
20154TIP3    H281954   5.654   4.878   1.628 -0.8530  0.1481  0.0542
20155TIP3   OH281955   0.625   3.274   0.249  0.9889  0.1843  0.0604
20155TIP3    H181956   0.603   3.183   0.231  0.3487  0.6518 -1.6455
20155TIP3    H281957   0.613   3.283   0.344  3.2079 -2.0438  0.6740
20156TIP3   OH281958   3.806   3.309   1.083 -0.8124  0.0464  0.5786
20156TIP3    H181959   3.837   3.255   1.011 -0.5499  0.5170  0.3350
20156TIP3    H281960   3.861   3.387   1.081 -0.4082 -0.1846  1.6452
20157TIP3   OH281961   5.811   0.097  12.393  0.6627 -0.0632 -0.0294
20157TIP3    H181962   5.875   0.028  12.414  0.1000 -0.7273 -0.4632
20157TIP3    H281963   5.801   0.146  12.475  3.5953  1.6454 -0.5701
20158TIP3   OH281964   3.973   3.479   5.326 -0.8022 -0.2892 -0.0705
20158TIP3    H181965   4.008   3.393   5.348 -1.6495 -0.4674  0.6226
20158TIP3    H281966   4.040   3.519   5.271 -0.0610 -1.0928  0.2335
20159TIP3   OH281967   1.673   4.680  11.268 -0.1310 -0.7436  0.1295
20159TIP3    H181968   1.761   4.712  11.250 -0.1797  0.6420  2.0397
20159TIP3    H281969   1.636   4.662  11.182  1.1014  1.2126 -0.8692
20160TIP3   OH281970   3.972   2.013   5.786  0.2023  0.1193 -0.5128
20160TIP3    H181971   4.049   2.047   5.741  1.4144 -1.7627  0.0100
20160TIP3    H281972   3.905   2.007   5.717  0.9383  0.4938 -1.2823
20161TIP3   OH281973   3.285   2.276  16.569  0.0636  0.2985  0.3605
20161TIP3    H181974   3.216   2.332  16.606  0.3822  0.8829  0.0823
20161TIP3    H281975   3.276   2.193  16.616 -0.0662  0.7635  1.1714
20162TIP3   OH281976   2.319   5.023   0.657  0.4148 -0.4945  0.5843
20162TIP3    H181977   2.369   5.072   0.722 -0.6764 -0.1129  1.1604
20162TIP3    H281978   2.379   4.954   0.627  2.0288  1.2181 -0.3277
20163TIP3   OH281979   6.583   1.398  14.394  0.0633  0.7965  0.4513
20163TIP3    H181980   6.507   1.449  14.424 -0.6034 -0.3768  0.8431
20163TIP3    H281981   6.548   1.310  14.380  1.2704  0.3443  0.1883
20164TIP3   OH281982   3.728   0.820   3.130  0.4791 -0.4986 -0.1605
20164TIP3    H181983   3.708   0.727   3.121  0.5662 -0.6321  0.8668
20164TIP3    H281984   3.643   0.864   3.128  0.3947 -0.6569 -0.0524
20165TIP3   OH281985   4.976   1.833   1.034  0.1384 -0.5632 -0.1307
20165TIP3    H181986   5.070   1.829   1.052  0.0001  0.3975  0.9505
20165TIP3    H281987   4.934   1.801   1.114 -0.4722  1.6865  0.5276
20166TIP3   OH281988   1.666   3.971  13.134  0.2753  0.5123 -0.1722
20166TIP3    H181989   1.616   3.941  13.059 -0.6972  0.5994  0.4286
20166TIP3    H281990   1.716   3.895  13.162  0.4267  0.4041 -0.7304
20167TIP3   OH281991   6.043   6.575   6.447 -0.4292 -0.3158 -0.1229
20167TIP3    H181992   6.054   6.558   6.540 -0.8180 -0.3804 -0.0879
20167TIP3    H281993   5.980   6.509   6.418  0.1849 -0.7140 -0.5657
20168TIP3   OH281994   0.679   4.225   2.865  0.0404 -0.0415 -0.0708
20168TIP3    H181995   0.733   4.164   2.815  1.3757  1.5410 -0.6041
20168TIP3    H281996   0.695   4.310   2.826 -0.4353  0.9469  1.7663
20169TIP3   OH281997   1.381   6.692  11.503  0.4213  0.2245  0.9695
20169TIP3    H181998   1.292   6.704  11.535 -0.0198  0.3717 -0.2525
20169TIP3    H281999   1.378   6.722  11.412  1.2511 -1.4884  0.3247
20170TIP3   OH282000   2.345   4.374  15.583 -0.2505 -0.3752  0.2615
20170TIP3    H182001   2.396   4.441  15.539 -0.5380  1.7119  2.8695
20170TIP3    H282002   2.380   4.291  15.550 -0.5302  0.9231 -3.8292
20171TIP3   OH282003   5.559   2.584   2.000 -0.2165  0.0758 -0.4384
20171TIP3    H182004   5.649   2.605   2.024 -0.7380  1.2946  0.5342
20171TIP3    H282005   5.505   2.637   2.059 -1.5821 -1.1838 -0.5024
20172TIP3   OH282006   5.402   5.731  16.525  0.5300  0.1940  0.2775
20172TIP3    H182007   5.373   5.778  16.603  2.6086  0.3871  0.9825
20172TIP3    H282008   5.321   5.694  16.488 -0.4956 -0.0379  2.5978
20173TIP3   OH282009   1.193   5.393  12.789  0.4252 -0.7627  0.4740
20173TIP3    H182010   1.179   5.485  12.811 -0.7398 -0.8016 -0.0039
20173TIP3    H282011   1.263   5.364  12.847  0.9189  0.4660  0.5187
20174TIP3   OH282012   0.305   4.305   4.246  0.0922 -0.0992  1.0756
20174TIP3    H182013   0.366   4.310   4.172 -1.2431  0.7178 -0.0299
20174TIP3    H282014   0.361   4.310   4.324  1.8028 -3.6838  0.2598
20175TIP3   OH282015   6.456   1.719   1.991 -0.4928 -0.1271  0.0598
20175TIP3    H182016   6.461   1.705   2.086 -1.0895 -1.9910 -0.1594
20175TIP3    H282017   6.448   1.632   1.954  1.6579  0.4028 -1.8663
20176TIP3   OH282018   6.563   1.610   4.744  0.5284  0.4867 -0.1627
20176TIP3    H182019   6.548   1.523   4.706 -0.6836  1.1671 -1.3053
20176TIP3    H282020   6.627   1.594   4.814 -1.8061 -1.8440  1.6419
20177TIP3   OH282021   3.318   3.946   2.724  0.1414 -0.4403  0.6417
20177TIP3    H182022   3.349   3.922   2.811 -0.0041 -0.2004  0.7612
20177TIP3    H282023   3.223   3.941   2.729  0.0228  1.3556  1.0432
20178TIP3   OH282024   0.036   6.438  12.984 -0.0134  0.1652  0.1738
20178TIP3    H182025   0.060   6.369  12.921 -0.3614  1.3883 -1.3689
20178TIP3    H282026   0.074   6.409  13.066  1.2148 -1.0972 -0.7796
20179TIP3   OH282027   4.327   5.532  16.560 -0.4183  0.4601 -0.5731
20179TIP3    H182028   4.275   5.503  16.485 -0.0557  0.6436 -0.8995
20179TIP3    H282029   4.345   5.624  16.542  0.9541  0.1210 -1.0089
20180TIP3   OH282030   0.621   3.032  16.427  0.3838  0.4345  0.5123
20180TIP3    H182031   0.714   3.056  16.429  0.4752  0.1654 -0.1873
20180TIP3    H282032   0.619   2.941  16.458  0.3453  0.4800  0.6398
20181TIP3   OH282033   4.489   4.852   6.806 -0.1078 -0.4741  0.4999
20181TIP3    H182034   4.488   4.815   6.718  0.3549 -1.2275  0.7952
20181TIP3    H282035   4.530   4.937   6.796 -0.2479 -0.4636 -0.0417
20182TIP3   OH282036   5.893   1.537   4.741 -0.1461 -0.2365 -0.7366
20182TIP3    H182037   5.851   1.503   4.662  1.3802  0.0992 -1.7346
20182TIP3    H282038   5.931   1.621   4.714 -0.5047  0.4015  0.6470
20183TIP3   OH282039   0.920   3.548  17.273 -0.5098 -0.0040  0.7663
20183TIP3    H182040   0.972   3.625  17.248  0.2381 -1.1192 -1.2934
20183TIP3    H282041   0.859   3.581  17.338 -0.0256  2.2793  0.1474
20184TIP3   OH282042   5.512   6.457   1.825  0.0212 -0.2268  0.4353
20184TIP3    H182043   5.432   6.408   1.844 -0.9034  0.9605 -0.2512
20184TIP3    H282044   5.496   6.545   1.859  1.7600 -0.4025  1.8917
20185TIP3   OH282045   2.037   5.166  14.654 -0.0383  0.5678 -0.3770
20185TIP3    H182046   2.046   5.144  14.561  1.3401  0.3364 -0.2146
20185TIP3    H282047   1.958   5.119  14.682  0.4605 -0.7340 -1.0481
20186TIP3   OH282048   5.274   4.808   1.410  0.4255 -0.0614  0.6073
20186TIP3    H182049   5.224   4.726   1.408  1.0702 -0.4986 -2.3763
20186TIP3    H282050   5.232   4.863   1.344  2.4054  0.4380 -0.3082
20187TIP3   OH282051   6.544   5.163   5.950 -0.0714  0.4771  0.1151
20187TIP3    H182052   6.545   5.140   6.043 -0.8633  1.3236  0.3496
20187TIP3    H282053   6.595   5.245   5.946  0.2132  0.2832 -0.2475
20188TIP3   OH282054   3.055   4.009  14.142  0.7060  0.3841  0.2671
20188TIP3    H182055   3.020   4.004  14.231  1.6288 -2.2440  0.5715
20188TIP3    H282056   2.980   3.989  14.086  0.9571 -2.3869  0.7669
20189TIP3   OH282057   5.254   5.954  15.321 -0.2590 -0.3420 -0.4051
20189TIP3    H182058   5.256   5.923  15.411 -2.2923 -1.8833 -0.8085
20189TIP3    H282059   5.239   5.875  15.268 -0.5207  0.6865 -1.9580
20190TIP3   OH282060   2.931   3.569   3.633  0.6567 -0.0933  0.3792
20190TIP3    H182061   3.008   3.512   3.626  0.7222 -0.0126  0.4378
20190TIP3    H282062   2.935   3.605   3.721  0.8976  0.3959  0.1763
20191TIP3   OH282063   6.344   4.395   5.489 -0.3082 -0.0390 -0.3616
20191TIP3    H182064   6.349   4.318   5.547 -1.2593 -1.2641 -1.8166
20191TIP3    H282065   6.339   4.358   5.401  2.6883  1.7747 -1.4434
20192TIP3   OH282066   6.313   1.978   5.004  0.1418  0.3896  0.1112
20192TIP3    H182067   6.312   2.015   4.916 -0.0870  1.8290  0.6864
20192TIP3    H282068   6.332   1.885   4.991  0.0383  0.5600 -1.4500
20193TIP3   OH282069   6.800   0.480   0.245 -0.9181 -0.4954  0.1762
20193TIP3    H182070   6.709   0.451   0.244 -0.9437 -0.4504 -1.3731
20193TIP3    H282071   6.819   0.498   0.337 -2.9390  0.9166  0.3833
20194TIP3   OH282072   6.202   5.208   3.112  0.2021  0.5073  0.3221
20194TIP3    H182073   6.248   5.124   3.109 -0.9491 -0.1413  0.2365
20194TIP3    H282074   6.227   5.247   3.195 -0.1568 -0.4670  0.9043
20195TIP3   OH282075   0.754   1.381  14.320 -0.4394  0.0641 -0.3660
20195TIP3    H182076   0.774   1.429  14.240  0.7789  0.5179  0.1819
20195TIP3    H282077   0.794   1.433  14.390  0.1445 -1.2678  0.3342
20196TIP3   OH282078   3.484   2.062   4.822 -0.4223  0.2120 -0.1336
20196TIP3    H182079   3.561   2.077   4.875  0.6251  0.0466 -1.5374
20196TIP3    H282080   3.414   2.110   4.866  0.9967  2.3693 -0.0761
20197TIP3   OH282081   3.078   1.994  13.482 -0.1378 -0.4373  0.2492
20197TIP3    H182082   3.076   2.090  13.482 -1.8860 -0.3979  1.8068
20197TIP3    H282083   3.060   1.970  13.573 -2.0326 -2.2138 -0.5067
20198TIP3   OH282084   2.205   2.425  13.712 -0.4572  0.1147 -0.1690
20198TIP3    H182085   2.217   2.478  13.791  1.0127  1.5962 -1.3202
20198TIP3    H282086   2.199   2.335  13.744 -0.2064  0.6975  1.6396
20199TIP3   OH282087   1.248   2.895   4.820  0.3106 -0.2115 -0.4496
20199TIP3    H182088   1.276   2.804   4.810  0.5527 -0.1663 -0.2192
20199TIP3    H282089   1.329   2.945   4.814  0.5744 -0.2022  1.9308
20200TIP3   OH282090   0.624   2.070  14.230 -0.0012  0.5920  0.3011
20200TIP3    H182091   0.658   2.083  14.318  0.8928  1.9504 -0.2143
20200TIP3    H282092   0.615   2.159  14.194 -0.4513  0.0692 -0.9421
20201TIP3   OH282093   0.226   6.476  15.065 -0.4688  0.1777 -0.0593
20201TIP3    H182094   0.317   6.445  15.058 -0.6834 -0.6484  0.5972
20201TIP3    H282095   0.174   6.404  15.030 -0.9851 -0.2874  1.5599
20202TIP3   OH282096   1.407   4.636  15.998  0.0055  0.1147  0.1525
20202TIP3    H182097   1.491   4.592  15.983  0.4259  1.2555 -1.0200
20202TIP3    H282098   1.387   4.618  16.090  1.5100 -0.2298  0.4410
20203TIP3   OH282099   6.349   3.106   3.574 -0.0488  0.5865 -0.7835
20203TIP3    H182100   6.377   3.020   3.542 -1.5453 -0.0614 -0.4616
20203TIP3    H282101   6.290   3.086   3.647  0.3512  1.9296 -0.0565
20204TIP3   OH282102   1.209   0.457  12.159 -0.6227 -0.5460 -0.4194
20204TIP3    H182103   1.254   0.389  12.110 -0.1527 -0.9975  0.6000
20204TIP3    H282104   1.224   0.537  12.110  1.7734 -0.5784  0.1536
20205TIP3   OH282105   5.663   6.405  14.841 -0.4214 -0.0783  0.3896
20205TIP3    H182106   5.731   6.338  14.848 -0.7625 -0.3918  0.6946
20205TIP3    H282107   5.649   6.415  14.747  2.1852  2.1561  0.0976
20206TIP3   OH282108   2.661   2.565  11.431  0.4005 -0.6471  0.3086
20206TIP3    H182109   2.734   2.609  11.473  0.3462 -0.8971  0.6693
20206TIP3    H282110   2.684   2.472  11.434  1.2283 -0.5680 -1.7897
20207TIP3   OH282111   5.257   0.454  11.434 -0.2822 -0.1175  0.0192
20207TIP3    H182112   5.185   0.490  11.380  0.8947  0.7615 -1.0304
20207TIP3    H282113   5.333   0.454  11.375  1.1305  1.1155  1.7473
20208TIP3   OH282114   1.819   0.043   0.017  0.5169 -0.2543  0.3265
20208TIP3    H182115   1.728   0.070   0.001  0.7997  0.2460 -0.5080
20208TIP3    H282116   1.866   0.125   0.031  1.4430 -0.1968 -2.5111
20209TIP3   OH282117   3.133   2.488  15.032  0.1838  0.3320  0.3029
20209TIP3    H182118   3.128   2.578  15.066 -1.9822  0.0634  0.8385
20209TIP3    H282119   3.138   2.498  14.937  0.0748  1.0205  0.3654
20210TIP3   OH282120   4.012   5.094   0.641 -0.2188 -0.5334  0.1836
20210TIP3    H182121   4.067   5.169   0.618 -0.9354 -0.5888 -1.9099
20210TIP3    H282122   4.066   5.018   0.621  0.8098 -0.6699  3.0618
20211TIP3   OH282123   1.406   4.761  14.645  0.2783 -0.2668 -0.5246
20211TIP3    H182124   1.348   4.700  14.600  1.7779 -2.3557  0.1833
20211TIP3    H282125   1.484   4.765  14.590 -0.4072  2.4275 -1.4222
20212TIP3   OH282126   4.171   0.767   5.795  0.4664  0.4438 -0.1604
20212TIP3    H182127   4.263   0.740   5.792  0.6178  1.0078 -1.7319
20212TIP3    H282128   4.137   0.728   5.875  1.5252 -1.6068 -0.6417
20213TIP3   OH282129   4.789   3.831  14.358  0.2213 -0.4625 -0.3336
20213TIP3    H182130   4.760   3.792  14.275  0.8112 -0.8092 -0.3761
20213TIP3    H282131   4.851   3.899  14.332 -0.7568  0.4955 -0.2582
20214TIP3   OH282132   2.701   6.074  16.516 -0.0868  0.0422 -0.5240
20214TIP3    H182133   2.684   5.982  16.537 -3.3475  0.4902 -0.6987
20214TIP3    H282134   2.769   6.101  16.579  0.6238 -2.3240 -0.1868
20215TIP3   OH282135   0.137   0.962  15.499 -0.0386 -0.1774 -0.2649
20215TIP3    H182136   0.091   1.038  15.536 -0.3487 -0.6198  0.2798
20215TIP3    H282137   0.077   0.888  15.513 -0.2751 -0.3327 -1.8910
20216TIP3   OH282138   5.045   1.224   1.397  0.0243 -0.3433  0.3262
20216TIP3    H182139   5.116   1.283   1.373  1.0566 -1.3955  0.7432
20216TIP3    H282140   5.007   1.263   1.476  0.4368 -0.0180  0.3655
20217TIP3   OH282141   0.885   1.962   6.422 -0.1792  0.2639  0.3336
20217TIP3    H182142   0.863   1.992   6.510 -1.2044  3.4039 -0.8313
20217TIP3    H282143   0.862   2.036   6.365  1.7487 -1.0701 -2.4434
20218TIP3   OH282144   1.902   1.249   5.425 -0.3205 -0.1319 -0.2541
20218TIP3    H182145   1.955   1.177   5.390 -0.6329  0.5806 -2.3478
20218TIP3    H282146   1.814   1.231   5.392 -0.5602  0.7689 -0.1172
20219TIP3   OH282147   1.105   5.931  12.016  0.2018  0.0632 -0.0884
20219TIP3    H182148   1.159   5.894  11.946 -0.2073 -2.4221  0.7875
20219TIP3    H282149   1.028   5.874  12.018 -0.9285  1.5668  0.8107
20220TIP3   OH282150   6.190   4.309  12.100  0.0913  0.7331  0.1893
20220TIP3    H182151   6.286   4.311  12.091  0.0432  0.7583 -0.3533
20220TIP3    H282152   6.166   4.223  12.066 -0.1207  0.9116 -0.1139
20221TIP3   OH282153   3.282   6.690  13.694 -0.1051 -0.7661  0.1686
20221TIP3    H182154   3.332   6.703  13.774  0.0380  1.0923 -0.1730
20221TIP3    H282155   3.234   6.772  13.681 -0.2339 -1.0607 -1.5778
20222TIP3   OH282156   2.956   3.538  11.362  0.2223  0.4676  0.3384
20222TIP3    H182157   2.869   3.510  11.334  0.5085 -1.6144  1.3128
20222TIP3    H282158   2.943   3.579  11.447  0.0730  1.3046 -0.0758
20223TIP3   OH282159   1.479   5.667   2.640 -0.3363 -0.0285  0.0326
20223TIP3    H182160   1.500   5.620   2.559  1.5226 -1.8111  1.4662
20223TIP3    H282161   1.519   5.615   2.710 -2.7469  0.8745  2.2561
20224TIP3   OH282162   1.570   4.065   5.443 -0.4359 -0.3239  0.0653
20224TIP3    H182163   1.644   4.122   5.464  0.3342 -1.1999 -0.2308
20224TIP3    H282164   1.492   4.119   5.463  0.2506  1.1181 -0.9686
20225TIP3   OH282165   4.410   1.355   6.747 -0.0604  0.1097 -0.1778
20225TIP3    H182166   4.408   1.367   6.652 -0.8317 -0.1073 -0.1932
20225TIP3    H282167   4.357   1.277   6.762  1.3726 -0.8152  0.2889
20226TIP3   OH282168   5.787   4.118   3.496  0.7454 -0.3547 -0.0741
20226TIP3    H182169   5.775   4.136   3.402 -3.0864  1.6339  0.6110
20226TIP3    H282170   5.847   4.186   3.526 -0.3168  0.8439 -0.6013
20227TIP3   OH282171   1.651   1.506  11.620 -0.5257 -0.0467 -0.0292
20227TIP3    H182172   1.636   1.579  11.680 -0.2889 -2.0590  2.6698
20227TIP3    H282173   1.584   1.442  11.642  1.7114 -2.3193  0.6625
20228TIP3   OH282174   6.256   5.443   5.244  0.1671 -0.1786  0.3498
20228TIP3    H182175   6.223   5.426   5.332  0.4602 -1.3311  0.2553
20228TIP3    H282176   6.283   5.535   5.246  0.7709 -0.3616  1.6629
20229TIP3   OH282177   2.875   5.094   6.545 -0.0014  0.1692 -0.3268
20229TIP3    H182178   2.964   5.110   6.512 -0.1562  1.2087 -0.2642
20229TIP3    H282179   2.827   5.061   6.469  0.8651 -2.1543  0.0512
20230TIP3   OH282180   4.352   5.483  11.497  0.8593 -0.3650 -0.4038
20230TIP3    H182181   4.293   5.430  11.550  0.5879 -1.2486 -1.5403
20230TIP3    H282182   4.424   5.423  11.474 -0.1281 -0.7506 -2.8603
20231TIP3   OH282183   0.273   2.573  16.938  0.7639  0.6528  0.1282
20231TIP3    H182184   0.346   2.513  16.921  0.8598  0.7128  0.3201
20231TIP3    H282185   0.207   2.551  16.872  0.4892 -0.1728  0.6659
20232TIP3   OH282186   0.078   5.517   3.892  0.1236  0.5240 -0.4578
20232TIP3    H182187   0.119   5.442   3.849 -0.7256  0.9274 -2.0320
20232TIP3    H282188   0.091   5.590   3.832  1.1278  1.7345  1.1513
20233TIP3   OH282189   0.741   4.172  11.470  0.3179  0.4187  0.4754
20233TIP3    H182190   0.779   4.090  11.437  1.1151  0.6680  0.7589
20233TIP3    H282191   0.653   4.174  11.431  0.7891  0.1060 -0.6572
20234TIP3   OH282192   0.964   1.941   3.251  0.4491  0.4152 -0.2923
20234TIP3    H182193   0.924   2.013   3.202 -1.1378  0.1064  0.5057
20234TIP3    H282194   0.901   1.920   3.319  2.0184 -0.0470  1.0922
20235TIP3   OH282195   1.345   3.468  13.972  0.6942  0.1377  0.2013
20235TIP3    H182196   1.347   3.553  14.017  0.6507  0.0452  0.3789
20235TIP3    H282197   1.354   3.404  14.042  3.9623  0.0273 -0.1748
20236TIP3   OH282198   4.016   2.307   0.711  0.1247  0.1752  0.0189
20236TIP3    H182199   3.969   2.281   0.790 -0.9513  2.6334  0.2783
20236TIP3    H282200   4.073   2.379   0.739 -0.3946  1.2021 -1.4206
20237TIP3   OH282201   2.558   0.423   3.560  0.0774 -0.0731 -0.3576
20237TIP3    H182202   2.498   0.411   3.486 -0.4525  2.5667 -0.4308
20237TIP3    H282203   2.518   0.492   3.613  0.3221 -1.9931  2.5935
20238TIP3   OH282204   3.449   1.095   5.666  0.5649 -0.0437  0.6554
20238TIP3    H182205   3.436   1.036   5.740  1.3971 -0.6989  0.2958
20238TIP3    H282206   3.535   1.134   5.681  0.5203  0.1968  0.2931
20239TIP3   OH282207   1.297   5.720  12.078  0.5497 -0.2702  0.2073
20239TIP3    H182208   1.310   5.630  12.107 -1.8170 -0.3732  1.1713
20239TIP3    H282209   1.241   5.713  12.000  0.8901  0.3258 -0.0978
20240TIP3   OH282210   2.910   1.763   1.092  0.5026 -0.0101 -0.3454
20240TIP3    H182211   2.938   1.738   1.180 -0.5384  1.4947  0.4696
20240TIP3    H282212   2.833   1.709   1.075  0.0927  0.4134  0.1200
20241TIP3   OH282213   0.529   6.671  15.966 -0.2257  0.0119 -0.1596
20241TIP3    H182214   0.585   6.706  15.896 -1.6057  0.7445 -0.9440
20241TIP3    H282215   0.545   6.577  15.965  1.5562  0.2832  0.1712
20242TIP3   OH282216   2.781   4.016  16.055  0.3454 -0.3593  0.2500
20242TIP3    H182217   2.873   4.016  16.029  0.2427  0.6026 -0.1749
20242TIP3    H282218   2.773   3.943  16.116  1.9768  1.1090  2.3847
20243TIP3   OH282219   3.736   1.333   4.889 -0.2169  0.2663  0.6951
20243TIP3    H182220   3.732   1.379   4.805 -0.1275  2.0737  1.6376
20243TIP3    H282221   3.827   1.303   4.895 -0.3768 -0.4186 -0.1050
20244TIP3   OH282222   2.835   6.231   2.640 -0.4370  0.3361  0.0406
20244TIP3    H182223   2.851   6.213   2.732 -1.8722 -2.6954 -0.1738
20244TIP3    H282224   2.759   6.289   2.639 -0.3848  0.4152  0.7770
20245TIP3   OH282225   5.565   3.885   0.273 -0.4911  0.3629 -0.7291
20245TIP3    H182226   5.658   3.889   0.250  0.2512 -0.3801  1.8379
20245TIP3    H282227   5.537   3.976   0.281 -0.1588  0.5965 -2.0155
20246TIP3   OH282228   4.716   4.804  12.584  0.1297  0.2451  0.5090
20246TIP3    H182229   4.676   4.722  12.555  0.9784  0.2839 -0.8893
20246TIP3    H282230   4.643   4.860  12.609 -0.4770 -0.8247  1.1983
20247TIP3   OH282231   4.758   5.715  10.179 -0.4376  0.0657  0.4291
20247TIP3    H182232   4.772   5.647  10.245  0.5638  0.5904  0.7822
20247TIP3    H282233   4.780   5.797  10.224  0.9231  0.3755 -0.7224
20248TIP3   OH282234   6.443   6.530   2.183  0.1843 -0.3039  0.3452
20248TIP3    H182235   6.363   6.562   2.140  0.0792 -0.2400  0.5839
20248TIP3    H282236   6.449   6.438   2.158 -0.5290 -0.5836  1.1476
20249TIP3   OH282237   0.520   5.369  12.267  0.0877 -0.2667  0.1949
20249TIP3    H182238   0.512   5.444  12.208 -1.2561  0.7639  1.5709
20249TIP3    H282239   0.595   5.389  12.322  1.3346 -1.2228 -1.0981
20250TIP3   OH282240   4.903   0.359  11.637 -0.0928  0.0464  0.0606
20250TIP3    H182241   4.834   0.383  11.700  0.4619 -0.2743  0.8139
20250TIP3    H282242   4.921   0.440  11.590 -3.1110 -0.4954 -2.3466
20251TIP3   OH282243   4.353   6.813   4.080  0.3358  0.1416 -0.5058
20251TIP3    H182244   4.290   6.777   4.018  0.6131 -0.1875 -0.6015
20251TIP3    H282245   4.416   6.742   4.094 -0.6630 -0.3963  1.4860
20252TIP3   OH282246   2.554   3.152   5.130  0.3707  0.6128  0.3588
20252TIP3    H182247   2.536   3.196   5.213 -1.5249 -1.9622  1.4517
20252TIP3    H282248   2.483   3.180   5.073  0.2063  0.4203  0.4654
20253TIP3   OH282249   6.312   6.144  14.415  0.4644  0.1185  0.5207
20253TIP3    H182250   6.291   6.208  14.483 -0.8338 -0.1044  0.3548
20253TIP3    H282251   6.322   6.061  14.462  3.2167  0.5647  0.8790
20254TIP3   OH282252   3.599   5.484   6.095  0.5774 -0.0908  0.3736
20254TIP3    H182253   3.628   5.571   6.121 -1.4729  0.5524  0.6301
20254TIP3    H282254   3.571   5.493   6.004 -3.7168  0.7266  1.5404
20255TIP3   OH282255   6.004   1.547   3.571  0.7636 -0.2170  0.6026
20255TIP3    H182256   6.092   1.559   3.606  0.9792 -0.2213  0.0637
20255TIP3    H282257   5.998   1.609   3.499  1.0969 -1.6946 -0.7683
20256TIP3   OH282258   0.241   0.550   2.923  0.0776 -0.1974 -0.2753
20256TIP3    H182259   0.230   0.493   2.999 -2.0980  1.2181  0.5651
20256TIP3    H282260   0.332   0.579   2.928 -0.1697  0.3902  2.2191
20257TIP3   OH282261   4.297   5.765  15.319 -0.1254  0.5128  0.1671
20257TIP3    H182262   4.328   5.676  15.302  0.3632  0.2638  2.1130
20257TIP3    H282263   4.372   5.821  15.300 -0.8611  0.7624 -2.5423
20258TIP3   OH282264   3.323   0.306   6.119 -0.8608 -0.1659 -0.2437
20258TIP3    H182265   3.296   0.341   6.204 -0.3802  0.1284 -0.2105
20258TIP3    H282266   3.250   0.250   6.092 -0.3622 -1.5337  1.1010
20259TIP3   OH282267   6.277   0.893   1.559  0.0474 -0.2572  0.2976
20259TIP3    H182268   6.261   0.877   1.652  0.6023 -1.6770  0.1635
20259TIP3    H282269   6.371   0.911   1.554 -0.1829  1.0045  0.1463
20260TIP3   OH282270   4.049   6.792   0.073  0.4737 -0.3538  0.1361
20260TIP3    H182271   4.022   6.728   0.007  1.9741  1.2532 -2.1844
20260TIP3    H282272   3.990   6.866   0.060 -0.0975 -0.5191  1.5927
20261TIP3   OH282273   4.401   5.167  11.478 -0.2169 -0.1856 -0.1844
20261TIP3    H182274   4.330   5.146  11.417 -0.3599  1.8143 -0.7744
20261TIP3    H282275   4.377   5.122  11.559 -1.3394 -0.8237 -0.8441
20262TIP3   OH282276   2.470   6.552  11.878  0.3890 -0.4324 -0.0119
20262TIP3    H182277   2.440   6.618  11.940 -1.0351  1.7789 -2.7993
20262TIP3    H282278   2.512   6.485  11.932 -0.3099  1.5184  3.2132
20263LIG     O182279   3.304   3.178  16.783  0.1179  0.2858 -0.0780
20263LIG     O282280   3.444   3.349  16.697  0.3556  0.0846  0.5245
20263LIG     O382281   3.610   3.214  16.808 -0.0148  0.0786 -0.1227
20263LIG     O482282   3.090   3.389  16.696  0.6634 -0.3757  0.6527
20263LIG     O582283   3.123   3.409  16.977  0.0769  0.3144  0.3151
20263LIG     O682284   3.594   3.350  16.458 -0.2377 -0.4964  0.4755
20263LIG     O782285   3.672   3.535  16.674  0.7231  0.1996 -0.0809
20263LIG     O882286   3.904   3.441  16.823 -0.0405  0.0182  0.2999
20263LIG     O982287   3.200   3.128  16.530  0.7533 -0.2594  0.2069
20263LIG    O1082288   3.419   3.177  17.045  0.1790 -0.1451 -0.2928
20263LIG    O1182289   3.848   3.335  17.065 -0.2495 -0.5968  0.1781
20263LIG     C182290   3.313   3.283  16.693 -1.0163  0.1463 -0.0522
20263LIG     C282291   3.227   3.393  16.753 -0.1772  0.6773 -0.0071
20263LIG     C382292   3.230   3.359  16.901 -0.0316  1.0640 -0.6000
20263LIG     C482293   3.222   3.207  16.900  0.3623 -0.5530 -0.2027
20263LIG     C582294   3.552   3.257  16.683  0.7112  0.7404 -0.0686
20263LIG     C682295   3.658   3.302  16.578  0.4774 -0.0154 -0.5465
20263LIG     C782296   3.742   3.415  16.645  0.4081 -0.0128  0.4031
20263LIG     C882297   3.810   3.350  16.769  1.2455 -0.5201  0.5786
20263LIG     C982298   3.701   3.309  16.866  0.5106  0.0800 -0.3804
20263LIG    C1082299   3.279   3.252  16.543  0.4681  1.2907 -0.4493
20263LIG    C1182300   3.277   3.150  17.030 -0.7937 -0.2965 -0.7431
20263LIG    C1282301   3.769   3.246  16.990 -0.3117  0.0717  1.1095
20263LIG     H182302   3.264   3.494  16.728 -0.2393  0.3151 -1.6208
20263LIG     H282303   3.324   3.405  16.935 -0.5144  1.2303  0.5500
20263LIG     H382304   3.124   3.158  16.883  0.6905 -1.3371  0.1051
20263LIG     H482305   3.518   3.161  16.637  1.2197  0.8659 -0.7114
20263LIG     H582306   3.715   3.211  16.551 -0.0822 -0.9964  1.3873
20263LIG     H682307   3.830   3.439  16.581  1.8332 -0.2649  2.1678
20263LIG     H782308   3.867   3.266  16.725 -1.9833 -1.8520 -1.4345
20263LIG     H882309   3.642   3.395  16.905 -1.1893 -1.8628  1.6131
20263LIG     H982310   3.218   3.331  16.495 -1.4643  1.0049  1.4240
20263LIG    H1082311   3.378   3.224  16.500  0.9734 -1.2169  2.0439
20263LIG    H1182312   3.229   3.185  17.124  1.0545 -0.0714  0.1530
20263LIG    H1282313   3.248   3.043  17.033 -1.3264 -0.1519 -0.5075
20263LIG    H1382314   3.688   3.201  17.051 -2.7885 -0.9684 -2.6332
20263LIG    H1482315   3.831   3.157  16.964 -1.2403 -0.3314  0.1891
20263LIG    H1582316   3.034   3.374  16.772  1.0628  2.9060  1.7469
20263LIG    H1682317   3.152   3.483  17.031 -0.4906  0.3886  0.5188
20263LIG    H1782318   3.595   3.269  16.407  0.3484  0.1192 -0.5372
20263LIG    H1882319   3.651   3.561  16.584 -0.3643  0.8572  0.3485
20263LIG    H1982320   3.908   3.406  16.912  0.8720 -1.4600 -0.2782
20263LIG    H2082321   3.165   3.133  16.441 -0.1597 -2.9875  0.3355
20263LIG    H2182322   3.471   3.122  16.987 -0.4291 -0.6489 -0.3719
20263LIG    H2282323   3.887   3.283  17.134  0.7962  2.0095  1.7087
   6.81873   6.81873  17.30167
